
                                 *****************
                                 * O   R   C   A *
                                 *****************

                                            #,                                       
                                            ###                                      
                                            ####                                     
                                            #####                                    
                                            ######                                   
                                           ########,                                 
                                     ,,################,,,,,                         
                               ,,#################################,,                 
                          ,,##########################################,,             
                       ,#########################################, ''#####,          
                    ,#############################################,,   '####,        
                  ,##################################################,,,,####,       
                ,###########''''           ''''###############################       
              ,#####''   ,,,,##########,,,,          '''####'''          '####       
            ,##' ,,,,###########################,,,                        '##       
           ' ,,###''''                  '''############,,,                           
         ,,##''                                '''############,,,,        ,,,,,,###''
      ,#''                                            '''#######################'''  
     '                                                          ''''####''''         
             ,#######,   #######,   ,#######,      ##                                
            ,#'     '#,  ##    ##  ,#'     '#,    #''#        ,####,   ,####,        
            ##       ##  ##   ,#'  ##            #'  '#       #'       #'  '#        
            ##       ##  #######   ##           ,######,      #####,   #    #        
            '#,     ,#'  ##    ##  '#,     ,#' ,#      #,     #,   #   #,  ,#        
             '#######'   ##     ##  '#######'  #'      '#     '####' # '####'        



                #########################################################
                #                        -***-                          #
                #          Department of theory and spectroscopy        #
                #                                                       #
                #                      Frank Neese                      #
                #                                                       #
                #     Directorship, Architecture, Infrastructure        #
                #                    SHARK, DRIVERS                     #
                #        Core code/Algorithms in most modules           #
                #                                                       #
                #        Max Planck Institute fuer Kohlenforschung      #
                #                Kaiser Wilhelm Platz 1                 #
                #                 D-45470 Muelheim/Ruhr                 #
                #                      Germany                          #
                #                                                       #
                #                  All rights reserved                  #
                #                        -***-                          #
                #########################################################


                         Program Version 6.0.1  -  RELEASE   -


 With contributions from (in alphabetic order):
[Max-Planck-Institut fuer Kohlenforschung]                               
  Daniel Aravena         : Magnetic Suceptibility                        
  Michael Atanasov       : Ab Initio Ligand Field Theory (pilot matlab implementation)
  Alexander A. Auer      : GIAO ZORA, VPT2 properties, NMR spectrum      
  Ute Becker             : All parallelization in ORCA, NUMFREQ, NUMCALC 
  Giovanni Bistoni       : ED, misc. LED, open-shell LED, HFLD           
  Martin Brehm           : Molecular dynamics                            
  Dmytro Bykov           : pre 5.0 version of the SCF Hessian            
  Marcos Casanova-Páez   : Triplet and SCS-CIS(D). UHF-(DLPNO)-IP/EA/STEOM-CCSD. UHF-CVS-IP/STEOM-CCSD   
  Vijay G. Chilkuri      : MRCI spin determinant printing, contributions to CSF-ICE 
  Pauline Colinet        : FMM embedding                                 
  Dipayan Datta          : RHF DLPNO-CCSD density                        
  Achintya Kumar Dutta   : EOM-CC, STEOM-CC                              
  Nicolas Foglia         : Exact transition moments, OPA infrastructure, MCD improvements    
  Dmitry Ganyushin       : Spin-Orbit,Spin-Spin,Magnetic field MRCI      
  Miquel Garcia-Rates    : C-PCM and meta-GGA Hessian, CCSD/C-PCM, Gaussian charge scheme 
  Tiago L. C. Gouveia    : GS-ROHF, GS-ROCIS                             
  Yang Guo               : DLPNO-NEVPT2, F12-NEVPT2, CIM, IAO-localization        
  Andreas Hansen         : Spin unrestricted coupled pair/coupled cluster methods 
  Ingolf Harden          : AUTO-CI MPn and infrastructure                
  Benjamin Helmich-Paris : MC-RPA, TRAH-(SCF,CASSCF), AVAS, COSX integrals, SCF dyn. polar. 
  Lee Huntington         : MR-EOM, pCC                                   
  Robert Izsak           : Overlap fitted RIJCOSX, COSX-SCS-MP3, EOM     
  Riya Kayal             : Wick's Theorem for AUTO-CI, AUTO-CI UHF-CCSDT 
  Emily Kempfer          : AUTO-CI, RHF CISDT and CCSDT                  
  Christian Kollmar      : KDIIS, OOCD, Brueckner-CCSD(T), CCSD density, CASPT2, CASPT2-K, improved NEVPT2 
  Axel Koslowski         : Symmetry handling                             
  Simone Kossmann        : meta-GGA functionals, TD-DFT gradient, OOMP2, (MP2 Hessian; deprecated post 5.0) 
  Lucas Lang             : DCDCAS                                        
  Marvin Lechner         : AUTO-CI (C++ implementation), FIC-MRCC        
  Spencer Leger          : CASSCF response                               
  Dagmar Lenk            : GEPOL surface, SMD, ORCA-2-JSON               
  Dimitrios Liakos       : Extrapolation schemes; Compound Job, initial MDCI parallelization 
  Dimitrios Manganas     : Further ROCIS development; embedding schemes. LFT, Crystal Embedding 
  Dimitrios Pantazis     : SARC Basis sets                               
  Anastasios Papadopoulos: AUTO-CI, single reference methods and gradients 
  Taras Petrenko         : pre 6.0 DFT Hessian and TD-DFT gradient, (ASA, deprecated), ECA, 1-Electron XAS/XES, NRVS 
  Peter Pinski           : DLPNO-MP2, DLPNO-MP2 Gradient                 
  Christoph Reimann      : Effective Core Potentials                     
  Marius Retegan         : Local ZFS, SOC                                
  Christoph Riplinger    : Optimizer, TS searches, QM/MM, DLPNO-CCSD(T), (RO)-DLPNO pert. Triples 
  Michael Roemelt        : Original ROCIS implementation                 
  Masaaki Saitow         : Open-shell DLPNO-CCSD energy and density      
  Barbara Sandhoefer     : DKH picture change effects                    
  Kantharuban Sivalingam : CASSCF convergence/infrastructure, NEVPT2 and variants, FIC-MRCI 
  Bernardo de Souza      : ESD, SOC TD-DFT                               
  Georgi L. Stoychev     : AutoAux, RI-MP2 NMR, DLPNO-MP2 response, X2C  
  Van Anh Tran           : RI-MP2 g-tensors                              
  Willem Van den Heuvel  : Paramagnetic NMR                              
  Zikuan Wang            : NOTCH, Electric field optimization            
  Frank Wennmohs         : Technical directorship and infrastructure     
  Hang Xu                : AUTO-CI-Response properties                   
                                                                         
[FACCTs GmbH]                                                            
  Markus Bursch, Miquel Garcia-Rates, Christoph Riplinger, Bernardo de Souza, Georgi L. Stoychev 
                                                                 
  APM, Basis sets (HGBS, AHGBS, def-TZVP (Ac-Lr), def2-XVPD (La-Lu)), CI-OPT, improved COSX, DLPNO-Multilevel,           
  DOCKER, DRACO, updates on ESD, GOAT, IRC, LR-CPCM, MBIS, meta-GGA TD-DFT gradient, ML-optimized integration grids, 
  MM, NACMEs, nearIR, NEB, NEB-TS, NL-DFT gradient (VV10), 2- and 3-layer-ONIOM, interface openCOSMO-RS, QMMM,   
  Crystal-QMMM, SF, symmetry and pop. for TD-DFT, r2SCAN hybrids, SOLVATOR                                   
                                                                         
[Other institutions]                                                     
  V. Asgeirsson          : NEB                                           
  Christoph Bannwarth    : sTDA-DFT, sTD-DFT, PBEh-3c, B97-3c, D3        
  Sebastian Ehlert       : rSCAN, r2SCAN, r2SCAN-3c, D4, dhf basis sets  
  Marvin Friede          : D4 for Fr, Ra, Ac-Lr                          
  Lars Goerigk           : TD-DFT with DH, B97 family of functionals     
  Stefan Grimme          : VdW corrections, initial TS optimization, DFT functionals, gCP, sTDA/sTD-DF 
  Waldemar Hujo          : DFT-NL                                        
  H. Jonsson             : NEB                                           
  Holger Kruse           : gCP                                           
  Marcel Mueller         : wB97X-3c, vDZP basis set                      
  Hagen Neugebauer       : wr2SCAN                                       
  Tobias Risthaus        : range-separated hybrid DFT                    
  Lukas Wittmann         : regularized MP2, r2SCAN double-hybrids, wr2SCAN        
                                                                         
We gratefully acknowledge several colleagues who have allowed us to      
interface, adapt or use parts of their codes:                            
  Ed Valeev, F. Pavosevic, A. Kumar             : LibInt (2-el integral package), F12 methods 
  Garnet Chan, S. Sharma, J. Yang, R. Olivares  : DMRG                   
  Ulf Ekstrom                                   : XCFun DFT Library      
  Mihaly Kallay                                 : mrcc  (arbitrary order and MRCC methods)
  Frank Weinhold                                : gennbo (NPA and NBO analysis)           
  Simon Mueller                                 : openCOSMO-RS                            
  Christopher J. Cramer and Donald G. Truhlar   : smd solvation model                     
  S Lehtola, MJT Oliveira, MAL Marques          : LibXC Library                           
  Liviu Ungur et al                             : ANISO software                          


 Your calculation uses the libint2 library for the computation of 2-el integrals
 For citations please refer to: http://libint.valeyev.net

 Your ORCA version has been built with support for libXC version: 6.2.2
 For citations please refer to: https://libxc.gitlab.io

 This ORCA versions uses:
   CBLAS   interface :  Fast vector & matrix operations
   LAPACKE interface :  Fast linear algebra routines
   SCALAPACK package :  Parallel linear algebra routines
   Shared memory     :  Shared parallel matrices
   BLAS/LAPACK       :  OpenBLAS 0.3.27  USE64BITINT DYNAMIC_ARCH NO_AFFINITY SkylakeX SINGLE_THREADED
        Core in use  :  SkylakeX
   Copyright (c) 2011-2014, The OpenBLAS Project


NOTE: MaxCore=8000 MB was set to SCF,MP2,MDCI,CIPSI,MRCI and CIS
      => If you want to overwrite this, your respective input block should be placed after the MaxCore statement
Your calculation utilizes the atom-pairwise dispersion correction
with the Becke-Johnson damping scheme (D3BJ)


Your calculation utilizes the SMD solvation module
Please cite in your paper:
A.V. Marenich, C.J. Cramer, D.G. Truhlar J. Phys. Chem. B, 113, (2009), 6378 

Warning: RI is on but no J-basis has been assigned. Assigning Def2/J (nothing to worry about!)
================================================================================

----- Orbital basis set information -----
Your calculation utilizes the basis: def2-TZVP
   F. Weigend and R. Ahlrichs, Phys. Chem. Chem. Phys. 7, 3297 (2005).

----- AuxJ basis set information -----
Your calculation utilizes the auxiliary basis: def2/J
   F. Weigend, Phys. Chem. Chem. Phys. 8, 1057 (2006).

================================================================================
                                        WARNINGS
                       Please study these warnings very carefully!
================================================================================


WARNING: your system is open-shell and RHF/RKS was chosen
  ===> : WILL SWITCH to UHF/UKS


WARNING: Geometry Optimization
  ===> : Switching off AutoStart
         For restart on a previous wavefunction, please use MOREAD

================================================================================
                                       INPUT FILE
================================================================================
NAME = rf_mecn_1H2O_opt_B3L_sw_004.inp
|  1> !B3LYP def2-TZVP opt d3 TightSCF SlowConv defgrid2
|  2>  
|  3> %pal
|  4> nprocs 20
|  5> end
|  6>  
|  7> %scf
|  8> MaxIter 1500
|  9> end
| 10>  
| 11> %maxcore 8000
| 12>  
| 13> !CPCM
| 14> %cpcm smd true
| 15> SMDsolvent "ACETONITRILE"
| 16> end
| 17>  
| 18> * xyz -2 2
| 19> 6        6.857280945     27.901753127      3.100719684
| 20> 6        6.154044945     26.704598127      2.411135684
| 21> 6        7.086539945     25.482838127      2.185613684
| 22> 6        6.299616945     24.171731127      1.900070684
| 23> 6        7.185881945     23.070259127      1.248991684
| 24> 6        6.565390945     21.647303127      1.360366684
| 25> 6        7.185681945     20.616666127      0.394672684
| 26> 6        6.843394945     19.121603127      0.784430684
| 27> 9        8.006806945     28.182557127      2.503585684
| 28> 9        7.082780945     27.647576127      4.378925684
| 29> 9        6.067588945     28.966668127      3.018348684
| 30> 9        5.116418945     26.361022127      3.182510684
| 31> 9        5.702795945     27.135986127      1.230360684
| 32> 9        7.887905945     25.777720127      1.156931684
| 33> 9        7.829891945     25.318192127      3.287321684
| 34> 9        5.806494945     23.745652127      3.066652684
| 35> 9        5.287431945     24.474179127      1.076603684
| 36> 9        7.350609945     23.413929127     -0.034316316
| 37> 9        8.377622945     23.098911127      1.865134684
| 38> 9        6.756126945     21.255165127      2.631170684
| 39> 9        5.250981945     21.784657127      1.133608684
| 40> 9        6.706596945     20.903759127     -0.845345316
| 41> 9        8.519170945     20.869305127      0.364163684
| 42> 8        7.813741945     18.363469127      0.789215684
| 43> 8        5.634555945     18.967368127      0.997888684
| 44> 8        2.818390092     18.736599843      1.412612662
| 45> 1        2.716934106     17.791620290      1.243555674
| 46> 1        3.748070901     18.906228277      1.215686974
| 47> *
| 48> 
| 49>                          ****END OF INPUT****
================================================================================

                       *****************************
                       * Geometry Optimization Run *
                       *****************************

Geometry optimization settings:
Update method            Update   .... BFGS
Choice of coordinates    CoordSys .... (2022) Redundant Internals
Initial Hessian          InHess   .... Almloef's Model
Max. no of cycles        MaxIter  .... 84

Convergence Tolerances:
Energy Change            TolE     ....  5.0000e-06 Eh
Max. Gradient            TolMAXG  ....  3.0000e-04 Eh/bohr
RMS Gradient             TolRMSG  ....  1.0000e-04 Eh/bohr
Max. Displacement        TolMAXD  ....  4.0000e-03 bohr
RMS Displacement         TolRMSD  ....  2.0000e-03 bohr
Strict Convergence                .... False

------------------------------------------------------------------------------
                        ORCA OPTIMIZATION COORDINATE SETUP
------------------------------------------------------------------------------

The optimization will be done in redundant internal coordinates (2022)
Making redundant internal coordinates   ...  (2022 redundants) done
Evaluating the initial hessian          ...  (Almloef) done
Evaluating the coordinates              ...  done
Calculating the B-matrix                .... done
Calculating the G-matrix                .... done
Diagonalizing the G-matrix              .... done
Small eigenvalue found = 2.494e-03
Small eigenvalue found = 9.182e-03
Small eigenvalue found = 1.155e-02
Small eigenvalue found = 2.495e-02
The first mode is                       ....   42
The number of degrees of freedom        ....   78

    -----------------------------------------------------------------
                    Redundant Internal Coordinates


    -----------------------------------------------------------------
         Definition                    Initial Value    Approx d2E/dq
    -----------------------------------------------------------------
      1. B(C   1,C   0)                  1.5502         0.346804   
      2. B(C   2,C   1)                  1.5534         0.342781   
      3. B(C   3,C   2)                  1.5556         0.340086   
      4. B(C   4,C   3)                  1.5565         0.338954   
      5. B(C   5,C   4)                  1.5563         0.339111   
      6. B(C   6,C   5)                  1.5426         0.356709   
      7. B(C   7,C   6)                  1.5825         0.308055   
      8. B(F   8,C   0)                  1.3255         0.659090   
      9. B(F   9,C   0)                  1.3226         0.666042   
     10. B(F  10,C   0)                  1.3283         0.652181   
     11. B(F  11,C   1)                  1.3378         0.629847   
     12. B(F  12,C   1)                  1.3356         0.634870   
     13. B(F  13,C   2)                  1.3369         0.631928   
     14. B(F  14,C   2)                  1.3392         0.626649   
     15. B(F  15,C   3)                  1.3363         0.633409   
     16. B(F  16,C   3)                  1.3394         0.626090   
     17. B(F  17,C   4)                  1.3387         0.627782   
     18. B(F  18,C   4)                  1.3419         0.620447   
     19. B(F  19,C   5)                  1.3435         0.616728   
     20. B(F  20,C   5)                  1.3409         0.622782   
     21. B(F  21,C   6)                  1.3600         0.580545   
     22. B(F  22,C   6)                  1.3576         0.585779   
     23. B(O  23,C   7)                  1.2314         1.002075   
     24. B(O  24,C   7)                  1.2372         0.981004   
     25. B(H  26,O  25)                  0.9653         0.509876   
     26. B(H  27,O  24)                  1.9000         0.016453   
     27. B(H  27,O  25)                  0.9653         0.509876   
     28. A(C   1,C   0,F   9)          111.0282         0.392261   
     29. A(C   1,C   0,F   8)          110.8930         0.391542   
     30. A(F   8,C   0,F  10)          108.5307         0.433227   
     31. A(F   8,C   0,F   9)          109.1619         0.434870   
     32. A(C   1,C   0,F  10)          108.7739         0.390821   
     33. A(F   9,C   0,F  10)          108.3827         0.434046   
     34. A(C   2,C   1,F  11)          110.3230         0.387660   
     35. A(C   0,C   1,C   2)          113.5553         0.353571   
     36. A(F  11,C   1,F  12)          109.3079         0.427641   
     37. A(C   0,C   1,F  11)          107.0787         0.388450   
     38. A(C   2,C   1,F  12)          109.1769         0.388197   
     39. A(C   0,C   1,F  12)          107.2827         0.388989   
     40. A(C   3,C   2,F  13)          110.3587         0.387350   
     41. A(F  13,C   2,F  14)          109.1107         0.426896   
     42. A(C   1,C   2,F  14)          108.0873         0.387316   
     43. A(C   1,C   2,C   3)          112.6983         0.352402   
     44. A(C   1,C   2,F  13)          107.3405         0.387883   
     45. A(C   3,C   2,F  14)          109.1587         0.386784   
     46. A(F  15,C   3,F  16)          109.2595         0.427007   
     47. A(C   4,C   3,F  16)          109.4458         0.386499   
     48. A(C   2,C   3,F  16)          107.7470         0.386724   
     49. A(C   4,C   3,F  15)          110.4668         0.387282   
     50. A(C   2,C   3,C   4)          112.6559         0.351734   
     51. A(C   2,C   3,F  15)          107.1682         0.387508   
     52. A(C   3,C   4,F  18)          107.3682         0.385890   
     53. A(C   5,C   4,F  17)          110.6326         0.386712   
     54. A(C   3,C   4,F  17)          106.8213         0.386681   
     55. A(C   3,C   4,C   5)          112.9589         0.351563   
     56. A(F  17,C   4,F  18)          108.9895         0.425634   
     57. A(C   5,C   4,F  18)          109.9216         0.385921   
     58. A(C   4,C   5,C   6)          113.9380         0.354615   
     59. A(F  19,C   5,F  20)          109.2091         0.424568   
     60. A(C   6,C   5,F  20)          110.9006         0.389596   
     61. A(C   4,C   5,F  20)          106.5622         0.386174   
     62. A(C   6,C   5,F  19)          109.8795         0.388932   
     63. A(C   4,C   5,F  19)          106.1374         0.385517   
     64. A(C   5,C   6,C   7)          112.9578         0.348903   
     65. A(F  21,C   6,F  22)          106.6335         0.415450   
     66. A(C   7,C   6,F  22)          113.1920         0.375779   
     67. A(C   5,C   6,F  22)          106.5420         0.385457   
     68. A(C   7,C   6,F  21)          110.3532         0.375197   
     69. A(C   5,C   6,F  21)          106.7446         0.384856   
     70. A(O  23,C   7,O  24)          133.8297         0.508781   
     71. A(C   6,C   7,O  24)          111.8150         0.413089   
     72. A(C   6,C   7,O  23)          114.3410         0.414652   
     73. A(C   7,O  24,H  27)          173.6796         0.231741   
     74. A(H  26,O  25,H  27)          103.7396         0.319780   
     75. A(O  24,H  27,O  25)          170.1504         0.195092   
     76. D(F  11,C   1,C   0,F   9)     49.4768         0.009705   
     77. D(C   2,C   1,C   0,F   8)     48.9947         0.009705   
     78. D(F  11,C   1,C   0,F   8)    171.0207         0.009705   
     79. D(F  11,C   1,C   0,F  10)    -69.7011         0.009705   
     80. D(C   2,C   1,C   0,F   9)    -72.5492         0.009705   
     81. D(C   2,C   1,C   0,F  10)    168.2729         0.009705   
     82. D(C   3,C   2,C   1,C   0)    162.7875         0.009500   
     83. D(F  13,C   2,C   1,F  12)     44.1537         0.009500   
     84. D(F  13,C   2,C   1,C   0)    -75.4998         0.009500   
     85. D(F  13,C   2,C   1,F  11)    164.2939         0.009500   
     86. D(C   3,C   2,C   1,F  11)     42.5812         0.009500   
     87. D(C   3,C   2,C   1,F  12)    -77.5590         0.009500   
     88. D(C   4,C   3,C   2,F  13)     42.1846         0.009364   
     89. D(C   4,C   3,C   2,F  14)    -77.7232         0.009364   
     90. D(C   4,C   3,C   2,C   1)    162.1720         0.009364   
     91. D(F  15,C   3,C   2,F  14)     43.9807         0.009364   
     92. D(F  15,C   3,C   2,F  13)    163.8885         0.009364   
     93. D(F  15,C   3,C   2,C   1)    -76.1241         0.009364   
     94. D(F  17,C   4,C   3,F  16)     43.8732         0.009308   
     95. D(F  17,C   4,C   3,F  15)    164.2137         0.009308   
     96. D(F  17,C   4,C   3,C   2)    -75.9715         0.009308   
     97. D(C   5,C   4,C   3,F  16)    -77.9884         0.009308   
     98. D(C   5,C   4,C   3,F  15)     42.3521         0.009308   
     99. D(C   5,C   4,C   3,C   2)    162.1669         0.009308   
    100. D(F  19,C   5,C   4,F  18)     44.0726         0.009315   
    101. D(F  19,C   5,C   4,F  17)    164.4895         0.009315   
    102. D(F  19,C   5,C   4,C   3)    -75.8189         0.009315   
    103. D(C   6,C   5,C   4,F  18)    -76.9753         0.009315   
    104. D(C   6,C   5,C   4,F  17)     43.4416         0.009315   
    105. D(C   6,C   5,C   4,C   3)    163.1331         0.009315   
    106. D(C   7,C   6,C   5,C   4)    164.0956         0.010222   
    107. D(F  21,C   6,C   5,F  20)     45.7788         0.010222   
    108. D(F  21,C   6,C   5,F  19)    166.6154         0.010222   
    109. D(F  21,C   6,C   5,C   4)    -74.4447         0.010222   
    110. D(C   7,C   6,C   5,F  20)    -75.6808         0.010222   
    111. D(C   7,C   6,C   5,F  19)     45.1557         0.010222   
    112. D(O  24,C   7,C   6,F  21)    -70.5516         0.007386   
    113. D(O  24,C   7,C   6,C   5)     48.8461         0.007386   
    114. D(O  23,C   7,C   6,F  22)    -11.1459         0.007386   
    115. D(O  23,C   7,C   6,F  21)    108.2663         0.007386   
    116. D(O  23,C   7,C   6,C   5)   -132.3360         0.007386   
    117. D(H  27,O  24,C   7,O  23)   -158.3762         0.078375   
    118. D(H  27,O  24,C   7,C   6)     20.1307         0.078375   
    119. D(O  24,H  27,O  25,H  26)    -44.6419         0.289652   
    120. D(O  25,H  27,O  24,C   7)    180.0000         0.001625   
    -----------------------------------------------------------------

Number of atoms                         .... 28
Number of degrees of freedom            .... 120


         *************************************************************
         *                GEOMETRY OPTIMIZATION CYCLE   1            *
         *************************************************************
---------------------------------
CARTESIAN COORDINATES (ANGSTROEM)
---------------------------------
  C      6.857281   27.901753    3.100720
  C      6.154045   26.704598    2.411136
  C      7.086540   25.482838    2.185614
  C      6.299617   24.171731    1.900071
  C      7.185882   23.070259    1.248992
  C      6.565391   21.647303    1.360367
  C      7.185682   20.616666    0.394673
  C      6.843395   19.121603    0.784431
  F      8.006807   28.182557    2.503586
  F      7.082781   27.647576    4.378926
  F      6.067589   28.966668    3.018349
  F      5.116419   26.361022    3.182511
  F      5.702796   27.135986    1.230361
  F      7.887906   25.777720    1.156932
  F      7.829892   25.318192    3.287322
  F      5.806495   23.745652    3.066653
  F      5.287432   24.474179    1.076604
  F      7.350610   23.413929   -0.034316
  F      8.377623   23.098911    1.865135
  F      6.756127   21.255165    2.631171
  F      5.250982   21.784657    1.133609
  F      6.706597   20.903759   -0.845345
  F      8.519171   20.869305    0.364164
  O      7.813742   18.363469    0.789216
  O      5.634556   18.967368    0.997889
  O      2.818390   18.736600    1.412613
  H      2.716934   17.791620    1.243556
  H      3.748071   18.906228    1.215687

----------------------------
CARTESIAN COORDINATES (A.U.)
----------------------------
  NO LB      ZA    FRAG     MASS         X           Y           Z
   0 C     6.0000    0    12.011   12.958383   52.726672    5.859511
   1 C     6.0000    0    12.011   11.629460   50.464377    4.556386
   2 C     6.0000    0    12.011   13.391620   48.155585    4.130211
   3 C     6.0000    0    12.011   11.904551   45.677952    3.590613
   4 C     6.0000    0    12.011   13.579349   43.596472    2.360252
   5 C     6.0000    0    12.011   12.406791   40.907474    2.570720
   6 C     6.0000    0    12.011   13.578971   38.959853    0.745823
   7 C     6.0000    0    12.011   12.932142   36.134593    1.482359
   8 F     9.0000    0    18.998   15.130672   53.257315    4.731091
   9 F     9.0000    0    18.998   13.384516   52.246347    8.274970
  10 F     9.0000    0    18.998   11.466081   54.739070    5.703852
  11 F     9.0000    0    18.998    9.668631   49.815112    6.014074
  12 F     9.0000    0    18.998   10.776723   51.279582    2.325045
  13 F     9.0000    0    18.998   14.905982   48.712831    2.186284
  14 F     9.0000    0    18.998   14.796351   47.844449    6.212138
  15 F     9.0000    0    18.998   10.972685   44.872779    5.795134
  16 F     9.0000    0    18.998    9.991798   46.249496    2.034486
  17 F     9.0000    0    18.998   13.890640   44.245914   -0.064848
  18 F     9.0000    0    18.998   15.831413   43.650616    3.524594
  19 F     9.0000    0    18.998   12.767230   40.166441    4.972192
  20 F     9.0000    0    18.998    9.922918   41.167036    2.142210
  21 F     9.0000    0    18.998   12.673632   39.502380   -1.597471
  22 F     9.0000    0    18.998   16.098900   39.437271    0.688170
  23 O     8.0000    0    15.999   14.765832   34.701928    1.491402
  24 O     8.0000    0    15.999   10.647768   35.843131    1.885736
  25 O     8.0000    0    15.999    5.325985   35.407042    2.669451
  26 H     1.0000    0     1.008    5.134261   33.621290    2.349980
  27 H     1.0000    0     1.008    7.082828   35.727594    2.297315

--------------------------------
INTERNAL COORDINATES (ANGSTROEM)
--------------------------------
 C      0   0   0     0.000000000000     0.00000000     0.00000000
 C      1   0   0     1.550240967971     0.00000000     0.00000000
 C      2   1   0     1.553417070561   113.55533844     0.00000000
 C      3   2   1     1.555565549319   112.69827683   162.78749478
 C      4   3   2     1.556473604418   112.65593685   162.17204174
 C      5   4   3     1.556347406475   112.95890429   162.16693919
 C      6   5   4     1.542575266263   113.93798420   163.13314068
 C      7   6   5     1.582493305800   112.95775891   164.09560104
 F      1   2   3     1.325454610708   110.89295443    48.99470066
 F      1   2   3     1.322598493786   111.02821211   287.45080856
 F      1   2   3     1.328323151093   108.77385697   168.27294708
 F      2   1   3     1.337808496862   107.07872998   122.02597894
 F      2   1   3     1.335646235786   107.28270546   239.27402584
 F      3   2   1     1.336910437166   107.34054952   284.50021141
 F      3   2   1     1.339194167581   108.08730739    42.06766241
 F      4   3   2     1.336273244456   107.16821115   283.87589533
 F      4   3   2     1.339436884298   107.74698212    41.35047990
 F      5   4   3     1.338702284210   106.82131950   284.02853646
 F      5   4   3     1.341901540589   107.36821732    40.81959257
 F      6   5   4     1.343538328131   106.13743735   284.18106314
 F      6   5   4     1.340878939786   106.56217547    40.50128759
 F      7   6   5     1.359996128008   106.74461671   285.55525164
 F      7   6   5     1.357553010576   106.54195382    39.20780969
 O      8   7   6     1.231407064536   114.34099629   227.66396244
 O      8   7   6     1.237192176224   111.81500307    48.84611502
 O     25   8   7     2.855878164494   176.99440113    20.13066459
 H     26  25   8     0.965328927296    99.05067288   136.27702780
 H     26  25   8     0.965328927795     6.53484144     0.00000000

---------------------------
INTERNAL COORDINATES (A.U.)
---------------------------
 C      0   0   0     0.000000000000     0.00000000     0.00000000
 C      1   0   0     2.929530871051     0.00000000     0.00000000
 C      2   1   0     2.935532835118   113.55533844     0.00000000
 C      3   2   1     2.939592871575   112.69827683   162.78749478
 C      4   3   2     2.941308847027   112.65593685   162.17204174
 C      5   4   3     2.941070367477   112.95890429   162.16693919
 C      6   5   4     2.915044794198   113.93798420   163.13314068
 C      7   6   5     2.990478956726   112.95775891   164.09560104
 F      1   2   3     2.504746217182   110.89295443    48.99470066
 F      1   2   3     2.499348938392   111.02821211   287.45080856
 F      1   2   3     2.510166972913   108.77385697   168.27294708
 F      2   1   3     2.528091678703   107.07872998   122.02597894
 F      2   1   3     2.524005597439   107.28270546   239.27402584
 F      3   2   1     2.526394591825   107.34054952   284.50021141
 F      3   2   1     2.530710216873   108.08730739    42.06766241
 F      4   3   2     2.525190472108   107.16821115   283.87589533
 F      4   3   2     2.531168884996   107.74698212    41.35047990
 F      5   4   3     2.529780692011   106.82131950   284.02853646
 F      5   4   3     2.535826410399   107.36821732    40.81959257
 F      6   5   4     2.538919490593   106.13743735   284.18106314
 F      6   5   4     2.533893974938   106.56217547    40.50128759
 F      7   6   5     2.570020225129   106.74461671   285.55525164
 F      7   6   5     2.565403402268   106.54195382    39.20780969
 O      8   7   6     2.327022111350   114.34099629   227.66396244
 O      8   7   6     2.337954388093   111.81500307    48.84611502
 O     25   8   7     5.396827602739   176.99440113    20.13066459
 H     26  25   8     1.824207301742    99.05067288   136.27702780
 H     26  25   8     1.824207302685     6.53484144     0.00000000

---------------------
BASIS SET INFORMATION
---------------------
There are 4 groups of distinct atoms

 Group   1 Type C   : 11s6p2d1f contracted to 5s3p2d1f pattern {62111/411/11/1}
 Group   2 Type F   : 11s6p2d1f contracted to 5s3p2d1f pattern {62111/411/11/1}
 Group   3 Type O   : 11s6p2d1f contracted to 5s3p2d1f pattern {62111/411/11/1}
 Group   4 Type H   : 5s1p contracted to 3s1p pattern {311/1}

Atom   0C    basis set group =>   1
Atom   1C    basis set group =>   1
Atom   2C    basis set group =>   1
Atom   3C    basis set group =>   1
Atom   4C    basis set group =>   1
Atom   5C    basis set group =>   1
Atom   6C    basis set group =>   1
Atom   7C    basis set group =>   1
Atom   8F    basis set group =>   2
Atom   9F    basis set group =>   2
Atom  10F    basis set group =>   2
Atom  11F    basis set group =>   2
Atom  12F    basis set group =>   2
Atom  13F    basis set group =>   2
Atom  14F    basis set group =>   2
Atom  15F    basis set group =>   2
Atom  16F    basis set group =>   2
Atom  17F    basis set group =>   2
Atom  18F    basis set group =>   2
Atom  19F    basis set group =>   2
Atom  20F    basis set group =>   2
Atom  21F    basis set group =>   2
Atom  22F    basis set group =>   2
Atom  23O    basis set group =>   3
Atom  24O    basis set group =>   3
Atom  25O    basis set group =>   3
Atom  26H    basis set group =>   4
Atom  27H    basis set group =>   4
---------------------------------
AUXILIARY/J BASIS SET INFORMATION
---------------------------------
There are 4 groups of distinct atoms

 Group   1 Type C   : 12s5p4d2f1g contracted to 6s4p3d1f1g pattern {711111/2111/211/2/1}
 Group   2 Type F   : 12s5p4d2f1g contracted to 6s4p3d1f1g pattern {711111/2111/211/2/1}
 Group   3 Type O   : 12s5p4d2f1g contracted to 6s4p3d1f1g pattern {711111/2111/211/2/1}
 Group   4 Type H   : 5s2p1d contracted to 3s1p1d pattern {311/2/1}

Atom   0C    basis set group =>   1
Atom   1C    basis set group =>   1
Atom   2C    basis set group =>   1
Atom   3C    basis set group =>   1
Atom   4C    basis set group =>   1
Atom   5C    basis set group =>   1
Atom   6C    basis set group =>   1
Atom   7C    basis set group =>   1
Atom   8F    basis set group =>   2
Atom   9F    basis set group =>   2
Atom  10F    basis set group =>   2
Atom  11F    basis set group =>   2
Atom  12F    basis set group =>   2
Atom  13F    basis set group =>   2
Atom  14F    basis set group =>   2
Atom  15F    basis set group =>   2
Atom  16F    basis set group =>   2
Atom  17F    basis set group =>   2
Atom  18F    basis set group =>   2
Atom  19F    basis set group =>   2
Atom  20F    basis set group =>   2
Atom  21F    basis set group =>   2
Atom  22F    basis set group =>   2
Atom  23O    basis set group =>   3
Atom  24O    basis set group =>   3
Atom  25O    basis set group =>   3
Atom  26H    basis set group =>   4
Atom  27H    basis set group =>   4


           ************************************************************
           *        Program running with 20 parallel MPI-processes    *
           *              working on a common directory               *
           ************************************************************
------------------------------------------------------------------------------
                             ORCA STARTUP CALCULATIONS
                           -- RI-GTO INTEGRALS CHOSEN --
------------------------------------------------------------------------------
------------------------------------------------------------------------------
                   ___                                                        
                  /   \      - P O W E R E D   B Y -                         
                 /     \                                                     
                 |  |  |   _    _      __       _____    __    __             
                 |  |  |  | |  | |    /  \     |  _  \  |  |  /  |          
                  \  \/   | |  | |   /    \    | | | |  |  | /  /          
                 / \  \   | |__| |  /  /\  \   | |_| |  |  |/  /          
                |  |  |   |  __  | /  /__\  \  |    /   |      \           
                |  |  |   | |  | | |   __   |  |    \   |  |\   \          
                \     /   | |  | | |  |  |  |  | |\  \  |  | \   \       
                 \___/    |_|  |_| |__|  |__|  |_| \__\ |__|  \__/        
                                                                              
                      - O R C A' S   B I G   F R I E N D -                    
                                      &                                       
                       - I N T E G R A L  F E E D E R -                       
                                                                              
 v1 FN, 2020, v2 2021, v3 2022-2024                                           
------------------------------------------------------------------------------


----------------------
SHARK INTEGRAL PACKAGE
----------------------

Number of atoms                             ...     28
Number of basis functions                   ...    818
Number of shells                            ...    294
Maximum angular momentum                    ...      3
Integral batch strategy                     ... SHARK/LIBINT Hybrid
RI-J (if used) integral strategy            ... SPLIT-RIJ (Revised 2003 algorithm where possible)
Printlevel                                  ...      1
Contraction scheme used                     ... SEGMENTED contraction
Prescreening option                         ... SCHWARTZ
   Thresh                                   ... 2.500e-11
   Tcut                                     ... 2.500e-12
   Tpresel                                  ... 2.500e-12 
Coulomb Range Separation                    ... NOT USED
Exchange Range Separation                   ... NOT USED
Multipole approximations                    ... NOT USED
Finite Nucleus Model                        ... NOT USED
CABS basis                                  ... NOT available
Auxiliary Coulomb fitting basis             ... AVAILABLE
   # of basis functions in Aux-J            ...   1296
   # of shells in Aux-J                     ...    400
   Maximum angular momentum in Aux-J        ...      4
Auxiliary J/K fitting basis                 ... NOT available
Auxiliary Correlation fitting basis         ... NOT available
Auxiliary 'external' fitting basis          ... NOT available

Checking pre-screening integrals            ... done (  0.0 sec) Dimension = 294
Check shell pair data                       ... done (  0.0 sec)
Shell pair information
Shell pair cut-off parameter TPreSel        ...   2.5e-12
Total number of shell pairs                 ...     43365
Shell pairs after pre-screening             ...     25535
Total number of primitive shell pairs       ...    142356
Primitive shell pairs kept                  ...     53484
          la=0 lb=0:   4947 shell pairs
          la=1 lb=0:   7034 shell pairs
          la=1 lb=1:   2417 shell pairs
          la=2 lb=0:   3764 shell pairs
          la=2 lb=1:   2745 shell pairs
          la=2 lb=2:    755 shell pairs
          la=3 lb=0:   1708 shell pairs
          la=3 lb=1:   1309 shell pairs
          la=3 lb=2:    689 shell pairs
          la=3 lb=3:    167 shell pairs

Calculating one electron integrals          ... done (  0.0 sec)
Calculating RI/J V-Matrix + Cholesky decomp.... done (  0.1 sec)
Calculating Nuclear repulsion               ... done (  0.0 sec) ENN=   3082.708906043765 Eh

Diagonalization of the overlap matrix:
Smallest eigenvalue                        ... 5.067e-05
Time for diagonalization                   ...    0.126 sec
Threshold for overlap eigenvalues          ... 1.000e-07
Number of eigenvalues below threshold      ... 0
Time for construction of square roots      ...    0.056 sec
Total time needed                          ...    0.190 sec

-------------------
DFT GRID GENERATION
-------------------

General Integration Accuracy     IntAcc      ... 4.388
Radial Grid Type                 RadialGrid  ... OptM3 with GC (2021)
Angular Grid (max. ang.)         AngularGrid ... 4 (Lebedev-302)
Angular grid pruning method      GridPruning ... 4 (adaptive)
Weight generation scheme         WeightScheme... mBecke (2022)
Basis function cutoff            BFCut       ... 1.0000e-11
Integration weight cutoff        WCut        ... 1.0000e-14
Partially contracted basis set               ... off
Rotationally invariant grid construction     ... off
Angular grids for H and He will be reduced by one unit

Total number of grid points                  ...   164047
Total number of batches                      ...     2576
Average number of points per batch           ...       63
Average number of grid points per atom       ...     5859

--------------------
COSX GRID GENERATION
--------------------

GRIDX 1
-------
General Integration Accuracy     IntAcc      ... 3.816
Radial Grid Type                 RadialGrid  ... OptM3 with GC (2021)
Angular Grid (max. ang.)         AngularGrid ... 1 (Lebedev-50)
Angular grid pruning method      GridPruning ... 4 (adaptive)
Weight generation scheme         WeightScheme... mBecke (2022)
Basis function cutoff            BFCut       ... 1.0000e-11
Integration weight cutoff        WCut        ... 1.0000e-14
Partially contracted basis set               ... on
Rotationally invariant grid construction     ... off
Angular grids for H and He will be reduced by one unit

Total number of grid points                  ...    20660
Total number of batches                      ...      173
Average number of points per batch           ...      119
Average number of grid points per atom       ...      738
UseSFitting                                  ... on

GRIDX 2
-------
General Integration Accuracy     IntAcc      ... 4.020
Radial Grid Type                 RadialGrid  ... OptM3 with GC (2021)
Angular Grid (max. ang.)         AngularGrid ... 2 (Lebedev-110)
Angular grid pruning method      GridPruning ... 4 (adaptive)
Weight generation scheme         WeightScheme... mBecke (2022)
Basis function cutoff            BFCut       ... 1.0000e-11
Integration weight cutoff        WCut        ... 1.0000e-14
Partially contracted basis set               ... on
Rotationally invariant grid construction     ... off
Angular grids for H and He will be reduced by one unit

Total number of grid points                  ...    48341
Total number of batches                      ...      394
Average number of points per batch           ...      122
Average number of grid points per atom       ...     1726
UseSFitting                                  ... on

GRIDX 3
-------
General Integration Accuracy     IntAcc      ... 4.338
Radial Grid Type                 RadialGrid  ... OptM3 with GC (2021)
Angular Grid (max. ang.)         AngularGrid ... 3 (Lebedev-194)
Angular grid pruning method      GridPruning ... 4 (adaptive)
Weight generation scheme         WeightScheme... mBecke (2022)
Basis function cutoff            BFCut       ... 1.0000e-11
Integration weight cutoff        WCut        ... 1.0000e-14
Partially contracted basis set               ... on
Rotationally invariant grid construction     ... off
Angular grids for H and He will be reduced by one unit

Total number of grid points                  ...   106996
Total number of batches                      ...      848
Average number of points per batch           ...      126
Average number of grid points per atom       ...     3821
UseSFitting                                  ... on
Initializing property integral containers    ... done (  0.0 sec)

SHARK setup successfully completed in   3.2 seconds

Maximum memory used throughout the entire STARTUP-calculation: 64.0 MB


           ************************************************************
           *        Program running with 20 parallel MPI-processes    *
           *              working on a common directory               *
           ************************************************************
-------------------------------------------------------------------------------
                                 ORCA GUESS
                   Start orbitals & Density for SCF / CASSCF
-------------------------------------------------------------------------------

------------
SCF SETTINGS
------------
Hamiltonian:
 Density Functional     Method          .... DFT(GTOs)
 Exchange Functional    Exchange        .... B88
   X-Alpha parameter    XAlpha          ....  0.666667
   Becke's b parameter  XBeta           ....  0.004200
 Correlation Functional Correlation     .... LYP
 LDA part of GGA corr.  LDAOpt          .... VWN-5
 Gradients option       PostSCFGGA      .... off
 Hybrid DFT is turned on
   Fraction HF Exchange ScalHFX         ....  0.200000
   Scaling of DF-GGA-X  ScalDFX         ....  0.720000
   Scaling of DF-GGA-C  ScalDFC         ....  0.810000
   Scaling of DF-LDA-C  ScalLDAC        ....  1.000000
   Perturbative correction              ....  0.000000
   NL short-range parameter             ....  4.800000
 RI-approximation to the Coulomb term is turned on
   Number of AuxJ basis functions       .... 1296
   RIJ-COSX (HFX calculated with COS-X)).... on


General Settings:
 Integral files         IntName         .... rf_mecn_1H2O_opt_B3L_sw_004
 Hartree-Fock type      HFTyp           .... UHF
 Total Charge           Charge          ....   -2
 Multiplicity           Mult            ....    2
 Number of Electrons    NEL             ....  211
 Basis Dimension        Dim             ....  818
 Nuclear Repulsion      ENuc            ....   3082.7089060438 Eh

Convergence Acceleration:
 AO-DIIS                CNVDIIS         .... on
   Start iteration      DIISMaxIt       ....     0
   Startup error        DIISStart       ....  0.200000
   # of expansion vecs  DIISMaxEq       ....     5
   Bias factor          DIISBfac        ....   1.050
   Max. coefficient     DIISMaxC        ....  10.000
 MO-DIIS                CNVKDIIS        .... off
 Trust-Rad. Augm. Hess. CNVTRAH         .... auto
   Auto Start mean grad. ratio tolernc. ....  1.125000
   Auto Start start iteration           ....    50
   Auto Start num. interpolation iter.  ....    10
   Max. Number of Micro iterations      ....    24
   Max. Number of Macro iterations      .... Maxiter - #DIIS iter
   Number of Davidson start vectors     ....     2
   Converg. threshold    (grad. norm)   ....   1.000e-05
   Grad. Scal. Fac. for Micro threshold ....   0.100
   Minimum threshold for Micro iter.    ....   1.000e-02
   NR start threshold (gradient norm)   ....   1.000e-04
   Initial trust radius                 ....   0.400
   Minimum AH scaling param. (alpha)    ....   1.000
   Maximum AH scaling param. (alpha)    .... 1000.000
   Quad. conv. algorithm                .... NR
   White noise on init. David. guess    .... on
   Maximum white noise                  ....   0.010
   Pseudo random numbers                .... off
   Inactive MOs                         .... canonical
   Orbital update algorithm             .... Taylor
   Preconditioner                       .... Diag
   Full preconditioner red. dimension   ....   250
 SOSCF                  CNVSOSCF        .... on
   Start iteration      SOSCFMaxIt      ....   150
   Startup grad/error   SOSCFStart      ....  0.001000
   Hessian update       SOSCFHessUp     .... L-BFGS
 Level Shifting         CNVShift        .... on
   Level shift para.    LevelShift      ....    0.2500
   Turn off err/grad.   ShiftErr        ....    0.0000
 Zerner damping         CNVZerner       .... off
 Static damping         CNVDamp         .... on
   Fraction old density DampFac         ....    0.8500
   Max. Damping (<1)    DampMax         ....    0.9800
   Min. Damping (>=0)   DampMin         ....    0.0000
   Turn off err/grad.   DampErr         ....    0.0300

SCF Procedure:
 Maximum # iterations   MaxIter         ....  1500
 SCF integral mode      SCFMode         .... Direct
   Integral package                     .... SHARK and LIBINT hybrid scheme
 Reset frequency        DirectResetFreq ....    20
 Integral Threshold     Thresh          ....  2.500e-11 Eh
 Primitive CutOff       TCut            ....  2.500e-12 Eh

Convergence Tolerance:
 Convergence Check Mode ConvCheckMode   .... Total+1el-Energy
 Convergence forced     ConvForced      .... 0
 Energy Change          TolE            ....  1.000e-08 Eh
 1-El. energy change                    ....  1.000e-05 Eh
 Orbital Gradient       TolG            ....  1.000e-05
 Orbital Rotation angle TolX            ....  1.000e-05
 DIIS Error             TolErr          ....  5.000e-07

------------------------------
INITIAL GUESS: MODEL POTENTIAL
------------------------------
Loading Hartree-Fock densities                     ... done
Calculating cut-offs                               ... done
Initializing the effective Hamiltonian             ... done
Setting up the integral package (SHARK)            ... done
Starting the Coulomb interaction                   ... done (   0.2 sec)
Making the grid                                    ... done (   0.4 sec)
Mapping shells                                     ... done
Starting the XC term evaluation                    ... done (   0.1 sec)
  promolecular density results
     # of electrons  =    208.999431122
     EX              =   -217.215938339
     EC              =     -7.851820029
     EX+EC           =   -225.067758367
Transforming the Hamiltonian                       ... done (   0.1 sec)
Diagonalizing the Hamiltonian                      ... done (   0.1 sec)
Back transforming the eigenvectors                 ... done (   0.0 sec)
Now organizing SCF variables                       ... done
                      ------------------
                      INITIAL GUESS DONE (   1.1 sec)
                      ------------------
             **** ENERGY FILE WAS UPDATED (rf_mecn_1H2O_opt_B3L_sw_004.en.tmp) ****
Finished Guess after   1.8 sec
Maximum memory used throughout the entire GUESS-calculation: 52.9 MB


           ************************************************************
           *        Program running with 20 parallel MPI-processes    *
           *              working on a common directory               *
           ************************************************************

-------------------------------------------------------------------------------------------
                                      ORCA LEAN-SCF
                              memory conserving SCF solver
-------------------------------------------------------------------------------------------

--------------------
CPCM SOLVATION MODEL
--------------------
CPCM parameters:
  Epsilon                                         ...      35.6880
  Refrac                                          ...       1.3442
  Rsolv                                           ...       1.3000
  Surface type                                    ... GAUSSIAN VDW
  Discretization scheme                           ... Constant charge density
    Threshold for H atoms                         ...       5.0000 (charges/Ang^2)
    Threshold for non-H atoms                     ...       5.0000 (charges/Ang^2)
  Epsilon function type                           ...         CPCM
Solvent:                                          ... ACETONITRILE
SMD-CDS solvent descriptors:
  Soln                                            ...       1.3442
  Soln25                                          ...       1.3416
  Sola                                            ...       0.0700
  Solb                                            ...       0.3200
  Solg                                            ...      41.2500
  Solc                                            ...       0.0000
  Solh                                            ...       0.0000
Radii:
  Scheme                                          ... Element-dependent radii
  Radius for C  used is    3.4960 Bohr (=   1.8500 Ang.)
  Radius for F  used is    3.2692 Bohr (=   1.7300 Ang.)
  Radius for O  used is    4.0969 Bohr (=   2.1680 Ang.)
  Radius for H  used is    2.2677 Bohr (=   1.2000 Ang.)
Calculating surface                               ...        done! (  0.0s)
Cavity surface points                             ...         2380
Cavity Volume                                     ...    2380.5219
Cavity Surface-area                               ...    1244.8621
Calculating surface distance matrix               ...        done! (  0.1s)
Performing Cholesky decomposition & store         ...        done! (  0.1s)
Overall time for CPCM initialization              ...                 0.2s

----------------------------------------D-I-I-S--------------------------------------------
Iteration    Energy (Eh)           Delta-E    RMSDP     MaxDP     DIISErr   Damp  Time(sec)
-------------------------------------------------------------------------------------------
               ***  Starting incremental Fock matrix formation  ***
    1    -2028.7783473847639470     0.00e+00  7.89e-04  1.92e-01  2.11e-01  0.850   7.5
Warning: op=0 Small HOMO/LUMO gap (  -0.030) - skipping pre-diagonalization
         Will do a full diagonalization
    2    -2029.0326193730525119    -2.54e-01  1.16e-03  3.40e-01  1.42e-01  0.850   5.3
                               ***Turning on AO-DIIS***
    3    -2029.1719737675230135    -1.39e-01  5.52e-04  9.69e-02  7.91e-02  0.850   4.7
    4    -2029.2538979955315881    -8.19e-02  3.29e-04  4.13e-02  5.72e-02  0.850   4.6
    5    -2029.3115153960561656    -5.76e-02  2.37e-04  2.66e-02  4.65e-02  0.850   4.4
    6    -2029.3564988562629878    -4.50e-02  1.91e-04  3.50e-02  3.93e-02  0.850   4.4
    7    -2029.3933039109388119    -3.68e-02  1.61e-04  3.48e-02  3.31e-02  0.850   4.3
    8    -2029.4240345322450594    -3.07e-02  1.38e-04  3.12e-02  2.74e-02  0.850   4.3
    9    -2029.4498414893696463    -2.58e-02  7.92e-04  1.81e-01  2.27e-02  0.000   4.3
   10    -2029.5900123317760517    -1.40e-01  6.41e-05  1.19e-02  3.69e-03  0.000   4.6
   11    -2029.5903351569540973    -3.23e-04  5.38e-05  8.38e-03  1.52e-03  0.000   4.1
   12    -2029.5904528621513236    -1.18e-04  3.85e-05  5.41e-03  1.32e-03  0.000   3.9
                              *** Initializing SOSCF ***
---------------------------------------S-O-S-C-F--------------------------------------
Iteration    Energy (Eh)           Delta-E    RMSDP     MaxDP     MaxGrad    Time(sec)
--------------------------------------------------------------------------------------
   13    -2029.5905472475142233    -9.44e-05  3.34e-05  4.01e-03  6.20e-04     4.5
               *** Restarting incremental Fock matrix formation ***
   14    -2029.5905591409064073    -1.19e-05  7.14e-05  8.33e-03  2.07e-03     7.3
   15    -2029.5906754999023178    -1.16e-04  2.85e-04  3.72e-02  1.34e-03     5.9
   16    -2029.5908358109136316    -1.60e-04  3.46e-05  2.18e-03  1.00e-03     6.6
   17    -2029.5908682132685499    -3.24e-05  2.89e-05  1.91e-03  7.30e-04     5.8
   18    -2029.5908787937360103    -1.06e-05  2.03e-05  2.01e-03  3.74e-04     5.7
   19    -2029.5908878778673170    -9.08e-06  2.99e-05  2.39e-03  3.11e-04     5.8
   20    -2029.5908927419659449    -4.86e-06  2.92e-05  1.72e-03  2.62e-04     5.7
   21    -2029.5908973999585214    -4.66e-06  3.02e-05  1.67e-03  1.87e-04     5.7
   22    -2029.5908998273380348    -2.43e-06  1.18e-05  7.60e-04  1.19e-04     5.7
   23    -2029.5909006680658422    -8.41e-07  6.49e-06  4.08e-04  1.02e-04     5.3
   24    -2029.5909010166433291    -3.49e-07  3.52e-06  2.45e-04  4.90e-05     5.1
   25    -2029.5909010816722002    -6.50e-08  1.23e-06  2.06e-04  3.01e-05     4.8
   26    -2029.5909011149606158    -3.33e-08  5.04e-07  4.77e-05  9.61e-06     4.3
   27    -2029.5909011299645499    -1.50e-08  2.83e-07  3.65e-05  4.20e-06     3.9
   28    -2029.5909011480089248    -1.80e-08  3.73e-07  6.69e-05  1.98e-06     3.8
                  *** Gradient check signals convergence ***

               *****************************************************
               *                     SUCCESS                       *
               *           SCF CONVERGED AFTER  28 CYCLES          *
               *****************************************************

Recomputing exchange energy using gridx3       ... done (    9.517 sec)
Old exchange energy                            :    -43.694979772 Eh
New exchange energy                            :    -43.694952701 Eh
Exchange energy change after final integration :      0.000027072 Eh
Total energy after final integration           :  -2029.590874076 Eh

SMD CDS free energy correction energy :                 3.05739     Kcal/mol
Total Energy after SMD CDS correction =             -2029.586001811 Eh
             **** ENERGY FILE WAS UPDATED (rf_mecn_1H2O_opt_B3L_sw_004.en.tmp) ****

----------------
TOTAL SCF ENERGY
----------------

Total Energy       :      -2029.58600181147744 Eh          -55227.84284 eV

Components:
Nuclear Repulsion  :       3082.70890604376473 Eh           83884.77395 eV
Electronic Energy  :      -5112.06540597445473 Eh         -139106.37173 eV
One Electron Energy:      -9017.21977065437386 Eh         -245371.02438 eV
Two Electron Energy:       3905.15436467991913 Eh          106264.65265 eV
CPCM Dielectric    :         -0.23440121731860 Eh              -6.37838 eV
SMD CDS (Gcds)     :          0.00487226469455 Eh               0.13258 eV

Virial components:
Potential Energy   :      -4053.67298388071458 Eh         -110306.04974 eV
Kinetic Energy     :       2024.08698206923714 Eh           55078.20690 eV
Virial Ratio       :          2.00271679023231

DFT components:
N(Alpha)           :      105.999980118558 electrons
N(Beta)            :      104.999974794722 electrons
N(Total)           :      210.999954913280 electrons
E(X)               :     -174.151042220995 Eh       
E(C)               :       -9.255266907591 Eh       
E(XC)              :     -183.406309128586 Eh       

CPCM Solvation Model Properties:
Surface-charge          :          1.98794634809504
Corrected charge        :          2.00000000000000
Outlying charge corr.   :          0.00000751526115 Eh               0.00020 eV
Free-energy (cav+disp)  :          0.00487226469455 Eh               0.13258 eV

---------------
SCF CONVERGENCE
---------------

  Last Energy change         ...    1.8044e-08  Tolerance :   1.0000e-08
  Last MAX-Density change    ...    6.6915e-05  Tolerance :   1.0000e-07
  Last RMS-Density change    ...    3.7296e-07  Tolerance :   5.0000e-09
  Last DIIS Error            ...    6.2040e-04  Tolerance :   5.0000e-07
  Last Orbital Gradient      ...    1.9792e-06  Tolerance :   1.0000e-05
  Last Orbital Rotation      ...    2.2044e-05  Tolerance :   1.0000e-05


----------------------
UHF SPIN CONTAMINATION
----------------------

Warning: in a DFT calculation there is little theoretical justification to 
         calculate <S**2> as in Hartree-Fock theory. We will do it anyways
         but you should keep in mind that the values have only limited relevance

Expectation value of <S**2>     :     0.751596
Ideal value S*(S+1) for S=0.5   :     0.750000
Deviation                       :     0.001596

----------------
ORBITAL ENERGIES
----------------
                 SPIN UP ORBITALS
  NO   OCC          E(Eh)            E(eV) 
   0   1.0000     -24.717882      -672.6078 
   1   1.0000     -24.717623      -672.6007 
   2   1.0000     -24.711923      -672.4456 
   3   1.0000     -24.703021      -672.2034 
   4   1.0000     -24.698121      -672.0701 
   5   1.0000     -24.694893      -671.9822 
   6   1.0000     -24.691527      -671.8906 
   7   1.0000     -24.690871      -671.8728 
   8   1.0000     -24.690550      -671.8640 
   9   1.0000     -24.690076      -671.8511 
  10   1.0000     -24.689176      -671.8266 
  11   1.0000     -24.688945      -671.8203 
  12   1.0000     -24.688055      -671.7961 
  13   1.0000     -24.678682      -671.5411 
  14   1.0000     -24.676506      -671.4819 
  15   1.0000     -19.091264      -519.4997 
  16   1.0000     -19.051741      -518.4242 
  17   1.0000     -19.048601      -518.3388 
  18   1.0000     -10.415155      -283.4108 
  19   1.0000     -10.340533      -281.3802 
  20   1.0000     -10.329621      -281.0833 
  21   1.0000     -10.327823      -281.0343 
  22   1.0000     -10.326837      -281.0075 
  23   1.0000     -10.325284      -280.9653 
  24   1.0000     -10.307907      -280.4924 
  25   1.0000     -10.237350      -278.5725 
  26   1.0000      -1.331067       -36.2202 
  27   1.0000      -1.289899       -35.0999 
  28   1.0000      -1.279205       -34.8089 
  29   1.0000      -1.268770       -34.5250 
  30   1.0000      -1.261530       -34.3280 
  31   1.0000      -1.258551       -34.2469 
  32   1.0000      -1.244752       -33.8714 
  33   1.0000      -1.241424       -33.7809 
  34   1.0000      -1.235202       -33.6115 
  35   1.0000      -1.222294       -33.2603 
  36   1.0000      -1.216272       -33.0964 
  37   1.0000      -1.210298       -32.9339 
  38   1.0000      -1.205037       -32.7907 
  39   1.0000      -1.201924       -32.7060 
  40   1.0000      -1.187256       -32.3069 
  41   1.0000      -1.017011       -27.6743 
  42   1.0000      -0.978577       -26.6284 
  43   1.0000      -0.937287       -25.5049 
  44   1.0000      -0.796120       -21.6635 
  45   1.0000      -0.780586       -21.2408 
  46   1.0000      -0.754167       -20.5219 
  47   1.0000      -0.718842       -19.5607 
  48   1.0000      -0.681839       -18.5538 
  49   1.0000      -0.654426       -17.8078 
  50   1.0000      -0.635630       -17.2964 
  51   1.0000      -0.615217       -16.7409 
  52   1.0000      -0.613167       -16.6851 
  53   1.0000      -0.610819       -16.6212 
  54   1.0000      -0.595580       -16.2066 
  55   1.0000      -0.590213       -16.0605 
  56   1.0000      -0.585677       -15.9371 
  57   1.0000      -0.577645       -15.7185 
  58   1.0000      -0.573480       -15.6052 
  59   1.0000      -0.567024       -15.4295 
  60   1.0000      -0.561898       -15.2900 
  61   1.0000      -0.552677       -15.0391 
  62   1.0000      -0.548048       -14.9131 
  63   1.0000      -0.538500       -14.6533 
  64   1.0000      -0.536653       -14.6031 
  65   1.0000      -0.529512       -14.4088 
  66   1.0000      -0.501595       -13.6491 
  67   1.0000      -0.485625       -13.2145 
  68   1.0000      -0.483275       -13.1506 
  69   1.0000      -0.478468       -13.0198 
  70   1.0000      -0.471369       -12.8266 
  71   1.0000      -0.467922       -12.7328 
  72   1.0000      -0.461253       -12.5513 
  73   1.0000      -0.458738       -12.4829 
  74   1.0000      -0.454029       -12.3548 
  75   1.0000      -0.452985       -12.3264 
  76   1.0000      -0.446518       -12.1504 
  77   1.0000      -0.445611       -12.1257 
  78   1.0000      -0.440868       -11.9966 
  79   1.0000      -0.437038       -11.8924 
  80   1.0000      -0.435639       -11.8543 
  81   1.0000      -0.433872       -11.8063 
  82   1.0000      -0.427960       -11.6454 
  83   1.0000      -0.421174       -11.4607 
  84   1.0000      -0.420211       -11.4345 
  85   1.0000      -0.415860       -11.3161 
  86   1.0000      -0.411757       -11.2045 
  87   1.0000      -0.409714       -11.1489 
  88   1.0000      -0.406461       -11.0604 
  89   1.0000      -0.405485       -11.0338 
  90   1.0000      -0.400950       -10.9104 
  91   1.0000      -0.400145       -10.8885 
  92   1.0000      -0.397998       -10.8301 
  93   1.0000      -0.393103       -10.6969 
  94   1.0000      -0.387355       -10.5405 
  95   1.0000      -0.380364       -10.3502 
  96   1.0000      -0.375563       -10.2196 
  97   1.0000      -0.363920        -9.9028 
  98   1.0000      -0.358216        -9.7476 
  99   1.0000      -0.333077        -9.0635 
 100   1.0000      -0.292655        -7.9635 
 101   1.0000      -0.287987        -7.8365 
 102   1.0000      -0.246197        -6.6994 
 103   1.0000      -0.233391        -6.3509 
 104   1.0000      -0.221239        -6.0202 
 105   1.0000       0.000338         0.0092 
 106   0.0000       0.043795         1.1917 
 107   0.0000       0.060186         1.6377 
 108   0.0000       0.065616         1.7855 
 109   0.0000       0.091104         2.4791 
 110   0.0000       0.097162         2.6439 
 111   0.0000       0.112771         3.0687 
 112   0.0000       0.120080         3.2675 
 113   0.0000       0.142460         3.8765 
 114   0.0000       0.146206         3.9785 
 115   0.0000       0.149385         4.0650 
 116   0.0000       0.175044         4.7632 

                 SPIN DOWN ORBITALS
  NO   OCC          E(Eh)            E(eV) 
   0   1.0000     -24.717715      -672.6032 
   1   1.0000     -24.717234      -672.5901 
   2   1.0000     -24.711010      -672.4208 
   3   1.0000     -24.702683      -672.1942 
   4   1.0000     -24.696658      -672.0302 
   5   1.0000     -24.694328      -671.9668 
   6   1.0000     -24.691220      -671.8823 
   7   1.0000     -24.690252      -671.8559 
   8   1.0000     -24.689279      -671.8294 
   9   1.0000     -24.689114      -671.8249 
  10   1.0000     -24.688131      -671.7982 
  11   1.0000     -24.688055      -671.7961 
  12   1.0000     -24.687427      -671.7790 
  13   1.0000     -24.678375      -671.5327 
  14   1.0000     -24.676182      -671.4731 
  15   1.0000     -19.091262      -519.4996 
  16   1.0000     -19.051235      -518.4105 
  17   1.0000     -19.047949      -518.3211 
  18   1.0000     -10.414157      -283.3836 
  19   1.0000     -10.339024      -281.3391 
  20   1.0000     -10.327743      -281.0322 
  21   1.0000     -10.326739      -281.0048 
  22   1.0000     -10.325211      -280.9633 
  23   1.0000     -10.323371      -280.9132 
  24   1.0000     -10.307339      -280.4769 
  25   1.0000     -10.236737      -278.5558 
  26   1.0000      -1.329812       -36.1860 
  27   1.0000      -1.287371       -35.0311 
  28   1.0000      -1.277218       -34.7549 
  29   1.0000      -1.266693       -34.4685 
  30   1.0000      -1.259210       -34.2648 
  31   1.0000      -1.256717       -34.1970 
  32   1.0000      -1.243854       -33.8470 
  33   1.0000      -1.240721       -33.7617 
  34   1.0000      -1.233495       -33.5651 
  35   1.0000      -1.220277       -33.2054 
  36   1.0000      -1.214564       -33.0500 
  37   1.0000      -1.208524       -32.8856 
  38   1.0000      -1.203278       -32.7429 
  39   1.0000      -1.200339       -32.6629 
  40   1.0000      -1.186549       -32.2876 
  41   1.0000      -1.015814       -27.6417 
  42   1.0000      -0.978562       -26.6280 
  43   1.0000      -0.936187       -25.4749 
  44   1.0000      -0.789041       -21.4709 
  45   1.0000      -0.774799       -21.0834 
  46   1.0000      -0.748717       -20.3736 
  47   1.0000      -0.714333       -19.4380 
  48   1.0000      -0.679113       -18.4796 
  49   1.0000      -0.651900       -17.7391 
  50   1.0000      -0.633305       -17.2331 
  51   1.0000      -0.612283       -16.6611 
  52   1.0000      -0.610090       -16.6014 
  53   1.0000      -0.609798       -16.5935 
  54   1.0000      -0.591786       -16.1033 
  55   1.0000      -0.586501       -15.9595 
  56   1.0000      -0.583748       -15.8846 
  57   1.0000      -0.575527       -15.6609 
  58   1.0000      -0.570855       -15.5338 
  59   1.0000      -0.563670       -15.3382 
  60   1.0000      -0.560186       -15.2434 
  61   1.0000      -0.549912       -14.9639 
  62   1.0000      -0.546363       -14.8673 
  63   1.0000      -0.537093       -14.6150 
  64   1.0000      -0.534232       -14.5372 
  65   1.0000      -0.528720       -14.3872 
  66   1.0000      -0.501471       -13.6457 
  67   1.0000      -0.483985       -13.1699 
  68   1.0000      -0.482274       -13.1233 
  69   1.0000      -0.477643       -12.9973 
  70   1.0000      -0.470184       -12.7943 
  71   1.0000      -0.466743       -12.7007 
  72   1.0000      -0.460077       -12.5193 
  73   1.0000      -0.457564       -12.4509 
  74   1.0000      -0.453356       -12.3364 
  75   1.0000      -0.452128       -12.3030 
  76   1.0000      -0.445579       -12.1248 
  77   1.0000      -0.444519       -12.0960 
  78   1.0000      -0.439580       -11.9616 
  79   1.0000      -0.435931       -11.8623 
  80   1.0000      -0.434693       -11.8286 
  81   1.0000      -0.432590       -11.7714 
  82   1.0000      -0.426607       -11.6086 
  83   1.0000      -0.420026       -11.4295 
  84   1.0000      -0.418926       -11.3996 
  85   1.0000      -0.414819       -11.2878 
  86   1.0000      -0.410504       -11.1704 
  87   1.0000      -0.407904       -11.0996 
  88   1.0000      -0.404625       -11.0104 
  89   1.0000      -0.404069       -10.9953 
  90   1.0000      -0.399544       -10.8722 
  91   1.0000      -0.397888       -10.8271 
  92   1.0000      -0.394915       -10.7462 
  93   1.0000      -0.391987       -10.6665 
  94   1.0000      -0.383599       -10.4383 
  95   1.0000      -0.376780       -10.2527 
  96   1.0000      -0.372677       -10.1410 
  97   1.0000      -0.360355        -9.8058 
  98   1.0000      -0.358018        -9.7422 
  99   1.0000      -0.329643        -8.9701 
 100   1.0000      -0.289894        -7.8884 
 101   1.0000      -0.287929        -7.8349 
 102   1.0000      -0.243093        -6.6149 
 103   1.0000      -0.232642        -6.3305 
 104   1.0000      -0.219696        -5.9782 
 105   0.0000       0.047899         1.3034 
 106   0.0000       0.057477         1.5640 
 107   0.0000       0.061601         1.6762 
 108   0.0000       0.070055         1.9063 
 109   0.0000       0.100559         2.7364 
 110   0.0000       0.103886         2.8269 
 111   0.0000       0.114724         3.1218 
 112   0.0000       0.121049         3.2939 
 113   0.0000       0.146180         3.9778 
 114   0.0000       0.151072         4.1109 
 115   0.0000       0.154886         4.2147 
*Only the first 10 virtual orbitals were printed.

                    ********************************
                    * MULLIKEN POPULATION ANALYSIS *
                    ********************************

--------------------------------------------
MULLIKEN ATOMIC CHARGES AND SPIN POPULATIONS
--------------------------------------------
   0 C :    0.421667    0.081541
   1 C :    0.236085    0.150126
   2 C :    0.213247    0.192909
   3 C :    0.226811    0.199461
   4 C :    0.247770    0.166432
   5 C :    0.305785    0.101691
   6 C :    0.273354    0.056426
   7 C :    0.134212    0.039549
   8 F :   -0.172820   -0.000648
   9 F :   -0.174318   -0.000221
  10 F :   -0.177247    0.003864
  11 F :   -0.185659   -0.002875
  12 F :   -0.199415    0.000025
  13 F :   -0.198050   -0.001611
  14 F :   -0.211140   -0.000333
  15 F :   -0.201940   -0.003739
  16 F :   -0.207793   -0.002561
  17 F :   -0.206212   -0.003190
  18 F :   -0.204726   -0.003196
  19 F :   -0.219103    0.000103
  20 F :   -0.205932   -0.001667
  21 F :   -0.234134   -0.000775
  22 F :   -0.223135   -0.002260
  23 O :   -0.477983    0.016312
  24 O :   -0.524441    0.013635
  25 O :   -0.723646   -0.000350
  26 H :    0.331339    0.000293
  27 H :    0.357424    0.001059
Sum of atomic charges         :   -2.0000000
Sum of atomic spin populations:    1.0000000

-----------------------------------------------------
MULLIKEN REDUCED ORBITAL CHARGES AND SPIN POPULATIONS
-----------------------------------------------------
CHARGE
  0 C s       :     3.023213  s :     3.023213
      pz      :     0.668181  p :     2.177142
      px      :     0.726922
      py      :     0.782038
      dz2     :     0.060605  d :     0.336835
      dxz     :     0.072635
      dyz     :     0.070622
      dx2y2   :     0.069893
      dxy     :     0.063080
      f0      :     0.006419  f :     0.041143
      f+1     :     0.008771
      f-1     :     0.005018
      f+2     :     0.003253
      f-2     :     0.005849
      f+3     :     0.004699
      f-3     :     0.007134

  1 C s       :     3.100541  s :     3.100541
      pz      :     0.619167  p :     2.354756
      px      :     0.845148
      py      :     0.890441
      dz2     :     0.062722  d :     0.280286
      dxz     :     0.056406
      dyz     :     0.055443
      dx2y2   :     0.057070
      dxy     :     0.048645
      f0      :     0.004942  f :     0.028331
      f+1     :     0.006062
      f-1     :     0.002933
      f+2     :     0.004594
      f-2     :     0.004314
      f+3     :     0.002785
      f-3     :     0.002704

  2 C s       :     3.121141  s :     3.121141
      pz      :     0.574566  p :     2.343147
      px      :     0.857477
      py      :     0.911104
      dz2     :     0.070008  d :     0.294425
      dxz     :     0.048980
      dyz     :     0.064811
      dx2y2   :     0.058663
      dxy     :     0.051964
      f0      :     0.006086  f :     0.028040
      f+1     :     0.004725
      f-1     :     0.003225
      f+2     :     0.004764
      f-2     :     0.005062
      f+3     :     0.002167
      f-3     :     0.002011

  3 C s       :     3.111997  s :     3.111997
      pz      :     0.616230  p :     2.341093
      px      :     0.853422
      py      :     0.871440
      dz2     :     0.067660  d :     0.292150
      dxz     :     0.054227
      dyz     :     0.058827
      dx2y2   :     0.062163
      dxy     :     0.049273
      f0      :     0.005151  f :     0.027950
      f+1     :     0.005868
      f-1     :     0.002818
      f+2     :     0.004530
      f-2     :     0.004409
      f+3     :     0.002580
      f-3     :     0.002595

  4 C s       :     3.117342  s :     3.117342
      pz      :     0.616456  p :     2.321096
      px      :     0.804318
      py      :     0.900322
      dz2     :     0.057187  d :     0.285866
      dxz     :     0.059120
      dyz     :     0.060437
      dx2y2   :     0.058502
      dxy     :     0.050620
      f0      :     0.004325  f :     0.027927
      f+1     :     0.007518
      f-1     :     0.003708
      f+2     :     0.003165
      f-2     :     0.003231
      f+3     :     0.002351
      f-3     :     0.003629

  5 C s       :     3.108305  s :     3.108305
      pz      :     0.681776  p :     2.279280
      px      :     0.703860
      py      :     0.893644
      dz2     :     0.052832  d :     0.278522
      dxz     :     0.065593
      dyz     :     0.048377
      dx2y2   :     0.055836
      dxy     :     0.055883
      f0      :     0.005579  f :     0.028108
      f+1     :     0.005317
      f-1     :     0.003761
      f+2     :     0.003983
      f-2     :     0.001942
      f+3     :     0.002786
      f-3     :     0.004741

  6 C s       :     3.139241  s :     3.139241
      pz      :     0.707907  p :     2.313496
      px      :     0.630035
      py      :     0.975555
      dz2     :     0.042278  d :     0.247454
      dxz     :     0.055440
      dyz     :     0.046849
      dx2y2   :     0.051550
      dxy     :     0.051337
      f0      :     0.005532  f :     0.026456
      f+1     :     0.003541
      f-1     :     0.003418
      f+2     :     0.004149
      f-2     :     0.002237
      f+3     :     0.003111
      f-3     :     0.004468

  7 C s       :     3.066526  s :     3.066526
      pz      :     0.842563  p :     2.541056
      px      :     0.779857
      py      :     0.918636
      dz2     :     0.012580  d :     0.232349
      dxz     :     0.065846
      dyz     :     0.017745
      dx2y2   :     0.066299
      dxy     :     0.069880
      f0      :     0.002490  f :     0.025857
      f+1     :     0.002376
      f-1     :     0.001130
      f+2     :     0.002442
      f-2     :     0.002798
      f+3     :     0.007070
      f-3     :     0.007551

  8 F s       :     3.902765  s :     3.902765
      pz      :     1.808999  p :     5.252729
      px      :     1.566197
      py      :     1.877534
      dz2     :     0.002237  d :     0.016555
      dxz     :     0.005409
      dyz     :     0.001020
      dx2y2   :     0.004437
      dxy     :     0.003452
      f0      :     0.000086  f :     0.000770
      f+1     :     0.000133
      f-1     :     0.000013
      f+2     :     0.000184
      f-2     :     0.000095
      f+3     :     0.000130
      f-3     :     0.000128

  9 F s       :     3.904193  s :     3.904193
      pz      :     1.487885  p :     5.252506
      px      :     1.881195
      py      :     1.883426
      dz2     :     0.008035  d :     0.016834
      dxz     :     0.003801
      dyz     :     0.004158
      dx2y2   :     0.000373
      dxy     :     0.000468
      f0      :     0.000323  f :     0.000785
      f+1     :     0.000184
      f-1     :     0.000203
      f+2     :     0.000029
      f-2     :     0.000041
      f+3     :     0.000003
      f-3     :     0.000002

 10 F s       :     3.899500  s :     3.899500
      pz      :     1.895088  p :     5.260481
      px      :     1.745158
      py      :     1.620236
      dz2     :     0.002395  d :     0.016502
      dxz     :     0.001345
      dyz     :     0.002235
      dx2y2   :     0.004075
      dxy     :     0.006452
      f0      :     0.000063  f :     0.000763
      f+1     :     0.000064
      f-1     :     0.000103
      f+2     :     0.000014
      f-2     :     0.000101
      f+3     :     0.000236
      f-3     :     0.000182

 11 F s       :     3.888686  s :     3.888686
      pz      :     1.764039  p :     5.280406
      px      :     1.638424
      py      :     1.877943
      dz2     :     0.002256  d :     0.015863
      dxz     :     0.005497
      dyz     :     0.001702
      dx2y2   :     0.003209
      dxy     :     0.003199
      f0      :     0.000073  f :     0.000703
      f+1     :     0.000141
      f-1     :     0.000026
      f+2     :     0.000161
      f-2     :     0.000132
      f+3     :     0.000078
      f-3     :     0.000091

 12 F s       :     3.905410  s :     3.905410
      pz      :     1.566905  p :     5.276687
      px      :     1.845173
      py      :     1.864609
      dz2     :     0.005859  d :     0.016583
      dxz     :     0.004269
      dyz     :     0.004264
      dx2y2   :     0.001021
      dxy     :     0.001171
      f0      :     0.000180  f :     0.000734
      f+1     :     0.000184
      f-1     :     0.000179
      f+2     :     0.000069
      f-2     :     0.000102
      f+3     :     0.000010
      f-3     :     0.000009

 13 F s       :     3.889726  s :     3.889726
      pz      :     1.659660  p :     5.291662
      px      :     1.739456
      py      :     1.892546
      dz2     :     0.003669  d :     0.015958
      dxz     :     0.005736
      dyz     :     0.002664
      dx2y2   :     0.001917
      dxy     :     0.001972
[...]
      f-3     :     0.000000

 18 F s       :     0.002042  s :     0.002042
      pz      :     0.004800  p :     0.004374
      px      :    -0.000442
      py      :     0.000016
      dz2     :     0.000025  d :     0.000784
      dxz     :     0.000745
      dyz     :     0.000040
      dx2y2   :     0.000072
      dxy     :    -0.000096
      f0      :     0.000012  f :     0.000029
      f+1     :    -0.000002
      f-1     :    -0.000000
      f+2     :     0.000018
      f-2     :     0.000001
      f+3     :     0.000004
      f-3     :    -0.000004

 19 F s       :     0.000433  s :     0.000433
      pz      :    -0.000810  p :     0.001386
      px      :     0.002518
      py      :    -0.000322
      dz2     :     0.000023  d :     0.000434
      dxz     :     0.000298
      dyz     :     0.000100
      dx2y2   :     0.000007
      dxy     :     0.000005
      f0      :    -0.000000  f :     0.000018
      f+1     :     0.000011
      f-1     :     0.000007
      f+2     :    -0.000000
      f-2     :     0.000000
      f+3     :    -0.000000
      f-3     :     0.000000

 20 F s       :     0.001041  s :     0.001041
      pz      :     0.001078  p :     0.001718
      px      :     0.000755
      py      :    -0.000114
      dz2     :     0.000103  d :     0.000308
      dxz     :     0.000125
      dyz     :     0.000015
      dx2y2   :     0.000011
      dxy     :     0.000054
      f0      :     0.000002  f :     0.000014
      f+1     :     0.000002
      f-1     :     0.000000
      f+2     :     0.000003
      f-2     :     0.000000
      f+3     :     0.000001
      f-3     :     0.000006

 21 F s       :     0.000197  s :     0.000197
      pz      :    -0.000468  p :     0.000842
      px      :     0.001131
      py      :     0.000179
      dz2     :     0.000077  d :     0.000233
      dxz     :     0.000077
      dyz     :     0.000022
      dx2y2   :     0.000014
      dxy     :     0.000043
      f0      :     0.000005  f :     0.000011
      f+1     :     0.000001
      f-1     :     0.000001
      f+2     :     0.000000
      f-2     :     0.000003
      f+3     :     0.000000
      f-3     :     0.000000

 22 F s       :     0.000557  s :     0.000557
      pz      :     0.000004  p :     0.000793
      px      :     0.000805
      py      :    -0.000016
      dz2     :     0.000066  d :     0.000138
      dxz     :     0.000016
      dyz     :     0.000021
      dx2y2   :     0.000000
      dxy     :     0.000035
      f0      :     0.000000  f :     0.000007
      f+1     :     0.000003
      f-1     :     0.000000
      f+2     :     0.000001
      f-2     :    -0.000000
      f+3     :     0.000000
      f-3     :     0.000003

 23 O s       :     0.000170  s :     0.000170
      pz      :     0.005849  p :     0.006068
      px      :     0.000921
      py      :    -0.000702
      dz2     :     0.000145  d :     0.000326
      dxz     :     0.000033
      dyz     :     0.000138
      dx2y2   :     0.000023
      dxy     :    -0.000013
      f0      :    -0.000001  f :     0.000027
      f+1     :     0.000011
      f-1     :     0.000009
      f+2     :     0.000000
      f-2     :     0.000004
      f+3     :    -0.000000
      f-3     :     0.000003

 24 O s       :     0.000088  s :     0.000088
      pz      :     0.004059  p :     0.004768
      px      :     0.000936
      py      :    -0.000227
      dz2     :     0.000008  d :     0.000282
      dxz     :     0.000216
      dyz     :     0.000032
      dx2y2   :     0.000037
      dxy     :    -0.000011
      f0      :     0.000008  f :     0.000020
      f+1     :     0.000000
      f-1     :    -0.000000
      f+2     :     0.000007
      f-2     :     0.000006
      f+3     :    -0.000002
      f-3     :     0.000001

 25 O s       :     0.000002  s :     0.000002
      pz      :    -0.000004  p :    -0.000007
      px      :    -0.000001
      py      :    -0.000002
      dz2     :     0.000000  d :     0.000000
      dxz     :    -0.000000
      dyz     :     0.000001
      dx2y2   :    -0.000000
      dxy     :    -0.000000
      f0      :     0.000000  f :     0.000000
      f+1     :    -0.000000
      f-1     :     0.000000
      f+2     :     0.000000
      f-2     :    -0.000000
      f+3     :    -0.000000
      f-3     :    -0.000000

 26 H s       :     0.000006  s :     0.000006
      pz      :    -0.000000  p :     0.000000
      px      :    -0.000000
      py      :     0.000001

 27 H s       :    -0.000017  s :    -0.000017
      pz      :    -0.000003  p :    -0.000007
      px      :    -0.000002
      py      :    -0.000001



                      *****************************
                      * MAYER POPULATION ANALYSIS *
                      *****************************

  NA   - Mulliken gross atomic population
  ZA   - Total nuclear charge
  QA   - Mulliken gross atomic charge
  VA   - Mayer's total valence
  BVA  - Mayer's bonded valence
  FA   - Mayer's free valence

  ATOM       NA         ZA         QA         VA         BVA        FA
  0 C      5.5553     6.0000     0.4447     4.5175     4.5113     0.0063
  1 C      5.7142     6.0000     0.2858     4.1223     4.0950     0.0273
  2 C      5.7684     6.0000     0.2316     4.0425     3.9617     0.0809
  3 C      5.7497     6.0000     0.2503     4.0487     3.9655     0.0831
  4 C      5.7134     6.0000     0.2866     4.0638     4.0330     0.0309
  5 C      5.7168     6.0000     0.2832     4.0120     4.0059     0.0061
  6 C      5.6519     6.0000     0.3481     3.8592     3.8584     0.0008
  7 C      5.8200     6.0000     0.1800     4.5860     4.5859     0.0002
  8 F      9.1788     9.0000    -0.1788     1.1207     1.1207     0.0000
  9 F      9.1788     9.0000    -0.1788     1.1205     1.1205     0.0000
 10 F      9.1909     9.0000    -0.1909     1.0918     1.0915     0.0003
 11 F      9.2152     9.0000    -0.2152     1.0619     1.0618     0.0001
 12 F      9.2143     9.0000    -0.2143     1.0634     1.0634     0.0001
 13 F      9.2410     9.0000    -0.2410     1.0212     1.0210     0.0002
 14 F      9.2378     9.0000    -0.2378     1.0270     1.0268     0.0002
 15 F      9.2416     9.0000    -0.2416     1.0179     1.0178     0.0002
 16 F      9.2365     9.0000    -0.2365     1.0258     1.0256     0.0002
 17 F      9.2235     9.0000    -0.2235     1.0540     1.0539     0.0001
 18 F      9.2224     9.0000    -0.2224     1.0531     1.0530     0.0001
 19 F      9.2157     9.0000    -0.2157     1.0784     1.0784     0.0000
 20 F      9.2098     9.0000    -0.2098     1.0823     1.0823     0.0000
 21 F      9.2269     9.0000    -0.2269     1.0467     1.0467     0.0000
 22 F      9.2227     9.0000    -0.2227     1.0586     1.0586     0.0000
 23 O      8.4705     8.0000    -0.4705     1.9977     1.9976     0.0001
 24 O      8.5282     8.0000    -0.5282     1.8772     1.8772     0.0000
 25 O      8.7362     8.0000    -0.7362     1.7243     1.7243     0.0000
 26 H      0.6763     1.0000     0.3237     0.9102     0.9102     0.0000
 27 H      0.6430     1.0000     0.3570     0.9453     0.9453     0.0000

  Mayer bond orders larger than 0.100000
B(  0-C ,  1-C ) :   0.9611 B(  0-C ,  8-F ) :   1.1354 B(  0-C ,  9-F ) :   1.1353 
B(  0-C , 10-F ) :   1.0886 B(  1-C ,  2-C ) :   0.9181 B(  1-C , 11-F ) :   1.0281 
B(  1-C , 12-F ) :   1.0287 B(  2-C ,  3-C ) :   0.9147 B(  2-C , 13-F ) :   0.9890 
B(  2-C , 14-F ) :   0.9926 B(  3-C ,  4-C ) :   0.9075 B(  3-C , 15-F ) :   0.9845 
B(  3-C , 16-F ) :   0.9926 B(  4-C ,  5-C ) :   0.8838 B(  4-C , 17-F ) :   1.0219 
B(  4-C , 18-F ) :   1.0231 B(  5-C ,  6-C ) :   0.8878 B(  5-C , 19-F ) :   1.0405 
B(  5-C , 20-F ) :   1.0588 B(  6-C ,  7-C ) :   0.8743 B(  6-C , 21-F ) :   1.0218 
B(  6-C , 22-F ) :   1.0472 B(  7-C , 23-O ) :   1.9263 B(  7-C , 24-O ) :   1.7010 
B( 24-O , 27-H ) :   0.1174 B( 25-O , 26-H ) :   0.9039 B( 25-O , 27-H ) :   0.8149 


-------
TIMINGS
-------

Total SCF time: 0 days 0 hours 0 min 42 sec 

Total time                  ....      42.388 sec
Sum of individual times     ....      40.936 sec  ( 96.6%)

SCF preparation             ....       1.233 sec  (  2.9%)
Fock matrix formation       ....      34.683 sec  ( 81.8%)
  Startup                   ....       0.164 sec  (  0.5% of F)
  Split-RI-J                ....       2.131 sec  (  6.1% of F)
  Chain of spheres X        ....      25.199 sec  ( 72.7% of F)
  XC integration            ....       4.812 sec  ( 13.9% of F)
    XC Preparation          ....       0.000 sec  (  0.0% of XC)
    Basis function eval.    ....       0.455 sec  (  9.5% of XC)
    Density eval.           ....       1.004 sec  ( 20.9% of XC)
    XC-Functional eval.     ....       0.042 sec  (  0.9% of XC)
    XC-Potential eval.      ....       1.049 sec  ( 21.8% of XC)
  CPCM terms                ....       1.900 sec  (  5.5% of F)
Diagonalization             ....       0.000 sec  (  0.0%)
Density matrix formation    ....       0.504 sec  (  1.2%)
Total Energy calculation    ....       0.305 sec  (  0.7%)
Population analysis         ....       0.497 sec  (  1.2%)
Orbital Transformation      ....       0.511 sec  (  1.2%)
Orbital Orthonormalization  ....       0.000 sec  (  0.0%)
DIIS solution               ....       0.727 sec  (  1.7%)
SOSCF solution              ....       2.477 sec  (  5.8%)
Finished LeanSCF after  42.8 sec

Maximum memory used throughout the entire LEANSCF-calculation: 121.1 MB


-------------------------------------------------------------------------------
                          DFT DISPERSION CORRECTION                            
                                                                               
                              DFTD3 V3.1  Rev 1                                
                          USING Becke-Johnson damping                          
-------------------------------------------------------------------------------
The B3LYP functional is recognized
Active option DFTDOPT                   ...         4   

molecular C6(AA) [au] = 7742.873038 


            DFT-D V3
 parameters
 s6 scaling factor         :     1.0000 
 a1 scaling factor         :     0.3981 
 s8 scaling factor         :     1.9889 
 a2 scaling factor         :     4.4211 
 ad hoc parameters k1-k3   :    16.0000     1.3333    -4.0000 

 Edisp/kcal,au: -28.521809018538  -0.045452391008 
 E6   /kcal   : -13.687798633 
 E8   /kcal   : -14.834010385 
 % E8         :  52.009360191 

-------------------------   ----------------
Dispersion correction           -0.045452391
-------------------------   ----------------


-------------------------   --------------------
FINAL SINGLE POINT ENERGY     -2029.681291704766
-------------------------   --------------------

                                *** OPTIMIZATION RUN DONE ***



           ************************************************************
           *        Program running with 20 parallel MPI-processes    *
           *              working on a common directory               *
           ************************************************************

------------------------------------------------------------------------------
                              ORCA PROPERTY CALCULATIONS
------------------------------------------------------------------------------

GBWName                                 ... rf_mecn_1H2O_opt_B3L_sw_004.gbw
Number of atoms                         ...     28
Number of basis functions               ...    818
Max core memory                         ...   8000 MB

Electric properties:
Dipole moment                           ... YES
Quadrupole moment                       ...  NO
Static polarizability (Dipole/Dipole)   ...  NO
Static polarizability (Dipole/Quad.)    ...  NO
Static polarizability (Quad./Quad.)     ...  NO
Static polarizability (Velocity)        ...  NO

Atomic electric properties:
Dipole moment                           ...  NO
Quadrupole moment                       ...  NO
Static polarizability                   ...  NO

Choice of electric origin               ... Center of mass
Position of electric origin             ...    12.448551    44.706443     3.457884

General magnetic properties:
Magnetizability                         ...  NO

EPR properties:
g-Tensor (aka g-matrix)                 ...  NO
Zero-Field splitting spin-orbit         ...  NO
Zero-field splitting spin-spin          ...  NO
Hyperfine couplings                     ...  NO (   0 nuclei)
Quadrupole couplings                    ...  NO (   0 nuclei)
Contact density                         ...  NO (   0 nuclei)

NMR properties:
Chemical shifts                         ...  NO (   0 nuclei)
Spin-rotation constants                 ...  NO (   0 nuclei)
Spin-spin couplings                     ...  NO (   0 nuclei,    0 pairs)

Choice of magnetic origin               ... GIAO
Position of magnetic origin             ...     0.000000     0.000000     0.000000

Properties with geometric perturbations:
SCF Hessian                             ...  NO
IR spectrum                             ...  NO
VCD spectrum                            ...  NO
X-ray spectroscopy properties:
SCF XES/XAS/RIXS spectra                ...  NO


-------------
DIPOLE MOMENT
-------------

Method             : SCF
Type of density    : Electron Density
Multiplicity       :   2
Irrep              :   0
Energy             : -2029.6358393137588791 Eh
Relativity type    : 
Basis              : AO
                                X                 Y                 Z
Electronic contribution:      8.748086325      28.564894395       6.204952370
Nuclear contribution   :     -7.969080889     -22.194447628      -5.908704691
                        -----------------------------------------
Total Dipole Moment    :      0.779005436       6.370446767       0.296247679
                        -----------------------------------------
Magnitude (a.u.)       :      6.424733782
Magnitude (Debye)      :     16.330375477



--------------------
Rotational spectrum 
--------------------
 
Rotational constants in cm-1:             0.017001             0.003082             0.002970 
Rotational constants in MHz :           509.678679            92.383360            89.043497 

Dipole components along the rotational axes: 
x,y,z [a.u.] :     6.329557    -0.176255    -1.087587 
x,y,z [Debye]:    16.088456    -0.448004    -2.764427 

 

Dipole moment calculation done in   0.1 sec 

Maximum memory used throughout the entire PROP-calculation: 62.6 MB

--------------------------------
SUGGESTED CITATIONS FOR THIS RUN
--------------------------------

Below you find a list of papers that are relevant to this ORCA run
We neither can nor want to force you to cite these papers, but we appreciate if you do
You receive ORCA, which is the product of decades of hard work by many enthusiastic individuals, for free
The only thing we kindly ask in return is that you cite our papers,
We deeply appreciate it, if you show your appreciation for ORCA by not just citing the generic ORCA reference.

Please note that relegating all ORCA citations to the supporting information does *not* help us.
SI sections are not indexed - citations you put there will not count into any citation statistics
But we need these citations in order to attract the funding resources that allow us to do what we are doing

Therefore, if you are a happy ORCA user, please consider citing a few of the papers listed below in the main body of your paper

In addition to the list printed below, the program has created the file rf_mecn_1H2O_opt_B3L_sw_004.bibtex that contains the list in bibtex format
You can import this file easily into all common literature databanks and citation aid programs


List of essential papers. We consider these as the minimum necessary citations

  1. Neese,F.
     Software update: the ORCA program system, version 5.0
     WIRES Comput. Molec. Sci., 2022 12(1)e1606
     doi.org/10.1002/wcms.1606

List of papers to cite with high priority. The work reported in these papers was absolutely
necessary for this run to complete.
Our perspective: the developers of density functionals and basis sets usually get cited in chemistry papers
Good! But without the algorithms to do something with them, the functionals or basis sets would not do anything.
Hence, in our opinion, the algorithm design and method developments papers are equally worthy of getting cited

  1. Neese,F.
     An improvement of the resolution of the identity approximation for the formation of the Coulomb matrix
     J. Comp. Chem., 2003 24(14)1740-1747
     doi.org/10.1002/jcc.10318
  2. Neese,F.; Wennmohs,F.; Hansen,A.; Becker,U.
     Efficient, approximate and parallel Hartree-Fock and hybrid DFT calculations. A 'chain-of-spheres' algorithm for the Hartree-Fock exchange
     Chem. Phys., 2009 356(1-3)98-109
     doi.org/10.1016/j.chemphys.2008.10.036
  3. Garcia-Rates,M.; Neese,F.
     Effect of the Solute Cavity on the Solvation Energy and its Derivatives within the Framework of the Gaussian Charge Scheme
     J. Comput. Chem., 2020 41 922-939
     doi.org/10.1002/jcc.26139
  4. Helmich-Paris,B.; de Souza,B.; Neese,F.; Izsák,R.
     An improved chain of spheres for exchange algorithm
     J. Chem. Phys., 2021 155 104109
     doi.org/doi: 10.1063/5.0058766.
  5. Neese,F.
     The SHARK Integral Generation and Digestion System
     J. Comp. Chem., 2022  1-16
     doi.org/10.1002/jcc.26942
  6. Grimme,S.; Antony,J.; Ehrlich,S.; Krieg,H.
     A consistent and accurate ab initio parametrization of density functional dispersion correction (DFT-D) for the 94 elements H-Pu
     J. Chem. Phys., 2010 132 154104
     doi.org/10.1063/1.3382344
  7. Grimme,S.; Ehrlich,S.; Goerigk,L.
     Effect of the damping function in dispersion corrected density functional theory
     J. Comput. Chem., 2011 32(7)1456-1465
     doi.org/10.1002/jcc.21759

List of suggested additional citations. These are papers that are important in the 'surrounding' of 
of this run, or papers that preceded the highly important papers. If you like your results we are grateful for a citation.

  1. Izsak,R.; Neese,F.
     An overlap fitted chain of spheres exchange method
     J. Chem. Phys., 2011 135 144105
     doi.org/10.1063/1.3646921
  2. Izsak,R.; Hansen,A.; Neese,F.
     The resolution of identity and chain of spheres approximations for the LPNO-CCSD singles Fock term
     Molec. Phys., 2012 110 2413-2417
     doi.org/10.1080/00268976.2012.687466
  3. Neese,F.
     The ORCA program system
     WIRES Comput. Molec. Sci., 2012 2(1)73-78
     doi.org/10.1002/wcms.81
  4. Izsak,R.; Neese,F.; Klopper,W.
     Robust fitting techniques in the chain of spheres approximation to the Fock exchange: The role of the complementary space
     J. Chem. Phys., 2013 139 
     doi.org/10.1063/1.4819264
  5. Neese,F.
     Software update: the ORCA program system, version 4.0
     WIRES Comput. Molec. Sci., 2018 8(1)1-6
     doi.org/10.1002/wcms.1327
  6. Neese,F.; Wennmohs,F.; Becker,U.; Riplinger,C.
     The ORCA quantum chemistry program package
     J. Chem. Phys., 2020 152 Art. No. L224108
     doi.org/10.1063/5.0004608

List of optional additional citations

  1. Neese,F.
     Approximate second-order SCF convergence for spin unrestricted wavefunctions
     Chem. Phys. Lett., 2000 325(1-3)93-98
     doi.org/10.1016/s0009-2614(00)00662-x

Timings for individual modules:

Sum of individual times          ...     3462.408 sec (=  57.707 min)
Startup calculation              ...      131.122 sec (=   2.185 min)   3.8 %
SCF iterations                   ...     2499.594 sec (=  41.660 min)  72.2 %
Property calculations            ...        0.828 sec (=   0.014 min)   0.0 %
SCF Gradient evaluation          ...      830.230 sec (=  13.837 min)  24.0 %
Geometry relaxation              ...        0.634 sec (=   0.011 min)   0.0 %
                             ****ORCA TERMINATED NORMALLY****
TOTAL RUN TIME: 0 days 0 hours 58 minutes 3 seconds 591 msec
