
                                 *****************
                                 * O   R   C   A *
                                 *****************

                                            #,                                       
                                            ###                                      
                                            ####                                     
                                            #####                                    
                                            ######                                   
                                           ########,                                 
                                     ,,################,,,,,                         
                               ,,#################################,,                 
                          ,,##########################################,,             
                       ,#########################################, ''#####,          
                    ,#############################################,,   '####,        
                  ,##################################################,,,,####,       
                ,###########''''           ''''###############################       
              ,#####''   ,,,,##########,,,,          '''####'''          '####       
            ,##' ,,,,###########################,,,                        '##       
           ' ,,###''''                  '''############,,,                           
         ,,##''                                '''############,,,,        ,,,,,,###''
      ,#''                                            '''#######################'''  
     '                                                          ''''####''''         
             ,#######,   #######,   ,#######,      ##                                
            ,#'     '#,  ##    ##  ,#'     '#,    #''#        ,####,   ,####,        
            ##       ##  ##   ,#'  ##            #'  '#       #'       #'  '#        
            ##       ##  #######   ##           ,######,      #####,   #    #        
            '#,     ,#'  ##    ##  '#,     ,#' ,#      #,     #,   #   #,  ,#        
             '#######'   ##     ##  '#######'  #'      '#     '####' # '####'        



                #########################################################
                #                        -***-                          #
                #          Department of theory and spectroscopy        #
                #                                                       #
                #                      Frank Neese                      #
                #                                                       #
                #     Directorship, Architecture, Infrastructure        #
                #                    SHARK, DRIVERS                     #
                #        Core code/Algorithms in most modules           #
                #                                                       #
                #        Max Planck Institute fuer Kohlenforschung      #
                #                Kaiser Wilhelm Platz 1                 #
                #                 D-45470 Muelheim/Ruhr                 #
                #                      Germany                          #
                #                                                       #
                #                  All rights reserved                  #
                #                        -***-                          #
                #########################################################


                         Program Version 6.0.1  -  RELEASE   -


 With contributions from (in alphabetic order):
[Max-Planck-Institut fuer Kohlenforschung]                               
  Daniel Aravena         : Magnetic Suceptibility                        
  Michael Atanasov       : Ab Initio Ligand Field Theory (pilot matlab implementation)
  Alexander A. Auer      : GIAO ZORA, VPT2 properties, NMR spectrum      
  Ute Becker             : All parallelization in ORCA, NUMFREQ, NUMCALC 
  Giovanni Bistoni       : ED, misc. LED, open-shell LED, HFLD           
  Martin Brehm           : Molecular dynamics                            
  Dmytro Bykov           : pre 5.0 version of the SCF Hessian            
  Marcos Casanova-Páez   : Triplet and SCS-CIS(D). UHF-(DLPNO)-IP/EA/STEOM-CCSD. UHF-CVS-IP/STEOM-CCSD   
  Vijay G. Chilkuri      : MRCI spin determinant printing, contributions to CSF-ICE 
  Pauline Colinet        : FMM embedding                                 
  Dipayan Datta          : RHF DLPNO-CCSD density                        
  Achintya Kumar Dutta   : EOM-CC, STEOM-CC                              
  Nicolas Foglia         : Exact transition moments, OPA infrastructure, MCD improvements    
  Dmitry Ganyushin       : Spin-Orbit,Spin-Spin,Magnetic field MRCI      
  Miquel Garcia-Rates    : C-PCM and meta-GGA Hessian, CCSD/C-PCM, Gaussian charge scheme 
  Tiago L. C. Gouveia    : GS-ROHF, GS-ROCIS                             
  Yang Guo               : DLPNO-NEVPT2, F12-NEVPT2, CIM, IAO-localization        
  Andreas Hansen         : Spin unrestricted coupled pair/coupled cluster methods 
  Ingolf Harden          : AUTO-CI MPn and infrastructure                
  Benjamin Helmich-Paris : MC-RPA, TRAH-(SCF,CASSCF), AVAS, COSX integrals, SCF dyn. polar. 
  Lee Huntington         : MR-EOM, pCC                                   
  Robert Izsak           : Overlap fitted RIJCOSX, COSX-SCS-MP3, EOM     
  Riya Kayal             : Wick's Theorem for AUTO-CI, AUTO-CI UHF-CCSDT 
  Emily Kempfer          : AUTO-CI, RHF CISDT and CCSDT                  
  Christian Kollmar      : KDIIS, OOCD, Brueckner-CCSD(T), CCSD density, CASPT2, CASPT2-K, improved NEVPT2 
  Axel Koslowski         : Symmetry handling                             
  Simone Kossmann        : meta-GGA functionals, TD-DFT gradient, OOMP2, (MP2 Hessian; deprecated post 5.0) 
  Lucas Lang             : DCDCAS                                        
  Marvin Lechner         : AUTO-CI (C++ implementation), FIC-MRCC        
  Spencer Leger          : CASSCF response                               
  Dagmar Lenk            : GEPOL surface, SMD, ORCA-2-JSON               
  Dimitrios Liakos       : Extrapolation schemes; Compound Job, initial MDCI parallelization 
  Dimitrios Manganas     : Further ROCIS development; embedding schemes. LFT, Crystal Embedding 
  Dimitrios Pantazis     : SARC Basis sets                               
  Anastasios Papadopoulos: AUTO-CI, single reference methods and gradients 
  Taras Petrenko         : pre 6.0 DFT Hessian and TD-DFT gradient, (ASA, deprecated), ECA, 1-Electron XAS/XES, NRVS 
  Peter Pinski           : DLPNO-MP2, DLPNO-MP2 Gradient                 
  Christoph Reimann      : Effective Core Potentials                     
  Marius Retegan         : Local ZFS, SOC                                
  Christoph Riplinger    : Optimizer, TS searches, QM/MM, DLPNO-CCSD(T), (RO)-DLPNO pert. Triples 
  Michael Roemelt        : Original ROCIS implementation                 
  Masaaki Saitow         : Open-shell DLPNO-CCSD energy and density      
  Barbara Sandhoefer     : DKH picture change effects                    
  Kantharuban Sivalingam : CASSCF convergence/infrastructure, NEVPT2 and variants, FIC-MRCI 
  Bernardo de Souza      : ESD, SOC TD-DFT                               
  Georgi L. Stoychev     : AutoAux, RI-MP2 NMR, DLPNO-MP2 response, X2C  
  Van Anh Tran           : RI-MP2 g-tensors                              
  Willem Van den Heuvel  : Paramagnetic NMR                              
  Zikuan Wang            : NOTCH, Electric field optimization            
  Frank Wennmohs         : Technical directorship and infrastructure     
  Hang Xu                : AUTO-CI-Response properties                   
                                                                         
[FACCTs GmbH]                                                            
  Markus Bursch, Miquel Garcia-Rates, Christoph Riplinger, Bernardo de Souza, Georgi L. Stoychev 
                                                                 
  APM, Basis sets (HGBS, AHGBS, def-TZVP (Ac-Lr), def2-XVPD (La-Lu)), CI-OPT, improved COSX, DLPNO-Multilevel,           
  DOCKER, DRACO, updates on ESD, GOAT, IRC, LR-CPCM, MBIS, meta-GGA TD-DFT gradient, ML-optimized integration grids, 
  MM, NACMEs, nearIR, NEB, NEB-TS, NL-DFT gradient (VV10), 2- and 3-layer-ONIOM, interface openCOSMO-RS, QMMM,   
  Crystal-QMMM, SF, symmetry and pop. for TD-DFT, r2SCAN hybrids, SOLVATOR                                   
                                                                         
[Other institutions]                                                     
  V. Asgeirsson          : NEB                                           
  Christoph Bannwarth    : sTDA-DFT, sTD-DFT, PBEh-3c, B97-3c, D3        
  Sebastian Ehlert       : rSCAN, r2SCAN, r2SCAN-3c, D4, dhf basis sets  
  Marvin Friede          : D4 for Fr, Ra, Ac-Lr                          
  Lars Goerigk           : TD-DFT with DH, B97 family of functionals     
  Stefan Grimme          : VdW corrections, initial TS optimization, DFT functionals, gCP, sTDA/sTD-DF 
  Waldemar Hujo          : DFT-NL                                        
  H. Jonsson             : NEB                                           
  Holger Kruse           : gCP                                           
  Marcel Mueller         : wB97X-3c, vDZP basis set                      
  Hagen Neugebauer       : wr2SCAN                                       
  Tobias Risthaus        : range-separated hybrid DFT                    
  Lukas Wittmann         : regularized MP2, r2SCAN double-hybrids, wr2SCAN        
                                                                         
We gratefully acknowledge several colleagues who have allowed us to      
interface, adapt or use parts of their codes:                            
  Ed Valeev, F. Pavosevic, A. Kumar             : LibInt (2-el integral package), F12 methods 
  Garnet Chan, S. Sharma, J. Yang, R. Olivares  : DMRG                   
  Ulf Ekstrom                                   : XCFun DFT Library      
  Mihaly Kallay                                 : mrcc  (arbitrary order and MRCC methods)
  Frank Weinhold                                : gennbo (NPA and NBO analysis)           
  Simon Mueller                                 : openCOSMO-RS                            
  Christopher J. Cramer and Donald G. Truhlar   : smd solvation model                     
  S Lehtola, MJT Oliveira, MAL Marques          : LibXC Library                           
  Liviu Ungur et al                             : ANISO software                          


 Your calculation uses the libint2 library for the computation of 2-el integrals
 For citations please refer to: http://libint.valeyev.net

 Your ORCA version has been built with support for libXC version: 6.2.2
 For citations please refer to: https://libxc.gitlab.io

 This ORCA versions uses:
   CBLAS   interface :  Fast vector & matrix operations
   LAPACKE interface :  Fast linear algebra routines
   SCALAPACK package :  Parallel linear algebra routines
   Shared memory     :  Shared parallel matrices
   BLAS/LAPACK       :  OpenBLAS 0.3.27  USE64BITINT DYNAMIC_ARCH NO_AFFINITY SkylakeX SINGLE_THREADED
        Core in use  :  SkylakeX
   Copyright (c) 2011-2014, The OpenBLAS Project


NOTE: MaxCore=8000 MB was set to SCF,MP2,MDCI,CIPSI,MRCI and CIS
      => If you want to overwrite this, your respective input block should be placed after the MaxCore statement
Your calculation utilizes the atom-pairwise dispersion correction
with the Becke-Johnson damping scheme (D3BJ)


Your calculation utilizes the SMD solvation module
Please cite in your paper:
A.V. Marenich, C.J. Cramer, D.G. Truhlar J. Phys. Chem. B, 113, (2009), 6378 

Warning: RI is on but no J-basis has been assigned. Assigning Def2/J (nothing to worry about!)
================================================================================

----- Orbital basis set information -----
Your calculation utilizes the basis: def2-TZVP
   F. Weigend and R. Ahlrichs, Phys. Chem. Chem. Phys. 7, 3297 (2005).

----- AuxJ basis set information -----
Your calculation utilizes the auxiliary basis: def2/J
   F. Weigend, Phys. Chem. Chem. Phys. 8, 1057 (2006).

================================================================================
                                        WARNINGS
                       Please study these warnings very carefully!
================================================================================


WARNING: your system is open-shell and RHF/RKS was chosen
  ===> : WILL SWITCH to UHF/UKS


================================================================================
                                       INPUT FILE
================================================================================
NAME = rf_mecn_freq_TP_C7_P_B.inp
|  1> !TPSSh def2-TZVP freq d3 TightSCF SlowConv defgrid2
|  2>  
|  3> %pal
|  4> nprocs 20
|  5> end
|  6>  
|  7> %scf
|  8> MaxIter 1500
|  9> end
| 10>  
| 11> %maxcore 8000
| 12>  
| 13> !CPCM
| 14> %cpcm smd true
| 15> SMDsolvent "ACETONITRILE"
| 16> end
| 17>  
| 18> * xyz 0 2
| 19> 6        4.674951000      0.153200000     -0.467596000
| 20> 8        5.019642000     -0.694587000     -1.427402000
| 21> 8        5.158884000      1.227076000     -0.234502000
| 22> 6        3.496194000     -0.408073000      0.374369000
| 23> 6        2.117996000      0.058620000     -0.193270000
| 24> 6        0.875456000     -0.667217000      0.426536000
| 25> 6       -0.467080000      0.108951000      0.209507000
| 26> 6       -1.765034000     -0.750396000      0.389401000
| 27> 6       -3.007455000      0.085345000      0.478274000
| 28> 6       -4.037801000      0.258747000     -0.597609000
| 29> 9        3.518325000     -1.762522000      0.402170000
| 30> 9        3.627045000      0.048959000      1.637572000
| 31> 9        2.009946000      1.389559000      0.019024000
| 32> 9        2.115132000     -0.163800000     -1.527472000
| 33> 9        0.773440000     -1.890952000     -0.135857000
| 34> 9        1.067316000     -0.821556000      1.753942000
| 35> 9       -0.519886000      1.127142000      1.096981000
| 36> 9       -0.490388000      0.625223000     -1.040071000
| 37> 9       -1.629248000     -1.481094000      1.527671000
| 38> 9       -1.872453000     -1.595388000     -0.664277000
| 39> 9       -3.324071000      0.547474000      1.674586000
| 40> 9       -4.887842000     -0.790449000     -0.675401000
| 41> 9       -4.775307000      1.351652000     -0.354663000
| 42> 9       -3.457571000      0.389240000     -1.801497000
| 43> 1        5.753132000     -0.305601000     -1.947424000
| 44> *
| 45> 
| 46>                          ****END OF INPUT****
================================================================================

                       ****************************
                       * Single Point Calculation *
                       ****************************

---------------------------------
CARTESIAN COORDINATES (ANGSTROEM)
---------------------------------
  C      4.674951    0.153200   -0.467596
  O      5.019642   -0.694587   -1.427402
  O      5.158884    1.227076   -0.234502
  C      3.496194   -0.408073    0.374369
  C      2.117996    0.058620   -0.193270
  C      0.875456   -0.667217    0.426536
  C     -0.467080    0.108951    0.209507
  C     -1.765034   -0.750396    0.389401
  C     -3.007455    0.085345    0.478274
  C     -4.037801    0.258747   -0.597609
  F      3.518325   -1.762522    0.402170
  F      3.627045    0.048959    1.637572
  F      2.009946    1.389559    0.019024
  F      2.115132   -0.163800   -1.527472
  F      0.773440   -1.890952   -0.135857
  F      1.067316   -0.821556    1.753942
  F     -0.519886    1.127142    1.096981
  F     -0.490388    0.625223   -1.040071
  F     -1.629248   -1.481094    1.527671
  F     -1.872453   -1.595388   -0.664277
  F     -3.324071    0.547474    1.674586
  F     -4.887842   -0.790449   -0.675401
  F     -4.775307    1.351652   -0.354663
  F     -3.457571    0.389240   -1.801497
  H      5.753132   -0.305601   -1.947424

----------------------------
CARTESIAN COORDINATES (A.U.)
----------------------------
  NO LB      ZA    FRAG     MASS         X           Y           Z
   0 C     6.0000    0    12.011    8.834377    0.289506   -0.883628
   1 O     8.0000    0    15.999    9.485749   -1.312579   -2.697399
   2 O     8.0000    0    15.999    9.748878    2.318838   -0.443145
   3 C     6.0000    0    12.011    6.606849   -0.771146    0.707455
   4 C     6.0000    0    12.011    4.002432    0.110776   -0.365227
   5 C     6.0000    0    12.011    1.654372   -1.260857    0.806036
   6 C     6.0000    0    12.011   -0.882653    0.205888    0.395911
   7 C     6.0000    0    12.011   -3.335431   -1.418043    0.735861
   8 C     6.0000    0    12.011   -5.683266    0.161279    0.903807
   9 C     6.0000    0    12.011   -7.630338    0.488961   -1.129317
  10 F     9.0000    0    18.998    6.648671   -3.330684    0.759991
  11 F     9.0000    0    18.998    6.854122    0.092519    3.094563
  12 F     9.0000    0    18.998    3.798247    2.625886    0.035950
  13 F     9.0000    0    18.998    3.997020   -0.309537   -2.886504
  14 F     9.0000    0    18.998    1.461590   -3.573381   -0.256733
  15 F     9.0000    0    18.998    2.016935   -1.552516    3.314470
  16 F     9.0000    0    18.998   -0.982442    2.129990    2.072994
  17 F     9.0000    0    18.998   -0.926699    1.181500   -1.965449
  18 F     9.0000    0    18.998   -3.078833   -2.798862    2.886880
  19 F     9.0000    0    18.998   -3.538423   -3.014846   -1.255302
  20 F     9.0000    0    18.998   -6.281584    1.034576    3.164509
  21 F     9.0000    0    18.998   -9.236683   -1.493732   -1.276323
  22 F     9.0000    0    18.998   -9.024022    2.554252   -0.670216
  23 F     9.0000    0    18.998   -6.533862    0.735557   -3.404336
  24 H     1.0000    0     1.008   10.871844   -0.577502   -3.680098

--------------------------------
INTERNAL COORDINATES (ANGSTROEM)
--------------------------------
 C      0   0   0     0.000000000000     0.00000000     0.00000000
 O      1   0   0     1.326190876339     0.00000000     0.00000000
 O      1   2   0     1.200722126348   127.40718174     0.00000000
 C      1   2   3     1.553512313052   111.00777757   179.40244527
 C      4   1   2     1.561872631739   111.38360186   268.24514513
 C      5   4   1     1.566813479584   114.68217181   169.25166968
 C      6   5   4     1.565867574976   113.29560492   161.16781474
 C      7   6   5     1.567011073273   114.98758821   161.45472620
 C      8   7   6     1.499990456787   112.78798201   167.08227172
 C      9   8   7     1.499735097612   126.22544639   105.15231292
 F      4   1   2     1.354915041751   111.09378485    29.58005837
 F      4   1   2     1.349697022459   108.14008403   148.57432615
 F      5   4   1     1.352088076516   107.91355542   291.31451965
 F      5   4   1     1.352617401818   108.13282605    48.44025266
 F      6   5   4     1.350637072248   108.35552749   282.33617822
 F      6   5   4     1.350050915839   109.22068282    40.29892608
 F      7   6   5     1.351706879021   108.41348825   282.13340615
 F      7   6   5     1.352229721213   109.39650318    40.36577681
 F      8   7   6     1.359417521551   107.94831597    46.06460504
 F      8   7   6     1.354912413888   108.56621655   288.16521770
 F      9   8   7     1.320973620267   116.55793738   274.34845519
 F     10   9   8     1.352565541244   112.54064414    79.04480539
 F     10   9   8     1.340663715470   110.01022812   198.61147298
 F     10   9   8     1.342773842646   110.94970928   318.95478254
 H      2   1   3     0.979663497728   108.96201264   359.67242578

---------------------------
INTERNAL COORDINATES (A.U.)
---------------------------
 C      0   0   0     0.000000000000     0.00000000     0.00000000
 O      1   0   0     2.506137557587     0.00000000     0.00000000
 O      1   2   0     2.269035981737   127.40718174     0.00000000
 C      1   2   3     2.935712817342   111.00777757   179.40244527
 C      4   1   2     2.951511530053   111.38360186   268.24514513
 C      5   4   1     2.960848379349   114.68217181   169.25166968
 C      6   5   4     2.959060878692   113.29560492   161.16781474
 C      7   6   5     2.961221777308   114.98758821   161.45472620
 C      8   7   6     2.834571166822   112.78798201   167.08227172
 C      9   8   7     2.834088607916   126.22544639   105.15231292
 F      4   1   2     2.560418363640   111.09378485    29.58005837
 F      4   1   2     2.550557736216   108.14008403   148.57432615
 F      5   4   1     2.555076173556   107.91355542   291.31451965
 F      5   4   1     2.556076453412   108.13282605    48.44025266
 F      6   5   4     2.552334172869   108.35552749   282.33617822
 F      6   5   4     2.551226497785   109.22068282    40.29892608
 F      7   6   5     2.554355814687   108.41348825   282.13340615
 F      7   6   5     2.555343843241   109.39650318    40.36577681
 F      8   7   6     2.568926817385   107.94831597    46.06460504
 F      8   7   6     2.560413397699   108.56621655   288.16521770
 F      9   8   7     2.496278372439   116.55793738   274.34845519
 F     10   9   8     2.555978451130   112.54064414    79.04480539
 F     10   9   8     2.533487259923   110.01022812   198.61147298
 F     10   9   8     2.537474822393   110.94970928   318.95478254
 H      2   1   3     1.851295714105   108.96201264   359.67242578

---------------------
BASIS SET INFORMATION
---------------------
There are 4 groups of distinct atoms

 Group   1 Type C   : 11s6p2d1f contracted to 5s3p2d1f pattern {62111/411/11/1}
 Group   2 Type O   : 11s6p2d1f contracted to 5s3p2d1f pattern {62111/411/11/1}
 Group   3 Type F   : 11s6p2d1f contracted to 5s3p2d1f pattern {62111/411/11/1}
 Group   4 Type H   : 5s1p contracted to 3s1p pattern {311/1}

Atom   0C    basis set group =>   1
Atom   1O    basis set group =>   2
Atom   2O    basis set group =>   2
Atom   3C    basis set group =>   1
Atom   4C    basis set group =>   1
Atom   5C    basis set group =>   1
Atom   6C    basis set group =>   1
Atom   7C    basis set group =>   1
Atom   8C    basis set group =>   1
Atom   9C    basis set group =>   1
Atom  10F    basis set group =>   3
Atom  11F    basis set group =>   3
Atom  12F    basis set group =>   3
Atom  13F    basis set group =>   3
Atom  14F    basis set group =>   3
Atom  15F    basis set group =>   3
Atom  16F    basis set group =>   3
Atom  17F    basis set group =>   3
Atom  18F    basis set group =>   3
Atom  19F    basis set group =>   3
Atom  20F    basis set group =>   3
Atom  21F    basis set group =>   3
Atom  22F    basis set group =>   3
Atom  23F    basis set group =>   3
Atom  24H    basis set group =>   4
---------------------------------
AUXILIARY/J BASIS SET INFORMATION
---------------------------------
There are 4 groups of distinct atoms

 Group   1 Type C   : 12s5p4d2f1g contracted to 6s4p3d1f1g pattern {711111/2111/211/2/1}
 Group   2 Type O   : 12s5p4d2f1g contracted to 6s4p3d1f1g pattern {711111/2111/211/2/1}
 Group   3 Type F   : 12s5p4d2f1g contracted to 6s4p3d1f1g pattern {711111/2111/211/2/1}
 Group   4 Type H   : 5s2p1d contracted to 3s1p1d pattern {311/2/1}

Atom   0C    basis set group =>   1
Atom   1O    basis set group =>   2
Atom   2O    basis set group =>   2
Atom   3C    basis set group =>   1
Atom   4C    basis set group =>   1
Atom   5C    basis set group =>   1
Atom   6C    basis set group =>   1
Atom   7C    basis set group =>   1
Atom   8C    basis set group =>   1
Atom   9C    basis set group =>   1
Atom  10F    basis set group =>   3
Atom  11F    basis set group =>   3
Atom  12F    basis set group =>   3
Atom  13F    basis set group =>   3
Atom  14F    basis set group =>   3
Atom  15F    basis set group =>   3
Atom  16F    basis set group =>   3
Atom  17F    basis set group =>   3
Atom  18F    basis set group =>   3
Atom  19F    basis set group =>   3
Atom  20F    basis set group =>   3
Atom  21F    basis set group =>   3
Atom  22F    basis set group =>   3
Atom  23F    basis set group =>   3
Atom  24H    basis set group =>   4


           ************************************************************
           *        Program running with 20 parallel MPI-processes    *
           *              working on a common directory               *
           ************************************************************
------------------------------------------------------------------------------
                             ORCA STARTUP CALCULATIONS
                           -- RI-GTO INTEGRALS CHOSEN --
------------------------------------------------------------------------------
------------------------------------------------------------------------------
                   ___                                                        
                  /   \      - P O W E R E D   B Y -                         
                 /     \                                                     
                 |  |  |   _    _      __       _____    __    __             
                 |  |  |  | |  | |    /  \     |  _  \  |  |  /  |          
                  \  \/   | |  | |   /    \    | | | |  |  | /  /          
                 / \  \   | |__| |  /  /\  \   | |_| |  |  |/  /          
                |  |  |   |  __  | /  /__\  \  |    /   |      \           
                |  |  |   | |  | | |   __   |  |    \   |  |\   \          
                \     /   | |  | | |  |  |  |  | |\  \  |  | \   \       
                 \___/    |_|  |_| |__|  |__|  |_| \__\ |__|  \__/        
                                                                              
                      - O R C A' S   B I G   F R I E N D -                    
                                      &                                       
                       - I N T E G R A L  F E E D E R -                       
                                                                              
 v1 FN, 2020, v2 2021, v3 2022-2024                                           
------------------------------------------------------------------------------


----------------------
SHARK INTEGRAL PACKAGE
----------------------

Number of atoms                             ...     25
Number of basis functions                   ...    750
Number of shells                            ...    268
Maximum angular momentum                    ...      3
Integral batch strategy                     ... SHARK/LIBINT Hybrid
RI-J (if used) integral strategy            ... SPLIT-RIJ (Revised 2003 algorithm where possible)
Printlevel                                  ...      1
Contraction scheme used                     ... SEGMENTED contraction
Prescreening option                         ... SCHWARTZ
   Thresh                                   ... 2.500e-11
   Tcut                                     ... 2.500e-12
   Tpresel                                  ... 2.500e-12 
Coulomb Range Separation                    ... NOT USED
Exchange Range Separation                   ... NOT USED
Multipole approximations                    ... NOT USED
Finite Nucleus Model                        ... NOT USED
CABS basis                                  ... NOT available
Auxiliary Coulomb fitting basis             ... AVAILABLE
   # of basis functions in Aux-J            ...   1187
   # of shells in Aux-J                     ...    365
   Maximum angular momentum in Aux-J        ...      4
Auxiliary J/K fitting basis                 ... NOT available
Auxiliary Correlation fitting basis         ... NOT available
Auxiliary 'external' fitting basis          ... NOT available

Checking pre-screening integrals            ... done (  0.0 sec) Dimension = 268
Check shell pair data                       ... done (  0.0 sec)
Shell pair information
Shell pair cut-off parameter TPreSel        ...   2.5e-12
Total number of shell pairs                 ...     36046
Shell pairs after pre-screening             ...     22427
Total number of primitive shell pairs       ...    118872
Primitive shell pairs kept                  ...     47534
          la=0 lb=0:   4266 shell pairs
          la=1 lb=0:   6133 shell pairs
          la=1 lb=1:   2112 shell pairs
          la=2 lb=0:   3327 shell pairs
          la=2 lb=1:   2431 shell pairs
          la=2 lb=2:    686 shell pairs
          la=3 lb=0:   1522 shell pairs
          la=3 lb=1:   1174 shell pairs
          la=3 lb=2:    624 shell pairs
          la=3 lb=3:    152 shell pairs

Calculating one electron integrals          ... done (  0.0 sec)
Calculating RI/J V-Matrix + Cholesky decomp.... done (  0.1 sec)
Calculating Nuclear repulsion               ... done (  0.0 sec) ENN=   2653.264838238287 Eh

Diagonalization of the overlap matrix:
Smallest eigenvalue                        ... 6.582e-05
Time for diagonalization                   ...    0.128 sec
Threshold for overlap eigenvalues          ... 1.000e-07
Number of eigenvalues below threshold      ... 0
Time for construction of square roots      ...    0.061 sec
Total time needed                          ...    0.195 sec

-------------------
DFT GRID GENERATION
-------------------

General Integration Accuracy     IntAcc      ... 4.388
Radial Grid Type                 RadialGrid  ... OptM3 with GC (2021)
Angular Grid (max. ang.)         AngularGrid ... 4 (Lebedev-302)
Angular grid pruning method      GridPruning ... 4 (adaptive)
Weight generation scheme         WeightScheme... mBecke (2022)
Basis function cutoff            BFCut       ... 1.0000e-11
Integration weight cutoff        WCut        ... 1.0000e-14
Partially contracted basis set               ... off
Rotationally invariant grid construction     ... off
Angular grids for H and He will be reduced by one unit

Total number of grid points                  ...   148708
Total number of batches                      ...     2337
Average number of points per batch           ...       63
Average number of grid points per atom       ...     5948

--------------------
COSX GRID GENERATION
--------------------

GRIDX 1
-------
General Integration Accuracy     IntAcc      ... 3.816
Radial Grid Type                 RadialGrid  ... OptM3 with GC (2021)
Angular Grid (max. ang.)         AngularGrid ... 1 (Lebedev-50)
Angular grid pruning method      GridPruning ... 4 (adaptive)
Weight generation scheme         WeightScheme... mBecke (2022)
Basis function cutoff            BFCut       ... 1.0000e-11
Integration weight cutoff        WCut        ... 1.0000e-14
Partially contracted basis set               ... on
Rotationally invariant grid construction     ... off
Angular grids for H and He will be reduced by one unit

Total number of grid points                  ...    18685
Total number of batches                      ...      158
Average number of points per batch           ...      118
Average number of grid points per atom       ...      747
UseSFitting                                  ... on

GRIDX 2
-------
General Integration Accuracy     IntAcc      ... 4.020
Radial Grid Type                 RadialGrid  ... OptM3 with GC (2021)
Angular Grid (max. ang.)         AngularGrid ... 2 (Lebedev-110)
Angular grid pruning method      GridPruning ... 4 (adaptive)
Weight generation scheme         WeightScheme... mBecke (2022)
Basis function cutoff            BFCut       ... 1.0000e-11
Integration weight cutoff        WCut        ... 1.0000e-14
Partially contracted basis set               ... on
Rotationally invariant grid construction     ... off
Angular grids for H and He will be reduced by one unit

Total number of grid points                  ...    44065
Total number of batches                      ...      358
Average number of points per batch           ...      123
Average number of grid points per atom       ...     1763
UseSFitting                                  ... on

GRIDX 3
-------
General Integration Accuracy     IntAcc      ... 4.338
Radial Grid Type                 RadialGrid  ... OptM3 with GC (2021)
Angular Grid (max. ang.)         AngularGrid ... 3 (Lebedev-194)
Angular grid pruning method      GridPruning ... 4 (adaptive)
Weight generation scheme         WeightScheme... mBecke (2022)
Basis function cutoff            BFCut       ... 1.0000e-11
Integration weight cutoff        WCut        ... 1.0000e-14
Partially contracted basis set               ... on
Rotationally invariant grid construction     ... off
Angular grids for H and He will be reduced by one unit

Total number of grid points                  ...    97638
Total number of batches                      ...      775
Average number of points per batch           ...      125
Average number of grid points per atom       ...     3906
UseSFitting                                  ... on
Initializing property integral containers    ... done (  0.0 sec)

SHARK setup successfully completed in   3.7 seconds

Maximum memory used throughout the entire STARTUP-calculation: 57.4 MB


           ************************************************************
           *        Program running with 20 parallel MPI-processes    *
           *              working on a common directory               *
           ************************************************************
-------------------------------------------------------------------------------
                                 ORCA GUESS
                   Start orbitals & Density for SCF / CASSCF
-------------------------------------------------------------------------------

------------
SCF SETTINGS
------------
Hamiltonian:
 Density Functional     Method          .... DFT(GTOs)
 Exchange Functional    Exchange        .... TPSS
 Correlation Functional Correlation     .... TPSS
 LDA part of GGA corr.  LDAOpt          .... PW91-LDA
 Gradients option       PostSCFGGA      .... off
 Hybrid DFT is turned on
   Fraction HF Exchange ScalHFX         ....  0.100000
   Scaling of DF-GGA-X  ScalDFX         ....  0.900000
   Scaling of DF-GGA-C  ScalDFC         ....  1.000000
   Scaling of DF-LDA-C  ScalLDAC        ....  1.000000
   Perturbative correction              ....  0.000000
   NL short-range parameter             ....  5.200000
 RI-approximation to the Coulomb term is turned on
   Number of AuxJ basis functions       .... 1187
   RIJ-COSX (HFX calculated with COS-X)).... on


General Settings:
 Integral files         IntName         .... rf_mecn_freq_TP_C7_P_B
 Hartree-Fock type      HFTyp           .... UHF
 Total Charge           Charge          ....    0
 Multiplicity           Mult            ....    2
 Number of Electrons    NEL             ....  191
 Basis Dimension        Dim             ....  750
 Nuclear Repulsion      ENuc            ....   2653.2648382383 Eh

Convergence Acceleration:
 AO-DIIS                CNVDIIS         .... on
   Start iteration      DIISMaxIt       ....     0
   Startup error        DIISStart       ....  0.200000
   # of expansion vecs  DIISMaxEq       ....     5
   Bias factor          DIISBfac        ....   1.050
   Max. coefficient     DIISMaxC        ....  10.000
 MO-DIIS                CNVKDIIS        .... off
 Trust-Rad. Augm. Hess. CNVTRAH         .... auto
   Auto Start mean grad. ratio tolernc. ....  1.125000
   Auto Start start iteration           ....    50
   Auto Start num. interpolation iter.  ....    10
   Max. Number of Micro iterations      ....    24
   Max. Number of Macro iterations      .... Maxiter - #DIIS iter
   Number of Davidson start vectors     ....     2
   Converg. threshold    (grad. norm)   ....   1.000e-05
   Grad. Scal. Fac. for Micro threshold ....   0.100
   Minimum threshold for Micro iter.    ....   1.000e-02
   NR start threshold (gradient norm)   ....   1.000e-04
   Initial trust radius                 ....   0.400
   Minimum AH scaling param. (alpha)    ....   1.000
   Maximum AH scaling param. (alpha)    .... 1000.000
   Quad. conv. algorithm                .... NR
   White noise on init. David. guess    .... on
   Maximum white noise                  ....   0.010
   Pseudo random numbers                .... off
   Inactive MOs                         .... canonical
   Orbital update algorithm             .... Taylor
   Preconditioner                       .... Diag
   Full preconditioner red. dimension   ....   250
 SOSCF                  CNVSOSCF        .... on
   Start iteration      SOSCFMaxIt      ....   150
   Startup grad/error   SOSCFStart      ....  0.001000
   Hessian update       SOSCFHessUp     .... L-BFGS
 Level Shifting         CNVShift        .... on
   Level shift para.    LevelShift      ....    0.2500
   Turn off err/grad.   ShiftErr        ....    0.0000
 Zerner damping         CNVZerner       .... off
 Static damping         CNVDamp         .... on
   Fraction old density DampFac         ....    0.8500
   Max. Damping (<1)    DampMax         ....    0.9800
   Min. Damping (>=0)   DampMin         ....    0.0000
   Turn off err/grad.   DampErr         ....    0.0300

SCF Procedure:
 Maximum # iterations   MaxIter         ....  1500
 SCF integral mode      SCFMode         .... Direct
   Integral package                     .... SHARK and LIBINT hybrid scheme
 Reset frequency        DirectResetFreq ....    20
 Integral Threshold     Thresh          ....  2.500e-11 Eh
 Primitive CutOff       TCut            ....  2.500e-12 Eh

Convergence Tolerance:
 Convergence Check Mode ConvCheckMode   .... Total+1el-Energy
 Convergence forced     ConvForced      .... 0
 Energy Change          TolE            ....  1.000e-08 Eh
 1-El. energy change                    ....  1.000e-05 Eh
 Orbital Gradient       TolG            ....  1.000e-05
 Orbital Rotation angle TolX            ....  1.000e-05
 DIIS Error             TolErr          ....  5.000e-07

------------------------------
INITIAL GUESS: MODEL POTENTIAL
------------------------------
Loading Hartree-Fock densities                     ... done
Calculating cut-offs                               ... done
Initializing the effective Hamiltonian             ... done
Setting up the integral package (SHARK)            ... done
Starting the Coulomb interaction                   ... done (   0.2 sec)
Making the grid                                    ... done (   0.5 sec)
Mapping shells                                     ... done
Starting the XC term evaluation                    ... done (   0.2 sec)
  promolecular density results
     # of electrons  =    190.998711746
     EX              =   -197.548188913
     EC              =     -6.707124275
     EX+EC           =   -204.255313189
Transforming the Hamiltonian                       ... done (   0.1 sec)
Diagonalizing the Hamiltonian                      ... done (   0.1 sec)
Back transforming the eigenvectors                 ... done (   0.0 sec)
Now organizing SCF variables                       ... done
                      ------------------
                      INITIAL GUESS DONE (   1.3 sec)
                      ------------------
             **** ENERGY FILE WAS UPDATED (rf_mecn_freq_TP_C7_P_B.en.tmp) ****
Finished Guess after   2.1 sec
Maximum memory used throughout the entire GUESS-calculation: 46.6 MB


           ************************************************************
           *        Program running with 20 parallel MPI-processes    *
           *              working on a common directory               *
           ************************************************************

-------------------------------------------------------------------------------------------
                                      ORCA LEAN-SCF
                              memory conserving SCF solver
-------------------------------------------------------------------------------------------

--------------------
CPCM SOLVATION MODEL
--------------------
CPCM parameters:
  Epsilon                                         ...      35.6880
  Refrac                                          ...       1.3442
  Rsolv                                           ...       1.3000
  Surface type                                    ... GAUSSIAN VDW
  Discretization scheme                           ... Constant charge density
    Threshold for H atoms                         ...       5.0000 (charges/Ang^2)
    Threshold for non-H atoms                     ...       5.0000 (charges/Ang^2)
  Epsilon function type                           ...         CPCM
Solvent:                                          ... ACETONITRILE
SMD-CDS solvent descriptors:
  Soln                                            ...       1.3442
  Soln25                                          ...       1.3416
  Sola                                            ...       0.0700
  Solb                                            ...       0.3200
  Solg                                            ...      41.2500
  Solc                                            ...       0.0000
  Solh                                            ...       0.0000
Radii:
  Scheme                                          ... Element-dependent radii
  Radius for C  used is    3.4960 Bohr (=   1.8500 Ang.)
  Radius for O  used is    4.0969 Bohr (=   2.1680 Ang.)
  Radius for F  used is    3.2692 Bohr (=   1.7300 Ang.)
  Radius for H  used is    2.2677 Bohr (=   1.2000 Ang.)
Calculating surface                               ...        done! (  0.0s)
Cavity surface points                             ...         2169
Cavity Volume                                     ...    2107.0748
Cavity Surface-area                               ...    1105.1592
Calculating surface distance matrix               ...        done! (  0.0s)
Performing Cholesky decomposition & store         ...        done! (  0.1s)
Overall time for CPCM initialization              ...                 0.2s

----------------------------------------D-I-I-S--------------------------------------------
Iteration    Energy (Eh)           Delta-E    RMSDP     MaxDP     DIISErr   Damp  Time(sec)
-------------------------------------------------------------------------------------------
               ***  Starting incremental Fock matrix formation  ***
    1    -1854.0130840856459145     0.00e+00  1.75e-04  1.35e-02  1.35e-01  0.850   8.1
Warning: op=1 Small HOMO/LUMO gap (   0.045) - skipping pre-diagonalization
         Will do a full diagonalization
    2    -1854.1294939311305825    -1.16e-01  1.66e-04  1.18e-02  8.96e-02  0.850   5.7
                               ***Turning on AO-DIIS***
    3    -1854.1905570535313927    -6.11e-02  7.60e-05  3.86e-03  4.97e-02  0.850   4.5
    4    -1854.2270192181008497    -3.65e-02  4.90e-05  2.93e-03  3.76e-02  0.850   4.4
    5    -1854.2529466317423612    -2.59e-02  4.05e-05  3.44e-03  3.24e-02  0.850   4.3
    6    -1854.2736028673566580    -2.07e-02  3.64e-05  3.61e-03  2.85e-02  0.850   4.3
    7    -1854.2909207923698887    -1.73e-02  2.24e-04  2.44e-02  2.44e-02  0.000   4.2
    8    -1854.3823933510843744    -9.15e-02  2.95e-05  3.47e-03  5.69e-03  0.000   4.6
    9    -1854.3824478879537310    -5.45e-05  1.28e-05  1.36e-03  5.33e-03  0.000   4.0
                              *** Initializing SOSCF ***
---------------------------------------S-O-S-C-F--------------------------------------
Iteration    Energy (Eh)           Delta-E    RMSDP     MaxDP     MaxGrad    Time(sec)
--------------------------------------------------------------------------------------
   10    -1854.3827148661825959    -2.67e-04  5.88e-06  7.24e-04  9.08e-04     4.2
               *** Restarting incremental Fock matrix formation ***
   11    -1854.3827308612058005    -1.60e-05  4.57e-06  3.93e-04  4.24e-04     7.5
   12    -1854.3827280015334509     2.86e-06  2.57e-06  2.69e-04  8.93e-04     4.8
   13    -1854.3827337257648651    -5.72e-06  8.64e-07  8.11e-05  2.58e-05     4.5
   14    -1854.3827337433172033    -1.76e-08  3.82e-07  2.82e-05  3.26e-05     4.1
   15    -1854.3827337898778751    -4.66e-08  2.41e-07  3.36e-05  9.01e-06     3.6
   16    -1854.3827337725610960     1.73e-08  1.15e-07  1.02e-05  1.14e-05     3.6
   17    -1854.3827337913012343    -1.87e-08  8.92e-08  1.04e-05  5.02e-07     3.5
                  *** Gradient check signals convergence ***

               *****************************************************
               *                     SUCCESS                       *
               *           SCF CONVERGED AFTER  17 CYCLES          *
               *****************************************************

Recomputing exchange energy using gridx3       ... done (    8.778 sec)
Old exchange energy                            :    -19.916366334 Eh
New exchange energy                            :    -19.916374278 Eh
Exchange energy change after final integration :     -0.000007944 Eh
Total energy after final integration           :  -1854.382741736 Eh

SMD CDS free energy correction energy :                 3.29080     Kcal/mol
Total Energy after SMD CDS correction =             -1854.377497512 Eh
             **** ENERGY FILE WAS UPDATED (rf_mecn_freq_TP_C7_P_B.en.tmp) ****

----------------
TOTAL SCF ENERGY
----------------

Total Energy       :      -1854.37749751246838 Eh          -50460.17705 eV

Components:
Nuclear Repulsion  :       2653.26483823828721 Eh           72199.00678 eV
Electronic Energy  :      -4507.63415164865091 Eh         -122658.96113 eV
One Electron Energy:      -7857.72909594346493 Eh         -213819.67908 eV
Two Electron Energy:       3350.09494429481401 Eh           91160.71796 eV
CPCM Dielectric    :         -0.01342038093714 Eh              -0.36519 eV
SMD CDS (Gcds)     :          0.00524422316013 Eh               0.14270 eV

Virial components:
Potential Energy   :      -3702.45227488644969 Eh         -100748.84837 eV
Kinetic Energy     :       1848.07477737398131 Eh           50288.67132 eV
Virial Ratio       :          2.00341042484625

DFT components:
N(Alpha)           :       95.999972386567 electrons
N(Beta)            :       94.999967033709 electrons
N(Total)           :      190.999939420276 electrons
E(X)               :     -180.980843094660 Eh       
E(C)               :       -6.719024331336 Eh       
E(XC)              :     -187.699867425997 Eh       

CPCM Solvation Model Properties:
Surface-charge          :         -0.00866797466860
Corrected charge        :          0.00000000000000
Outlying charge corr.   :          0.00000412606603 Eh               0.00011 eV
Free-energy (cav+disp)  :          0.00524422316013 Eh               0.14270 eV

---------------
SCF CONVERGENCE
---------------

  Last Energy change         ...    1.8740e-08  Tolerance :   1.0000e-08
  Last MAX-Density change    ...    1.0354e-05  Tolerance :   1.0000e-07
  Last RMS-Density change    ...    8.9216e-08  Tolerance :   5.0000e-09
  Last DIIS Error            ...    9.0764e-04  Tolerance :   5.0000e-07
  Last Orbital Gradient      ...    5.0224e-07  Tolerance :   1.0000e-05
  Last Orbital Rotation      ...    1.2899e-06  Tolerance :   1.0000e-05


----------------------
UHF SPIN CONTAMINATION
----------------------

Warning: in a DFT calculation there is little theoretical justification to 
         calculate <S**2> as in Hartree-Fock theory. We will do it anyways
         but you should keep in mind that the values have only limited relevance

Expectation value of <S**2>     :     0.755381
Ideal value S*(S+1) for S=0.5   :     0.750000
Deviation                       :     0.005381

----------------
ORBITAL ENERGIES
----------------
                 SPIN UP ORBITALS
  NO   OCC          E(Eh)            E(eV) 
   0   1.0000     -24.674262      -671.4208 
   1   1.0000     -24.660263      -671.0399 
   2   1.0000     -24.659548      -671.0204 
   3   1.0000     -24.659539      -671.0202 
   4   1.0000     -24.659508      -671.0193 
   5   1.0000     -24.659444      -671.0176 
   6   1.0000     -24.658873      -671.0020 
   7   1.0000     -24.656689      -670.9426 
   8   1.0000     -24.654854      -670.8927 
   9   1.0000     -24.654781      -670.8907 
  10   1.0000     -24.654410      -670.8806 
  11   1.0000     -24.651024      -670.7885 
  12   1.0000     -24.649448      -670.7456 
  13   1.0000     -24.649366      -670.7434 
  14   1.0000     -19.133365      -520.6453 
  15   1.0000     -19.079938      -519.1915 
  16   1.0000     -10.394048      -282.8364 
  17   1.0000     -10.344923      -281.4997 
  18   1.0000     -10.344619      -281.4914 
  19   1.0000     -10.341820      -281.4152 
  20   1.0000     -10.341526      -281.4072 
  21   1.0000     -10.332820      -281.1703 
  22   1.0000     -10.281015      -279.7606 
  23   1.0000     -10.267820      -279.4016 
  24   1.0000      -1.310664       -35.6650 
  25   1.0000      -1.302458       -35.4417 
  26   1.0000      -1.288646       -35.0658 
  27   1.0000      -1.277878       -34.7728 
  28   1.0000      -1.275404       -34.7055 
  29   1.0000      -1.270836       -34.5812 
  30   1.0000      -1.265951       -34.4483 
  31   1.0000      -1.235426       -33.6176 
  32   1.0000      -1.228191       -33.4208 
  33   1.0000      -1.225526       -33.3483 
  34   1.0000      -1.221840       -33.2479 
  35   1.0000      -1.219599       -33.1870 
  36   1.0000      -1.219346       -33.1801 
  37   1.0000      -1.215270       -33.0692 
  38   1.0000      -1.119382       -30.4599 
  39   1.0000      -1.035427       -28.1754 
  40   1.0000      -0.833798       -22.6888 
  41   1.0000      -0.817437       -22.2436 
  42   1.0000      -0.788671       -21.4608 
  43   1.0000      -0.752710       -20.4823 
  44   1.0000      -0.713447       -19.4139 
  45   1.0000      -0.672865       -18.3096 
  46   1.0000      -0.651736       -17.7346 
  47   1.0000      -0.642403       -17.4807 
  48   1.0000      -0.619106       -16.8467 
  49   1.0000      -0.615199       -16.7404 
  50   1.0000      -0.609938       -16.5973 
  51   1.0000      -0.603340       -16.4177 
  52   1.0000      -0.598874       -16.2962 
  53   1.0000      -0.595358       -16.2005 
  54   1.0000      -0.586938       -15.9714 
  55   1.0000      -0.584956       -15.9175 
  56   1.0000      -0.581517       -15.8239 
  57   1.0000      -0.569926       -15.5085 
  58   1.0000      -0.566071       -15.4036 
  59   1.0000      -0.559555       -15.2263 
  60   1.0000      -0.553528       -15.0623 
  61   1.0000      -0.546240       -14.8640 
  62   1.0000      -0.508291       -13.8313 
  63   1.0000      -0.497675       -13.5424 
  64   1.0000      -0.482336       -13.1250 
  65   1.0000      -0.482056       -13.1174 
  66   1.0000      -0.475637       -12.9427 
  67   1.0000      -0.472952       -12.8697 
  68   1.0000      -0.467963       -12.7339 
  69   1.0000      -0.465456       -12.6657 
  70   1.0000      -0.461703       -12.5636 
  71   1.0000      -0.460913       -12.5421 
  72   1.0000      -0.458436       -12.4747 
  73   1.0000      -0.455485       -12.3944 
  74   1.0000      -0.449982       -12.2446 
  75   1.0000      -0.446465       -12.1489 
  76   1.0000      -0.443514       -12.0686 
  77   1.0000      -0.440138       -11.9768 
  78   1.0000      -0.436869       -11.8878 
  79   1.0000      -0.432239       -11.7618 
  80   1.0000      -0.427139       -11.6230 
  81   1.0000      -0.425956       -11.5908 
  82   1.0000      -0.424323       -11.5464 
  83   1.0000      -0.420187       -11.4339 
  84   1.0000      -0.419379       -11.4119 
  85   1.0000      -0.416351       -11.3295 
  86   1.0000      -0.413733       -11.2582 
  87   1.0000      -0.410978       -11.1833 
  88   1.0000      -0.406764       -11.0686 
  89   1.0000      -0.403798       -10.9879 
  90   1.0000      -0.391362       -10.6495 
  91   1.0000      -0.367667       -10.0047 
  92   1.0000      -0.340359        -9.2617 
  93   1.0000      -0.334469        -9.1014 
  94   1.0000      -0.296338        -8.0638 
  95   1.0000      -0.260542        -7.0897 
  96   0.0000      -0.065553        -1.7838 
  97   0.0000      -0.013660        -0.3717 
  98   0.0000      -0.000295        -0.0080 
  99   0.0000       0.018598         0.5061 
 100   0.0000       0.036546         0.9945 
 101   0.0000       0.046789         1.2732 
 102   0.0000       0.073665         2.0045 
 103   0.0000       0.084590         2.3018 
 104   0.0000       0.100085         2.7235 
 105   0.0000       0.112177         3.0525 
 106   0.0000       0.113485         3.0881 

                 SPIN DOWN ORBITALS
  NO   OCC          E(Eh)            E(eV) 
   0   1.0000     -24.669729      -671.2974 
   1   1.0000     -24.660247      -671.0394 
   2   1.0000     -24.659554      -671.0206 
   3   1.0000     -24.659542      -671.0203 
   4   1.0000     -24.659477      -671.0185 
   5   1.0000     -24.659436      -671.0174 
   6   1.0000     -24.658870      -671.0020 
   7   1.0000     -24.656353      -670.9335 
   8   1.0000     -24.654342      -670.8788 
   9   1.0000     -24.654164      -670.8739 
  10   1.0000     -24.654126      -670.8729 
  11   1.0000     -24.651025      -670.7885 
  12   1.0000     -24.649447      -670.7455 
  13   1.0000     -24.647986      -670.7058 
  14   1.0000     -19.133364      -520.6453 
  15   1.0000     -19.079933      -519.1914 
  16   1.0000     -10.394777      -282.8563 
  17   1.0000     -10.345548      -281.5167 
  18   1.0000     -10.344813      -281.4967 
  19   1.0000     -10.341480      -281.4060 
  20   1.0000     -10.341187      -281.3980 
  21   1.0000     -10.332804      -281.1699 
  22   1.0000     -10.281010      -279.7605 
  23   1.0000     -10.252019      -278.9716 
  24   1.0000      -1.309203       -35.6252 
  25   1.0000      -1.302265       -35.4364 
  26   1.0000      -1.288105       -35.0511 
  27   1.0000      -1.277465       -34.7616 
  28   1.0000      -1.274246       -34.6740 
  29   1.0000      -1.270733       -34.5784 
  30   1.0000      -1.258706       -34.2511 
  31   1.0000      -1.235281       -33.6137 
  32   1.0000      -1.227890       -33.4126 
  33   1.0000      -1.224750       -33.3271 
  34   1.0000      -1.221672       -33.2434 
  35   1.0000      -1.218487       -33.1567 
  36   1.0000      -1.217326       -33.1251 
  37   1.0000      -1.215267       -33.0691 
  38   1.0000      -1.119377       -30.4598 
  39   1.0000      -1.035420       -28.1752 
  40   1.0000      -0.826299       -22.4847 
  41   1.0000      -0.810361       -22.0511 
  42   1.0000      -0.783226       -21.3127 
  43   1.0000      -0.750120       -20.4118 
  44   1.0000      -0.712193       -19.3798 
  45   1.0000      -0.669725       -18.2242 
  46   1.0000      -0.648011       -17.6333 
  47   1.0000      -0.642175       -17.4745 
  48   1.0000      -0.617672       -16.8077 
  49   1.0000      -0.613423       -16.6921 
  50   1.0000      -0.608317       -16.5531 
  51   1.0000      -0.601528       -16.3684 
  52   1.0000      -0.597833       -16.2679 
  53   1.0000      -0.590193       -16.0600 
  54   1.0000      -0.586550       -15.9608 
  55   1.0000      -0.583617       -15.8810 
  56   1.0000      -0.580855       -15.8059 
  57   1.0000      -0.569322       -15.4920 
  58   1.0000      -0.564999       -15.3744 
  59   1.0000      -0.558445       -15.1961 
  60   1.0000      -0.552721       -15.0403 
  61   1.0000      -0.546021       -14.8580 
  62   1.0000      -0.497671       -13.5423 
  63   1.0000      -0.482846       -13.1389 
  64   1.0000      -0.482102       -13.1187 
  65   1.0000      -0.478450       -13.0193 
  66   1.0000      -0.474216       -12.9041 
  67   1.0000      -0.471815       -12.8387 
  68   1.0000      -0.466108       -12.6834 
  69   1.0000      -0.463831       -12.6215 
  70   1.0000      -0.461150       -12.5485 
  71   1.0000      -0.460159       -12.5216 
  72   1.0000      -0.456377       -12.4186 
  73   1.0000      -0.454838       -12.3768 
  74   1.0000      -0.448663       -12.2087 
  75   1.0000      -0.446089       -12.1387 
  76   1.0000      -0.442465       -12.0401 
  77   1.0000      -0.438439       -11.9305 
  78   1.0000      -0.435032       -11.8378 
  79   1.0000      -0.431803       -11.7499 
  80   1.0000      -0.425890       -11.5891 
  81   1.0000      -0.424679       -11.5561 
  82   1.0000      -0.423518       -11.5245 
  83   1.0000      -0.419846       -11.4246 
  84   1.0000      -0.418816       -11.3966 
  85   1.0000      -0.415916       -11.3176 
  86   1.0000      -0.413473       -11.2512 
  87   1.0000      -0.410486       -11.1699 
  88   1.0000      -0.405693       -11.0395 
  89   1.0000      -0.402434       -10.9508 
  90   1.0000      -0.389467       -10.5979 
  91   1.0000      -0.366126        -9.9628 
  92   1.0000      -0.340275        -9.2594 
  93   1.0000      -0.332950        -9.0600 
  94   1.0000      -0.296140        -8.0584 
  95   0.0000      -0.135127        -3.6770 
  96   0.0000      -0.064810        -1.7636 
  97   0.0000      -0.010476        -0.2851 
  98   0.0000       0.004978         0.1354 
  99   0.0000       0.022785         0.6200 
 100   0.0000       0.037853         1.0300 
 101   0.0000       0.053384         1.4526 
 102   0.0000       0.078019         2.1230 
 103   0.0000       0.087757         2.3880 
 104   0.0000       0.101874         2.7721 
 105   0.0000       0.114476         3.1150 
*Only the first 10 virtual orbitals were printed.

                    ********************************
                    * MULLIKEN POPULATION ANALYSIS *
                    ********************************

--------------------------------------------
MULLIKEN ATOMIC CHARGES AND SPIN POPULATIONS
--------------------------------------------
   0 C :    0.223148    0.000221
   1 O :   -0.338782    0.000016
   2 O :   -0.287722    0.000171
   3 C :    0.376460    0.000480
   4 C :    0.270200    0.002274
   5 C :    0.286286    0.005441
   6 C :    0.273941    0.030804
   7 C :    0.343991   -0.016431
   8 C :    0.147208    0.852492
   9 C :    0.414397   -0.018352
  10 F :   -0.159636   -0.000004
  11 F :   -0.154346    0.000036
  12 F :   -0.153430   -0.000012
  13 F :   -0.153707    0.000065
  14 F :   -0.150031   -0.000172
  15 F :   -0.149177    0.000144
  16 F :   -0.152703   -0.000247
  17 F :   -0.154123   -0.000501
  18 F :   -0.154754    0.013535
  19 F :   -0.152640    0.005214
  20 F :   -0.122318    0.086845
  21 F :   -0.149846    0.026430
  22 F :   -0.141276    0.004156
  23 F :   -0.143605    0.007371
  24 H :    0.382465    0.000024
Sum of atomic charges         :    0.0000000
Sum of atomic spin populations:    1.0000000

-----------------------------------------------------
MULLIKEN REDUCED ORBITAL CHARGES AND SPIN POPULATIONS
-----------------------------------------------------
CHARGE
  0 C s       :     3.093225  s :     3.093225
      pz      :     0.777683  p :     2.390494
      px      :     0.848414
      py      :     0.764398
      dz2     :     0.043869  d :     0.269043
      dxz     :     0.033021
      dyz     :     0.072905
      dx2y2   :     0.059473
      dxy     :     0.059775
      f0      :     0.003556  f :     0.024090
      f+1     :     0.002108
      f-1     :     0.003259
      f+2     :     0.003937
      f-2     :     0.003645
      f+3     :     0.003001
      f-3     :     0.004584

  1 O s       :     3.773372  s :     3.773372
      pz      :     1.425184  p :     4.532105
      px      :     1.523073
      py      :     1.583847
      dz2     :     0.004299  d :     0.031480
      dxz     :     0.005174
      dyz     :     0.009590
      dx2y2   :     0.005300
      dxy     :     0.007118
      f0      :     0.000306  f :     0.001824
      f+1     :     0.000203
      f-1     :     0.000287
      f+2     :     0.000360
      f-2     :     0.000464
      f+3     :     0.000035
      f-3     :     0.000169

  2 O s       :     3.805220  s :     3.805220
      pz      :     1.592979  p :     4.450186
      px      :     1.519857
      py      :     1.337349
      dz2     :     0.003274  d :     0.030341
      dxz     :     0.002207
      dyz     :     0.007501
      dx2y2   :     0.009109
      dxy     :     0.008251
      f0      :     0.000227  f :     0.001975
      f+1     :     0.000083
      f-1     :     0.000282
      f+2     :     0.000196
      f-2     :     0.000259
      f+3     :     0.000356
      f-3     :     0.000572

  3 C s       :     3.037422  s :     3.037422
      pz      :     0.692407  p :     2.264314
      px      :     0.948473
      py      :     0.623434
      dz2     :     0.049587  d :     0.293724
      dxz     :     0.057050
      dyz     :     0.078310
      dx2y2   :     0.045756
      dxy     :     0.063020
      f0      :     0.006046  f :     0.028079
      f+1     :     0.004255
      f-1     :     0.003927
      f+2     :     0.004475
      f-2     :     0.002007
      f+3     :     0.005125
      f-3     :     0.002244

  4 C s       :     3.146610  s :     3.146610
      pz      :     0.649480  p :     2.251905
      px      :     0.944561
      py      :     0.657864
      dz2     :     0.050689  d :     0.302804
      dxz     :     0.064132
      dyz     :     0.080337
      dx2y2   :     0.045127
      dxy     :     0.062519
      f0      :     0.005026  f :     0.028481
      f+1     :     0.005160
      f-1     :     0.006034
      f+2     :     0.003331
      f-2     :     0.001532
      f+3     :     0.004960
      f-3     :     0.002438

  5 C s       :     3.128437  s :     3.128437
      pz      :     0.626819  p :     2.254305
      px      :     0.928648
      py      :     0.698838
      dz2     :     0.064548  d :     0.302529
      dxz     :     0.061987
      dyz     :     0.074300
      dx2y2   :     0.038689
      dxy     :     0.063006
      f0      :     0.003822  f :     0.028444
      f+1     :     0.004754
      f-1     :     0.008215
      f+2     :     0.002561
      f-2     :     0.002750
      f+3     :     0.003836
      f-3     :     0.002505

  6 C s       :     3.135420  s :     3.135420
      pz      :     0.590693  p :     2.257452
      px      :     0.944527
      py      :     0.722231
      dz2     :     0.078513  d :     0.304695
      dxz     :     0.065330
      dyz     :     0.060631
      dx2y2   :     0.037670
      dxy     :     0.062550
      f0      :     0.005173  f :     0.028492
      f+1     :     0.004465
      f-1     :     0.006066
      f+2     :     0.003431
      f-2     :     0.004576
      f+3     :     0.002657
      f-3     :     0.002123

  7 C s       :     3.047318  s :     3.047318
      pz      :     0.594335  p :     2.268296
      px      :     0.937598
      py      :     0.736363
      dz2     :     0.083216  d :     0.312367
      dxz     :     0.066508
      dyz     :     0.055662
      dx2y2   :     0.048833
      dxy     :     0.058148
      f0      :     0.006158  f :     0.028028
      f+1     :     0.003630
      f-1     :     0.004476
      f+2     :     0.004209
      f-2     :     0.005070
      f+3     :     0.002559
      f-3     :     0.001926

  8 C s       :     3.202970  s :     3.202970
      pz      :     0.660563  p :     2.477095
      px      :     0.884803
      py      :     0.931729
      dz2     :     0.039915  d :     0.154712
      dxz     :     0.049154
      dyz     :     0.028925
      dx2y2   :     0.016059
      dxy     :     0.020659
      f0      :     0.004442  f :     0.018015
      f+1     :     0.003344
      f-1     :     0.002713
      f+2     :     0.002405
      f-2     :     0.002456
      f+3     :     0.001270
      f-3     :     0.001384

  9 C s       :     3.002857  s :     3.002857
      pz      :     0.769377  p :     2.181036
      px      :     0.754037
      py      :     0.657622
      dz2     :     0.059842  d :     0.361937
      dxz     :     0.065658
      dyz     :     0.084991
      dx2y2   :     0.083438
      dxy     :     0.068009
      f0      :     0.007393  f :     0.039773
      f+1     :     0.003501
      f-1     :     0.005375
      f+2     :     0.002771
      f-2     :     0.007583
      f+3     :     0.004430
      f-3     :     0.008720

 10 F s       :     3.918373  s :     3.918373
      pz      :     1.888006  p :     5.224932
      px      :     1.903679
      py      :     1.433248
      dz2     :     0.002189  d :     0.015632
      dxz     :     0.000149
      dyz     :     0.003198
      dx2y2   :     0.006319
      dxy     :     0.003778
      f0      :     0.000056  f :     0.000698
      f+1     :     0.000012
      f-1     :     0.000144
      f+2     :     0.000095
      f-2     :     0.000005
      f+3     :     0.000150
      f-3     :     0.000235

 11 F s       :     3.915668  s :     3.915668
      pz      :     1.485639  p :     5.222092
      px      :     1.898364
      py      :     1.838090
      dz2     :     0.006723  d :     0.015864
      dxz     :     0.003538
      dyz     :     0.004426
      dx2y2   :     0.000605
      dxy     :     0.000572
      f0      :     0.000239  f :     0.000721
      f+1     :     0.000135
      f-1     :     0.000236
      f+2     :     0.000057
      f-2     :     0.000047
      f+3     :     0.000003
      f-3     :     0.000005

 12 F s       :     3.919060  s :     3.919060
      pz      :     1.876612  p :     5.217742
      px      :     1.898834
      py      :     1.442295
      dz2     :     0.002192  d :     0.015923
      dxz     :     0.000204
      dyz     :     0.003516
      dx2y2   :     0.006148
      dxy     :     0.003862
      f0      :     0.000064  f :     0.000705
      f+1     :     0.000012
      f-1     :     0.000136
      f+2     :     0.000112
      f-2     :     0.000013
      f+3     :     0.000152
      f-3     :     0.000216

 13 F s       :     3.918960  s :     3.918960
      pz      :     1.440483  p :     5.218111
      px      :     1.902085
      py      :     1.875543
      dz2     :     0.008121  d :     0.015931
      dxz     :     0.003784
      dyz     :     0.003552
      dx2y2   :     0.000286
      dxy     :     0.000187
      f0      :     0.000338  f :     0.000706
      f+1     :     0.000157
      f-1     :     0.000179
      f+2     :     0.000018
      f-2     :     0.000011
      f+3     :     0.000001
      f-3     :     0.000001

 14 F s       :     3.918593  s :     3.918593
      pz      :     1.811455  p :     5.214696
      px      :     1.898280
      py      :     1.504960
      dz2     :     0.002061  d :     0.016031
      dxz     :     0.000703
      dyz     :     0.005014
      dx2y2   :     0.004877
      dxy     :     0.003376
      f0      :     0.000080  f :     0.000712
      f+1     :     0.000004
      f-1     :     0.000123
      f+2     :     0.000185
      f-2     :     0.000060
      f+3     :     0.000114
      f-3     :     0.000145

 15 F s       :     3.918428  s :     3.918428
      pz      :     1.445701  p :     5.213966
      px      :     1.891123
      py      :     1.877142
      dz2     :     0.008067  d :     0.016069
      dxz     :     0.004008
      dyz     :     0.003432
      dx2y2   :     0.000271
      dxy     :     0.000290
      f0      :     0.000341  f :     0.000714
      f+1     :     0.000175
      f-1     :     0.000160
      f+2     :     0.000015
      f-2     :     0.000020
      f+3     :     0.000001
      f-3     :     0.000001

 16 F s       :     3.918853  s :     3.918853
      pz      :     1.695628  p :     5.217179
      px      :     1.900414
      py      :     1.621136
      dz2     :     0.002658  d :     0.015963
      dxz     :     0.001590
      dyz     :     0.006327
      dx2y2   :     0.002982
      dxy     :     0.002406
      f0      :     0.000079  f :     0.000709
      f+1     :     0.000013
      f-1     :     0.000196
      f+2     :     0.000199
      f-2     :     0.000103
      f+3     :     0.000056
      f-3     :     0.000062

 17 F s       :     3.920613  s :     3.920613
      pz      :     1.500923  p :     5.216881
      px      :     1.900722
      py      :     1.815236
      dz2     :     0.006352  d :     0.015926
      dxz     :     0.003194
      dyz     :     0.004890
      dx2y2   :     0.000695
      dxy     :     0.000795
      f0      :     0.000226  f :     0.000703
      f+1     :     0.000103
      f-1     :     0.000248
      f+2     :     0.000057
      f-2     :     0.000061
      f+3     :     0.000005
      f-3     :     0.000004

 18 F s       :     3.918831  s :     3.918831
      pz      :     1.574077  p :     5.219877
      px      :     1.899306
      py      :     1.746494
      dz2     :     0.004476  d :     0.015364
      dxz     :     0.002570
      dyz     :     0.005712
      dx2y2   :     0.001291
      dxy     :     0.001315
      f0      :     0.000126  f :     0.000683
      f+1     :     0.000064
      f-1     :     0.000256
      f+2     :     0.000112
      f-2     :     0.000093
      f+3     :     0.000017
      f-3     :     0.000016

 19 F s       :     3.920295  s :     3.920295
      pz      :     1.613361  p :     5.215956
      px      :     1.899983
      py      :     1.702611
      dz2     :     0.003695  d :     0.015691
      dxz     :     0.002193
      dyz     :     0.006199
      dx2y2   :     0.001839
      dxy     :     0.001766
      f0      :     0.000097  f :     0.000697
      f+1     :     0.000041
      f-1     :     0.000249
      f+2     :     0.000150
      f-2     :     0.000103
      f+3     :     0.000029
      f-3     :     0.000028

 20 F s       :     3.917170  s :     3.917170
      pz      :     1.522588  p :     5.186721
      px      :     1.864103
      py      :     1.800030
      dz2     :     0.006363  d :     0.017655
      dxz     :     0.004194
      dyz     :     0.005304
      dx2y2   :     0.000938
      dxy     :     0.000857
      f0      :     0.000212  f :     0.000772
      f+1     :     0.000164
      f-1     :     0.000225
      f+2     :     0.000079
      f-2     :     0.000078
      f+3     :     0.000007
      f-3     :     0.000006

 21 F s       :     3.911696  s :     3.911696
      pz      :     1.889122  p :     5.222124
      px      :     1.708428
      py      :     1.624575
      dz2     :     0.002224  d :     0.015306
      dxz     :     0.001544
      dyz     :     0.001918
      dx2y2   :     0.003326
      dxy     :     0.006294
      f0      :     0.000059  f :     0.000719
      f+1     :     0.000065
      f-1     :     0.000096
      f+2     :     0.000010
      f-2     :     0.000098
      f+3     :     0.000227
      f-3     :     0.000165

 22 F s       :     3.911262  s :     3.911262
      pz      :     1.877406  p :     5.213344
      px      :     1.747677
      py      :     1.588260
      dz2     :     0.002248  d :     0.015915
      dxz     :     0.001421
      dyz     :     0.002641
      dx2y2   :     0.003659
      dxy     :     0.005946
      f0      :     0.000072  f :     0.000755
      f+1     :     0.000052
      f-1     :     0.000099
      f+2     :     0.000031
      f-2     :     0.000118
      f+3     :     0.000235
      f-3     :     0.000149

 23 F s       :     3.913286  s :     3.913286
      pz      :     1.520395  p :     5.213760
      px      :     1.811300
      py      :     1.882065
      dz2     :     0.006038  d :     0.015814
      dxz     :     0.005418
      dyz     :     0.002731
      dx2y2   :     0.000782
      dxy     :     0.000846
      f0      :     0.000192  f :     0.000745
      f+1     :     0.000279
      f-1     :     0.000099
      f+2     :     0.000082
      f-2     :     0.000074
      f+3     :     0.000008
      f-3     :     0.000010

 24 H s       :     0.575828  s :     0.575828
      pz      :     0.013585  p :     0.041707
      px      :     0.016889
      py      :     0.011233


SPIN
  0 C s       :     0.000136  s :     0.000136
      pz      :     0.000044  p :     0.000070
      px      :    -0.000030
      py      :     0.000056
      dz2     :     0.000001  d :     0.000014
      dxz     :     0.000001
      dyz     :     0.000008
      dx2y2   :     0.000005
      dxy     :     0.000000
      f0      :    -0.000000  f :     0.000001
      f+1     :     0.000001
      f-1     :     0.000000
      f+2     :    -0.000000
      f-2     :     0.000000
      f+3     :     0.000000
      f-3     :     0.000000

  1 O s       :    -0.000003  s :    -0.000003
      pz      :     0.000038  p :     0.000018
      px      :    -0.000008
      py      :    -0.000011
      dz2     :     0.000000  d :     0.000001
      dxz     :     0.000000
      dyz     :     0.000000
      dx2y2   :     0.000000
      dxy     :     0.000000
      f0      :     0.000000  f :     0.000000
      f+1     :     0.000000
      f-1     :     0.000000
      f+2     :     0.000000
      f-2     :     0.000000
      f+3     :    -0.000000
      f-3     :     0.000000

  2 O s       :     0.000009  s :     0.000009
      pz      :     0.000169  p :     0.000163
      px      :    -0.000038
      py      :     0.000033
      dz2     :    -0.000000  d :    -0.000001
      dxz     :    -0.000000
      dyz     :    -0.000000
      dx2y2   :    -0.000000
      dxy     :     0.000000
      f0      :    -0.000000  f :    -0.000000
      f+1     :    -0.000000
      f-1     :    -0.000000
      f+2     :     0.000000
      f-2     :    -0.000000
      f+3     :     0.000000
      f-3     :     0.000000

  3 C s       :    -0.000140  s :    -0.000140
      pz      :     0.000048  p :     0.000545
      px      :     0.000387
      py      :     0.000110
      dz2     :     0.000001  d :     0.000074
      dxz     :     0.000004
      dyz     :     0.000000
      dx2y2   :     0.000057
      dxy     :     0.000011
      f0      :     0.000000  f :     0.000001
      f+1     :    -0.000000
      f-1     :    -0.000000
      f+2     :     0.000000
      f-2     :     0.000001
      f+3     :     0.000000
      f-3     :     0.000000

  4 C s       :    -0.000097  s :    -0.000097
      pz      :     0.000312  p :     0.002060
      px      :     0.000840
      py      :     0.000908
      dz2     :     0.000042  d :     0.000304
      dxz     :    -0.000001
      dyz     :     0.000012
      dx2y2   :     0.000206
      dxy     :     0.000045
      f0      :    -0.000001  f :     0.000007
      f+1     :    -0.000000
      f-1     :    -0.000001
      f+2     :     0.000001
      f-2     :     0.000004
      f+3     :     0.000004
      f-3     :    -0.000001

  5 C s       :    -0.001684  s :    -0.001684
      pz      :     0.000241  p :     0.006485
      px      :     0.002052
      py      :     0.004192
      dz2     :     0.000077  d :     0.000622
      dxz     :    -0.000009
      dyz     :     0.000000
      dx2y2   :     0.000532
      dxy     :     0.000022
      f0      :    -0.000003  f :     0.000017
      f+1     :     0.000000
      f-1     :     0.000001
      f+2     :     0.000000
      f-2     :    -0.000001
      f+3     :     0.000021
      f-3     :    -0.000001

  6 C s       :    -0.004308  s :    -0.004308
      pz      :     0.001996  p :     0.030855
      px      :     0.017004
      py      :     0.011855
      dz2     :     0.000635  d :     0.004256
      dxz     :     0.000193
      dyz     :     0.000047
      dx2y2   :     0.002527
      dxy     :     0.000854
      f0      :    -0.000011  f :     0.000000
      f+1     :     0.000009
      f-1     :    -0.000008
      f+2     :    -0.000005
      f-2     :    -0.000000
      f+3     :     0.000012
      f-3     :     0.000004

  7 C s       :    -0.002514  s :    -0.002514
      pz      :    -0.003471  p :    -0.035155
      px      :    -0.022469
      py      :    -0.009215
      dz2     :     0.001024  d :     0.020087
      dxz     :     0.000944
      dyz     :     0.000133
      dx2y2   :     0.015908
      dxy     :     0.002078
      f0      :     0.000046  f :     0.001152
      f+1     :     0.000029
      f-1     :     0.000135
      f+2     :     0.000003
      f-2     :     0.000024
      f+3     :     0.000899
      f-3     :     0.000017

  8 C s       :     0.056878  s :     0.056878
      pz      :     0.061991  p :     0.793921
      px      :     0.188583
      py      :     0.543347
      dz2     :     0.000848  d :     0.003930
      dxz     :     0.001145
      dyz     :     0.002404
      dx2y2   :     0.000475
      dxy     :    -0.000942
      f0      :    -0.000225  f :    -0.002237
      f+1     :    -0.000292
      f-1     :    -0.000409
      f+2     :    -0.000307
      f-2     :    -0.000185
      f+3     :    -0.000179
      f-3     :    -0.000640

  9 C s       :    -0.015376  s :    -0.015376
      pz      :    -0.013300  p :    -0.017879
      px      :    -0.012813
      py      :     0.008234
      dz2     :     0.002073  d :     0.013302
      dxz     :    -0.000646
      dyz     :     0.003956
      dx2y2   :     0.000828
      dxy     :     0.007092
      f0      :     0.000112  f :     0.001601
      f+1     :     0.000035
      f-1     :     0.000205
      f+2     :     0.000190
      f-2     :     0.000699
      f+3     :     0.000188
      f-3     :     0.000171

 10 F s       :     0.000014  s :     0.000014
      pz      :    -0.000001  p :    -0.000020
      px      :    -0.000006
      py      :    -0.000013
      dz2     :     0.000000  d :     0.000001
      dxz     :    -0.000000
      dyz     :     0.000000
      dx2y2   :     0.000000
      dxy     :     0.000001
      f0      :     0.000000  f :     0.000000
      f+1     :     0.000000
      f-1     :     0.000000
      f+2     :     0.000000
      f-2     :     0.000000
      f+3     :     0.000000
      f-3     :     0.000000

 11 F s       :     0.000003  s :     0.000003
      pz      :    -0.000015  p :     0.000032
      px      :     0.000034
      py      :     0.000014
      dz2     :     0.000000  d :     0.000001
      dxz     :     0.000001
      dyz     :     0.000000
      dx2y2   :     0.000000
      dxy     :    -0.000000
      f0      :    -0.000000  f :     0.000000
      f+1     :     0.000000
      f-1     :    -0.000000
      f+2     :    -0.000000
      f-2     :     0.000000
      f+3     :     0.000000
      f-3     :    -0.000000

 12 F s       :     0.000040  s :     0.000040
      pz      :     0.000007  p :    -0.000056
      px      :    -0.000020
      py      :    -0.000043
      dz2     :     0.000001  d :     0.000003
      dxz     :     0.000000
      dyz     :     0.000000
      dx2y2   :     0.000002
      dxy     :     0.000000
      f0      :    -0.000000  f :     0.000000
      f+1     :    -0.000000
      f-1     :     0.000000
      f+2     :     0.000000
      f-2     :     0.000000
      f+3     :     0.000000
      f-3     :     0.000000

 13 F s       :     0.000005  s :     0.000005
      pz      :    -0.000039  p :     0.000057
      px      :     0.000025
      py      :     0.000070
      dz2     :     0.000000  d :     0.000003
      dxz     :     0.000002
      dyz     :     0.000001
      dx2y2   :     0.000000
      dxy     :     0.000000
      f0      :    -0.000000  f :     0.000000
      f+1     :     0.000000
      f-1     :     0.000000
      f+2     :     0.000000
      f-2     :     0.000000
      f+3     :     0.000000
      f-3     :    -0.000000

 14 F s       :    -0.000015  s :    -0.000015
      pz      :     0.000026  p :    -0.000168
      px      :    -0.000040
      py      :    -0.000153
      dz2     :     0.000001  d :     0.000011
      dxz     :     0.000000
      dyz     :     0.000000
      dx2y2   :     0.000007
      dxy     :     0.000002
      f0      :    -0.000000  f :     0.000000
      f+1     :     0.000000
[...]
 11:     56.49   0.000396    2.00  0.002189  (-0.034476  0.012064 -0.029241)
 12:     58.07   0.000018    0.09  0.000098  (-0.003106  0.000477 -0.009395)
 13:     68.22   0.000217    1.09  0.000991  (-0.028140 -0.013681 -0.003390)
 14:     92.96   0.000024    0.12  0.000080  ( 0.001294  0.001066  0.008791)
 15:    124.61   0.000199    1.01  0.000499  ( 0.012090 -0.013282 -0.013270)
 16:    142.67   0.000423    2.14  0.000926  (-0.026971 -0.005081 -0.013138)
 17:    160.27   0.000611    3.09  0.001189  (-0.013183  0.007700  0.030921)
 18:    182.04   0.000028    0.14  0.000048  (-0.001100  0.006803  0.000581)
 19:    189.44   0.001654    8.36  0.002725  ( 0.008043 -0.020206 -0.047454)
 20:    202.24   0.000592    2.99  0.000913  ( 0.027751  0.010644  0.005445)
 21:    216.33   0.000257    1.30  0.000370  (-0.017545  0.007529 -0.002373)
 22:    236.06   0.000026    0.13  0.000034  ( 0.000081  0.005013 -0.003026)
 23:    237.83   0.000141    0.71  0.000185  ( 0.012972 -0.001943 -0.003656)
 24:    253.33   0.000344    1.74  0.000424  ( 0.015438  0.010576 -0.008564)
 25:    262.22   0.000404    2.04  0.000481  (-0.020972  0.003143 -0.005620)
 26:    296.61   0.000358    1.81  0.000377  ( 0.016681 -0.008642 -0.004856)
 27:    303.61   0.000031    0.16  0.000032  (-0.003937  0.003300 -0.002292)
 28:    315.95   0.000088    0.45  0.000087  (-0.003373  0.006511  0.005799)
 29:    341.15   0.000209    1.05  0.000191  ( 0.008916  0.007336  0.007588)
 30:    345.29   0.000154    0.78  0.000139  ( 0.003260 -0.005242 -0.010048)
 31:    355.11   0.000223    1.13  0.000196  ( 0.013923  0.001212 -0.001019)
 32:    365.96   0.000599    3.03  0.000511  (-0.018643 -0.012771 -0.000360)
 33:    367.64   0.000352    1.78  0.000299  (-0.014655 -0.008778 -0.002681)
 34:    397.96   0.000652    3.30  0.000511  (-0.022418 -0.002066 -0.002161)
 35:    418.75   0.002257   11.41  0.001682  ( 0.039300 -0.011730  0.000085)
 36:    459.19   0.001735    8.77  0.001179  ( 0.020136 -0.020966 -0.018274)
 37:    496.09   0.000281    1.42  0.000177  ( 0.007388 -0.009648  0.005383)
 38:    509.02   0.008730   44.12  0.005352  (-0.069714  0.000419  0.022176)
 39:    538.71   0.004663   23.56  0.002701  (-0.049710  0.001353  0.015103)
 40:    545.68   0.001885    9.52  0.001078  (-0.029013  0.015037 -0.003134)
 41:    554.68   0.009724   49.14  0.005470  ( 0.001952  0.055849 -0.048451)
 42:    570.14   0.006024   30.44  0.003297  (-0.049336  0.008599  0.028091)
 43:    581.76   0.004954   25.04  0.002658  ( 0.036452 -0.010561  0.034891)
 44:    599.31   0.003687   18.63  0.001920  (-0.024534  0.006377 -0.035737)
 45:    617.64   0.012382   62.57  0.006256  ( 0.065289  0.002658 -0.044565)
 46:    632.37   0.064048  323.67  0.031607  ( 0.167243 -0.045861  0.039156)
 47:    661.45   0.001456    7.36  0.000687  ( 0.005638 -0.010573  0.023312)
 48:    686.79   0.010171   51.40  0.004622  (-0.054197 -0.008876 -0.040069)
 49:    706.15   0.001745    8.82  0.000771  (-0.021243 -0.008243  0.015873)
 50:    737.18   0.001333    6.74  0.000564  (-0.019769 -0.012381 -0.004499)
 51:    767.73   0.010091   50.99  0.004102  (-0.034254 -0.018920  0.050697)
 52:    866.75   0.003675   18.57  0.001323  (-0.027585  0.019242 -0.013857)
 53:    989.07   0.021991  111.13  0.006938  (-0.066899  0.024185 -0.043336)
 54:   1050.42   0.015434   78.00  0.004585  (-0.040843 -0.046322 -0.027774)
 55:   1067.74   0.092979  469.88  0.027175  (-0.063716 -0.147518  0.036789)
 56:   1113.00   0.025713  129.94  0.007209  (-0.037280  0.065253 -0.039519)
 57:   1115.17   0.064307  324.98  0.017995  ( 0.001690  0.127050 -0.043022)
 58:   1122.68   0.043963  222.17  0.012220  ( 0.016346  0.042091 -0.100902)
 59:   1129.93   0.007231   36.54  0.001997  ( 0.001210  0.042935  0.012331)
 60:   1134.98   0.027626  139.61  0.007596  ( 0.001296  0.072261 -0.048708)
 61:   1138.98   0.036927  186.62  0.010118  (-0.025444  0.063284  0.073927)
 62:   1144.29   0.093714  473.59  0.025557  (-0.041440 -0.074091 -0.135463)
 63:   1152.04   0.203602  1028.92  0.055152  (-0.040536  0.100732  0.208234)
 64:   1155.29   0.046084  232.89  0.012448  (-0.024100  0.082138  0.071559)
 65:   1176.36   0.012637   63.86  0.003352  ( 0.031117 -0.016848 -0.045827)
 66:   1199.77   0.001575    7.96  0.000410  ( 0.005353  0.016377 -0.010624)
 67:   1205.11   0.009283   46.91  0.002404  ( 0.034152 -0.010365  0.033616)
 68:   1255.68   0.001291    6.52  0.000321  ( 0.001668  0.015631  0.008586)
 69:   1285.42   0.001205    6.09  0.000293  (-0.006936 -0.013702 -0.007534)
 70:   1323.04   0.042487  214.71  0.010021  (-0.069717  0.051928 -0.049643)
 71:   1390.11   0.030448  153.87  0.006835  (-0.067267  0.031603  0.036215)
 72:   1403.17   0.007700   38.91  0.001713  (-0.039426  0.005791  0.011161)
 73:   1808.24   0.091812  463.98  0.015845  ( 0.037998  0.109000  0.050201)
 74:   3605.56   0.048350  244.34  0.004185  (-0.046737 -0.004274  0.044521)

* The epsilon (eps) is given for a Dirac delta lineshape.
** The dipole moment derivative (T) already includes vibrational overlap.

The first frequency considered to be a vibration is 6
The total number of vibrations considered is 69


--------------------------
THERMOCHEMISTRY AT 298.15K
--------------------------

Temperature         ...   298.15 K
Pressure            ...     1.00 atm
Total Mass          ...   395.07 AMU
Quasi RRHO          ...     True
Cut-Off Frequency   ...     1.00 cm^-1

Throughout the following assumptions are being made:
  (1) The electronic state is orbitally nondegenerate
      but the spin degeneracy is treated
  (2) There are no thermally accessible electronically excited states
  (3) Hindered rotations indicated by low frequency modes are not
      treated as such but are treated as vibrations and this may
      cause some error
  (4) All equations used are the standard statistical mechanics
      equations for an ideal gas
  (5) All vibrations are strictly harmonic

freq.      14.55  E(vib)   ...       0.57 
freq.      23.78  E(vib)   ...       0.56 
freq.      26.22  E(vib)   ...       0.56 
freq.      38.92  E(vib)   ...       0.54 
freq.      42.01  E(vib)   ...       0.53 
freq.      56.49  E(vib)   ...       0.52 
freq.      58.07  E(vib)   ...       0.51 
freq.      68.22  E(vib)   ...       0.50 
freq.      92.96  E(vib)   ...       0.47 
freq.     124.61  E(vib)   ...       0.43 
freq.     142.67  E(vib)   ...       0.41 
freq.     160.27  E(vib)   ...       0.39 
freq.     182.04  E(vib)   ...       0.37 
freq.     189.44  E(vib)   ...       0.36 
freq.     202.24  E(vib)   ...       0.35 
freq.     216.33  E(vib)   ...       0.34 
freq.     236.06  E(vib)   ...       0.32 
freq.     237.83  E(vib)   ...       0.32 
freq.     253.33  E(vib)   ...       0.30 
freq.     262.22  E(vib)   ...       0.29 
freq.     296.61  E(vib)   ...       0.27 
freq.     303.61  E(vib)   ...       0.26 
freq.     315.95  E(vib)   ...       0.25 
freq.     341.15  E(vib)   ...       0.23 
freq.     345.29  E(vib)   ...       0.23 
freq.     355.11  E(vib)   ...       0.22 
freq.     365.96  E(vib)   ...       0.22 
freq.     367.64  E(vib)   ...       0.21 
freq.     397.96  E(vib)   ...       0.20 
freq.     418.75  E(vib)   ...       0.18 
freq.     459.19  E(vib)   ...       0.16 
freq.     496.09  E(vib)   ...       0.14 
freq.     509.02  E(vib)   ...       0.14 
freq.     538.71  E(vib)   ...       0.12 
freq.     545.68  E(vib)   ...       0.12 
freq.     554.68  E(vib)   ...       0.12 
freq.     570.14  E(vib)   ...       0.11 
freq.     581.76  E(vib)   ...       0.11 
freq.     599.31  E(vib)   ...       0.10 
freq.     617.64  E(vib)   ...       0.09 
freq.     632.37  E(vib)   ...       0.09 
freq.     661.45  E(vib)   ...       0.08 
freq.     686.79  E(vib)   ...       0.07 
freq.     706.15  E(vib)   ...       0.07 
freq.     737.18  E(vib)   ...       0.06 
freq.     767.73  E(vib)   ...       0.06 
freq.     866.75  E(vib)   ...       0.04 
freq.     989.07  E(vib)   ...       0.02 
freq.    1050.42  E(vib)   ...       0.02 
freq.    1067.74  E(vib)   ...       0.02 
freq.    1113.00  E(vib)   ...       0.01 
freq.    1115.17  E(vib)   ...       0.01 
freq.    1122.68  E(vib)   ...       0.01 
freq.    1129.93  E(vib)   ...       0.01 
freq.    1134.98  E(vib)   ...       0.01 
freq.    1138.98  E(vib)   ...       0.01 
freq.    1144.29  E(vib)   ...       0.01 
freq.    1152.04  E(vib)   ...       0.01 
freq.    1155.29  E(vib)   ...       0.01 
freq.    1176.36  E(vib)   ...       0.01 
freq.    1199.77  E(vib)   ...       0.01 
freq.    1205.11  E(vib)   ...       0.01 
freq.    1255.68  E(vib)   ...       0.01 
freq.    1285.42  E(vib)   ...       0.01 
freq.    1323.04  E(vib)   ...       0.01 
freq.    1390.11  E(vib)   ...       0.00 
freq.    1403.17  E(vib)   ...       0.00 
freq.    1808.24  E(vib)   ...       0.00 
freq.    3605.56  E(vib)   ...       0.00 

------------
INNER ENERGY
------------

The inner energy is: U= E(el) + E(ZPE) + E(vib) + E(rot) + E(trans)
    E(el)   - is the total energy from the electronic structure calculation
              = E(kin-el) + E(nuc-el) + E(el-el) + E(nuc-nuc)
    E(ZPE)  - the the zero temperature vibrational energy from the frequency calculation
    E(vib)  - the the finite temperature correction to E(ZPE) due to population
              of excited vibrational states
    E(rot)  - is the rotational thermal energy
    E(trans)- is the translational thermal energy

Summary of contributions to the inner energy U:
Electronic energy                ...  -1854.40719867 Eh
Zero point energy                ...      0.10395953 Eh      65.24 kcal/mol
Thermal vibrational correction   ...      0.02047924 Eh      12.85 kcal/mol
Thermal rotational correction    ...      0.00141627 Eh       0.89 kcal/mol
Thermal translational correction ...      0.00141627 Eh       0.89 kcal/mol
-----------------------------------------------------------------------
Total thermal energy                  -1854.27992735 Eh


Summary of corrections to the electronic energy:
(perhaps to be used in another calculation)
Total thermal correction                  0.02331178 Eh      14.63 kcal/mol
Non-thermal (ZPE) correction              0.10395953 Eh      65.24 kcal/mol
-----------------------------------------------------------------------
Total correction                          0.12727131 Eh      79.86 kcal/mol


--------
ENTHALPY
--------

The enthalpy is H = U + kB*T
                kB is Boltzmann's constant
Total thermal energy              ...  -1854.27992735 Eh 
Thermal Enthalpy correction       ...      0.00094421 Eh       0.59 kcal/mol
-----------------------------------------------------------------------
Total Enthalpy                    ...  -1854.27898314 Eh


Note: Only C1 symmetry has been detected, increase convergence thresholds 
      if your molecule has a higher symmetry. Symmetry factor of 1.0 is   
      used for the rotational entropy correction. 
 

Note: Rotational entropy computed according to Herzberg 
Infrared and Raman Spectra, Chapter V,1, Van Nostrand Reinhold, 1945 
Point Group:  C1, Symmetry Number:   1  
Rotational constants in cm-1:     0.020561     0.004032     0.003960 

Vibrational entropy computed according to the QRRHO of S. Grimme
Chem.Eur.J. 2012 18 9955 using a reference frequency of 100.0 cm-1


-------
ENTROPY
-------

The entropy contributions are T*S = T*(S(el)+S(vib)+S(rot)+S(trans))
     S(el)   - electronic entropy
     S(vib)  - vibrational entropy
     S(rot)  - rotational entropy
     S(trans)- translational entropy
The entropies will be listed as multiplied by the temperature to get
units of energy

Electronic entropy                ...      0.00065446 Eh      0.41 kcal/mol
Vibrational entropy               ...      0.03740688 Eh     23.47 kcal/mol
Rotational entropy                ...      0.01655878 Eh     10.39 kcal/mol
Translational entropy             ...      0.02081703 Eh     13.06 kcal/mol
-----------------------------------------------------------------------
Final entropy term                ...      0.07543715 Eh     47.34 kcal/mol

In case the symmetry of your molecule has not been determined correctly
or in case you have a reason to use a different symmetry number we print 
out the resulting rotational entropy values for sn=1,12:

 non-linear molecules -----------------------------------
|  sn= 1 | S(rot)=       0.01655878 Eh     10.39 kcal/mol|
|  sn= 2 | S(rot)=       0.01590432 Eh      9.98 kcal/mol|
|  sn= 3 | S(rot)=       0.01552149 Eh      9.74 kcal/mol|
|  sn= 4 | S(rot)=       0.01524986 Eh      9.57 kcal/mol|
|  sn= 5 | S(rot)=       0.01503918 Eh      9.44 kcal/mol|
|  sn= 6 | S(rot)=       0.01486703 Eh      9.33 kcal/mol|
|  sn= 7 | S(rot)=       0.01472149 Eh      9.24 kcal/mol|
|  sn= 8 | S(rot)=       0.01459541 Eh      9.16 kcal/mol|
|  sn= 9 | S(rot)=       0.01448420 Eh      9.09 kcal/mol|
|  sn=10 | S(rot)=       0.01438472 Eh      9.03 kcal/mol|
|  sn=11 | S(rot)=       0.01429473 Eh      8.97 kcal/mol|
|  sn=12 | S(rot)=       0.01421258 Eh      8.92 kcal/mol|
 linear molecules ---------------------------------------
|  Dinfh | S(rot)=       0.01054852 Eh      6.62 kcal/mol|
|  Cinfv | S(rot)=       0.01120297 Eh      7.03 kcal/mol|
 --------------------------------------------------------


-------------------
GIBBS FREE ENERGY
-------------------

The Gibbs free energy is G = H - T*S

Total enthalpy                    ...  -1854.27898314 Eh 
Total entropy correction          ...     -0.07543715 Eh    -47.34 kcal/mol
-----------------------------------------------------------------------
Final Gibbs free energy         ...  -1854.35442029 Eh

For completeness - the Gibbs free energy minus the electronic energy
G-E(el)                           ...      0.05277838 Eh     33.12 kcal/mol


Maximum memory used throughout the entire PROP-calculation: 545.5 MB

--------------------------------
SUGGESTED CITATIONS FOR THIS RUN
--------------------------------

Below you find a list of papers that are relevant to this ORCA run
We neither can nor want to force you to cite these papers, but we appreciate if you do
You receive ORCA, which is the product of decades of hard work by many enthusiastic individuals, for free
The only thing we kindly ask in return is that you cite our papers,
We deeply appreciate it, if you show your appreciation for ORCA by not just citing the generic ORCA reference.

Please note that relegating all ORCA citations to the supporting information does *not* help us.
SI sections are not indexed - citations you put there will not count into any citation statistics
But we need these citations in order to attract the funding resources that allow us to do what we are doing

Therefore, if you are a happy ORCA user, please consider citing a few of the papers listed below in the main body of your paper

In addition to the list printed below, the program has created the file rf_mecn_freq_TP_C7_P_B.bibtex that contains the list in bibtex format
You can import this file easily into all common literature databanks and citation aid programs


List of essential papers. We consider these as the minimum necessary citations

  1. Neese,F.
     Software update: the ORCA program system, version 5.0
     WIRES Comput. Molec. Sci., 2022 12(1)e1606
     doi.org/10.1002/wcms.1606

List of papers to cite with high priority. The work reported in these papers was absolutely
necessary for this run to complete.
Our perspective: the developers of density functionals and basis sets usually get cited in chemistry papers
Good! But without the algorithms to do something with them, the functionals or basis sets would not do anything.
Hence, in our opinion, the algorithm design and method developments papers are equally worthy of getting cited

  1. Neese,F.
     An improvement of the resolution of the identity approximation for the formation of the Coulomb matrix
     J. Comp. Chem., 2003 24(14)1740-1747
     doi.org/10.1002/jcc.10318
  2. Neese,F.; Wennmohs,F.; Hansen,A.; Becker,U.
     Efficient, approximate and parallel Hartree-Fock and hybrid DFT calculations. A 'chain-of-spheres' algorithm for the Hartree-Fock exchange
     Chem. Phys., 2009 356(1-3)98-109
     doi.org/10.1016/j.chemphys.2008.10.036
  3. Bykov,D.; Petrenko,T.; Izsak,R.; Kossmann,S.; Becker,U.; Valeev,E.; Neese,F.
     Efficient implementation of the analytic second derivatives of Hartree-Fock and hybrid DFT energies: a detailed analysis of different approximations
     Molec. Phys., 2015 113 1961-1977
     doi.org/10.1080/00268976.2015.1025114
  4. Garcia-Rates,M.; Neese,F.
     Efficient implementation of the analytical second derivatives of hartree-fock and hybrid DFT energies within the framework of the conductor-like polarizable continuum model
     J. Comput. Chem., 2019 40 1816-1828
     doi.org/10.1002/jcc.25833
  5. Garcia-Rates,M.; Neese,F.
     Effect of the Solute Cavity on the Solvation Energy and its Derivatives within the Framework of the Gaussian Charge Scheme
     J. Comput. Chem., 2020 41 922-939
     doi.org/10.1002/jcc.26139
  6. Helmich-Paris,B.; de Souza,B.; Neese,F.; Izsák,R.
     An improved chain of spheres for exchange algorithm
     J. Chem. Phys., 2021 155 104109
     doi.org/doi: 10.1063/5.0058766.
  7. Neese,F.
     The SHARK Integral Generation and Digestion System
     J. Comp. Chem., 2022  1-16
     doi.org/10.1002/jcc.26942
  8. Grimme,S.; Antony,J.; Ehrlich,S.; Krieg,H.
     A consistent and accurate ab initio parametrization of density functional dispersion correction (DFT-D) for the 94 elements H-Pu
     J. Chem. Phys., 2010 132 154104
     doi.org/10.1063/1.3382344
  9. Grimme,S.; Ehrlich,S.; Goerigk,L.
     Effect of the damping function in dispersion corrected density functional theory
     J. Comput. Chem., 2011 32(7)1456-1465
     doi.org/10.1002/jcc.21759

List of suggested additional citations. These are papers that are important in the 'surrounding' of 
of this run, or papers that preceded the highly important papers. If you like your results we are grateful for a citation.

  1. Izsak,R.; Neese,F.
     An overlap fitted chain of spheres exchange method
     J. Chem. Phys., 2011 135 144105
     doi.org/10.1063/1.3646921
  2. Izsak,R.; Hansen,A.; Neese,F.
     The resolution of identity and chain of spheres approximations for the LPNO-CCSD singles Fock term
     Molec. Phys., 2012 110 2413-2417
     doi.org/10.1080/00268976.2012.687466
  3. Neese,F.
     The ORCA program system
     WIRES Comput. Molec. Sci., 2012 2(1)73-78
     doi.org/10.1002/wcms.81
  4. Izsak,R.; Neese,F.; Klopper,W.
     Robust fitting techniques in the chain of spheres approximation to the Fock exchange: The role of the complementary space
     J. Chem. Phys., 2013 139 
     doi.org/10.1063/1.4819264
  5. Neese,F.
     Software update: the ORCA program system, version 4.0
     WIRES Comput. Molec. Sci., 2018 8(1)1-6
     doi.org/10.1002/wcms.1327
  6. Neese,F.; Wennmohs,F.; Becker,U.; Riplinger,C.
     The ORCA quantum chemistry program package
     J. Chem. Phys., 2020 152 Art. No. L224108
     doi.org/10.1063/5.0004608

List of optional additional citations

  1. Neese,F.
     Approximate second-order SCF convergence for spin unrestricted wavefunctions
     Chem. Phys. Lett., 2000 325(1-3)93-98
     doi.org/10.1016/s0009-2614(00)00662-x

Timings for individual modules:

Sum of individual times          ...     1434.218 sec (=  23.904 min)
Startup calculation              ...        4.332 sec (=   0.072 min)   0.3 %
SCF iterations                   ...       94.637 sec (=   1.577 min)   6.6 %
Property integrals               ...      446.181 sec (=   7.436 min)  31.1 %
SCF Response                     ...      629.333 sec (=  10.489 min)  43.9 %
Property calculations            ...      259.735 sec (=   4.329 min)  18.1 %
                             ****ORCA TERMINATED NORMALLY****
TOTAL RUN TIME: 0 days 0 hours 23 minutes 55 seconds 45 msec
