
                                 *****************
                                 * O   R   C   A *
                                 *****************

                                            #,                                       
                                            ###                                      
                                            ####                                     
                                            #####                                    
                                            ######                                   
                                           ########,                                 
                                     ,,################,,,,,                         
                               ,,#################################,,                 
                          ,,##########################################,,             
                       ,#########################################, ''#####,          
                    ,#############################################,,   '####,        
                  ,##################################################,,,,####,       
                ,###########''''           ''''###############################       
              ,#####''   ,,,,##########,,,,          '''####'''          '####       
            ,##' ,,,,###########################,,,                        '##       
           ' ,,###''''                  '''############,,,                           
         ,,##''                                '''############,,,,        ,,,,,,###''
      ,#''                                            '''#######################'''  
     '                                                          ''''####''''         
             ,#######,   #######,   ,#######,      ##                                
            ,#'     '#,  ##    ##  ,#'     '#,    #''#        ,####,   ,####,        
            ##       ##  ##   ,#'  ##            #'  '#       #'       #'  '#        
            ##       ##  #######   ##           ,######,      #####,   #    #        
            '#,     ,#'  ##    ##  '#,     ,#' ,#      #,     #,   #   #,  ,#        
             '#######'   ##     ##  '#######'  #'      '#     '####' # '####'        



                #########################################################
                #                        -***-                          #
                #          Department of theory and spectroscopy        #
                #                                                       #
                #                      Frank Neese                      #
                #                                                       #
                #     Directorship, Architecture, Infrastructure        #
                #                    SHARK, DRIVERS                     #
                #        Core code/Algorithms in most modules           #
                #                                                       #
                #        Max Planck Institute fuer Kohlenforschung      #
                #                Kaiser Wilhelm Platz 1                 #
                #                 D-45470 Muelheim/Ruhr                 #
                #                      Germany                          #
                #                                                       #
                #                  All rights reserved                  #
                #                        -***-                          #
                #########################################################


                         Program Version 6.0.1  -  RELEASE   -


 With contributions from (in alphabetic order):
[Max-Planck-Institut fuer Kohlenforschung]                               
  Daniel Aravena         : Magnetic Suceptibility                        
  Michael Atanasov       : Ab Initio Ligand Field Theory (pilot matlab implementation)
  Alexander A. Auer      : GIAO ZORA, VPT2 properties, NMR spectrum      
  Ute Becker             : All parallelization in ORCA, NUMFREQ, NUMCALC 
  Giovanni Bistoni       : ED, misc. LED, open-shell LED, HFLD           
  Martin Brehm           : Molecular dynamics                            
  Dmytro Bykov           : pre 5.0 version of the SCF Hessian            
  Marcos Casanova-Páez   : Triplet and SCS-CIS(D). UHF-(DLPNO)-IP/EA/STEOM-CCSD. UHF-CVS-IP/STEOM-CCSD   
  Vijay G. Chilkuri      : MRCI spin determinant printing, contributions to CSF-ICE 
  Pauline Colinet        : FMM embedding                                 
  Dipayan Datta          : RHF DLPNO-CCSD density                        
  Achintya Kumar Dutta   : EOM-CC, STEOM-CC                              
  Nicolas Foglia         : Exact transition moments, OPA infrastructure, MCD improvements    
  Dmitry Ganyushin       : Spin-Orbit,Spin-Spin,Magnetic field MRCI      
  Miquel Garcia-Rates    : C-PCM and meta-GGA Hessian, CCSD/C-PCM, Gaussian charge scheme 
  Tiago L. C. Gouveia    : GS-ROHF, GS-ROCIS                             
  Yang Guo               : DLPNO-NEVPT2, F12-NEVPT2, CIM, IAO-localization        
  Andreas Hansen         : Spin unrestricted coupled pair/coupled cluster methods 
  Ingolf Harden          : AUTO-CI MPn and infrastructure                
  Benjamin Helmich-Paris : MC-RPA, TRAH-(SCF,CASSCF), AVAS, COSX integrals, SCF dyn. polar. 
  Lee Huntington         : MR-EOM, pCC                                   
  Robert Izsak           : Overlap fitted RIJCOSX, COSX-SCS-MP3, EOM     
  Riya Kayal             : Wick's Theorem for AUTO-CI, AUTO-CI UHF-CCSDT 
  Emily Kempfer          : AUTO-CI, RHF CISDT and CCSDT                  
  Christian Kollmar      : KDIIS, OOCD, Brueckner-CCSD(T), CCSD density, CASPT2, CASPT2-K, improved NEVPT2 
  Axel Koslowski         : Symmetry handling                             
  Simone Kossmann        : meta-GGA functionals, TD-DFT gradient, OOMP2, (MP2 Hessian; deprecated post 5.0) 
  Lucas Lang             : DCDCAS                                        
  Marvin Lechner         : AUTO-CI (C++ implementation), FIC-MRCC        
  Spencer Leger          : CASSCF response                               
  Dagmar Lenk            : GEPOL surface, SMD, ORCA-2-JSON               
  Dimitrios Liakos       : Extrapolation schemes; Compound Job, initial MDCI parallelization 
  Dimitrios Manganas     : Further ROCIS development; embedding schemes. LFT, Crystal Embedding 
  Dimitrios Pantazis     : SARC Basis sets                               
  Anastasios Papadopoulos: AUTO-CI, single reference methods and gradients 
  Taras Petrenko         : pre 6.0 DFT Hessian and TD-DFT gradient, (ASA, deprecated), ECA, 1-Electron XAS/XES, NRVS 
  Peter Pinski           : DLPNO-MP2, DLPNO-MP2 Gradient                 
  Christoph Reimann      : Effective Core Potentials                     
  Marius Retegan         : Local ZFS, SOC                                
  Christoph Riplinger    : Optimizer, TS searches, QM/MM, DLPNO-CCSD(T), (RO)-DLPNO pert. Triples 
  Michael Roemelt        : Original ROCIS implementation                 
  Masaaki Saitow         : Open-shell DLPNO-CCSD energy and density      
  Barbara Sandhoefer     : DKH picture change effects                    
  Kantharuban Sivalingam : CASSCF convergence/infrastructure, NEVPT2 and variants, FIC-MRCI 
  Bernardo de Souza      : ESD, SOC TD-DFT                               
  Georgi L. Stoychev     : AutoAux, RI-MP2 NMR, DLPNO-MP2 response, X2C  
  Van Anh Tran           : RI-MP2 g-tensors                              
  Willem Van den Heuvel  : Paramagnetic NMR                              
  Zikuan Wang            : NOTCH, Electric field optimization            
  Frank Wennmohs         : Technical directorship and infrastructure     
  Hang Xu                : AUTO-CI-Response properties                   
                                                                         
[FACCTs GmbH]                                                            
  Markus Bursch, Miquel Garcia-Rates, Christoph Riplinger, Bernardo de Souza, Georgi L. Stoychev 
                                                                 
  APM, Basis sets (HGBS, AHGBS, def-TZVP (Ac-Lr), def2-XVPD (La-Lu)), CI-OPT, improved COSX, DLPNO-Multilevel,           
  DOCKER, DRACO, updates on ESD, GOAT, IRC, LR-CPCM, MBIS, meta-GGA TD-DFT gradient, ML-optimized integration grids, 
  MM, NACMEs, nearIR, NEB, NEB-TS, NL-DFT gradient (VV10), 2- and 3-layer-ONIOM, interface openCOSMO-RS, QMMM,   
  Crystal-QMMM, SF, symmetry and pop. for TD-DFT, r2SCAN hybrids, SOLVATOR                                   
                                                                         
[Other institutions]                                                     
  V. Asgeirsson          : NEB                                           
  Christoph Bannwarth    : sTDA-DFT, sTD-DFT, PBEh-3c, B97-3c, D3        
  Sebastian Ehlert       : rSCAN, r2SCAN, r2SCAN-3c, D4, dhf basis sets  
  Marvin Friede          : D4 for Fr, Ra, Ac-Lr                          
  Lars Goerigk           : TD-DFT with DH, B97 family of functionals     
  Stefan Grimme          : VdW corrections, initial TS optimization, DFT functionals, gCP, sTDA/sTD-DF 
  Waldemar Hujo          : DFT-NL                                        
  H. Jonsson             : NEB                                           
  Holger Kruse           : gCP                                           
  Marcel Mueller         : wB97X-3c, vDZP basis set                      
  Hagen Neugebauer       : wr2SCAN                                       
  Tobias Risthaus        : range-separated hybrid DFT                    
  Lukas Wittmann         : regularized MP2, r2SCAN double-hybrids, wr2SCAN        
                                                                         
We gratefully acknowledge several colleagues who have allowed us to      
interface, adapt or use parts of their codes:                            
  Ed Valeev, F. Pavosevic, A. Kumar             : LibInt (2-el integral package), F12 methods 
  Garnet Chan, S. Sharma, J. Yang, R. Olivares  : DMRG                   
  Ulf Ekstrom                                   : XCFun DFT Library      
  Mihaly Kallay                                 : mrcc  (arbitrary order and MRCC methods)
  Frank Weinhold                                : gennbo (NPA and NBO analysis)           
  Simon Mueller                                 : openCOSMO-RS                            
  Christopher J. Cramer and Donald G. Truhlar   : smd solvation model                     
  S Lehtola, MJT Oliveira, MAL Marques          : LibXC Library                           
  Liviu Ungur et al                             : ANISO software                          


 Your calculation uses the libint2 library for the computation of 2-el integrals
 For citations please refer to: http://libint.valeyev.net

 Your ORCA version has been built with support for libXC version: 6.2.2
 For citations please refer to: https://libxc.gitlab.io

 This ORCA versions uses:
   CBLAS   interface :  Fast vector & matrix operations
   LAPACKE interface :  Fast linear algebra routines
   SCALAPACK package :  Parallel linear algebra routines
   Shared memory     :  Shared parallel matrices
   BLAS/LAPACK       :  OpenBLAS 0.3.27  USE64BITINT DYNAMIC_ARCH NO_AFFINITY SkylakeX SINGLE_THREADED
        Core in use  :  SkylakeX
   Copyright (c) 2011-2014, The OpenBLAS Project


NOTE: MaxCore=8000 MB was set to SCF,MP2,MDCI,CIPSI,MRCI and CIS
      => If you want to overwrite this, your respective input block should be placed after the MaxCore statement
Your calculation utilizes the atom-pairwise dispersion correction
with the Becke-Johnson damping scheme (D3BJ)


Your calculation utilizes the SMD solvation module
Please cite in your paper:
A.V. Marenich, C.J. Cramer, D.G. Truhlar J. Phys. Chem. B, 113, (2009), 6378 

Warning: RI is on but no J-basis has been assigned. Assigning Def2/J (nothing to worry about!)
================================================================================

----- Orbital basis set information -----
Your calculation utilizes the basis: def2-TZVP
   F. Weigend and R. Ahlrichs, Phys. Chem. Chem. Phys. 7, 3297 (2005).

----- AuxJ basis set information -----
Your calculation utilizes the auxiliary basis: def2/J
   F. Weigend, Phys. Chem. Chem. Phys. 8, 1057 (2006).

================================================================================
                                        WARNINGS
                       Please study these warnings very carefully!
================================================================================



WARNING: SCAN, rSCAN, or r2SCAN functional requested.
  ===> : libXC variant has now been activated.



WARNING: your system is open-shell and RHF/RKS was chosen
  ===> : WILL SWITCH to UHF/UKS


WARNING: Geometry Optimization
  ===> : Switching off AutoStart
         For restart on a previous wavefunction, please use MOREAD

================================================================================
                                       INPUT FILE
================================================================================
NAME = rf_mecn_opt_r2s_C7_D_B.inp
|  1> !r2scanh def2-TZVP opt d3 TightSCF SlowConv defgrid2
|  2> 
|  3> %pal
|  4> nprocs 20
|  5> end
|  6>  
|  7> %scf
|  8> MaxIter 1500
|  9> end
| 10>  
| 11> %maxcore 8000 #verificar
| 12>  
| 13> !CPCM
| 14> %cpcm smd true
| 15> SMDsolvent "ACETONITRILE"
| 16> end
| 17>  
| 18> * xyz -1 2
| 19> 6        4.790427000     -0.033865800     -0.529943200
| 20> 8        5.449345000     -1.206924000     -0.894594600
| 21> 8        4.978223000      1.323071000     -0.737377200
| 22> 6        3.506687600     -0.338741600      0.376153800
| 23> 6        2.222300000      0.400524800     -0.110681600
| 24> 6        0.900506800     -0.386389800      0.175703000
| 25> 6       -0.395261200      0.487294000      0.065549000
| 26> 6       -1.705693600     -0.364773800     -0.068373600
| 27> 6       -3.005136200      0.445344800      0.258164000
| 28> 6       -4.319880200     -0.214526000     -0.270540800
| 29> 9        3.211587400     -1.692050400      0.412735200
| 30> 9        3.741061800      0.055285800      1.689948800
| 31> 9        2.125696800      1.616867800      0.483236600
| 32> 9        2.314152400      0.589704000     -1.455769200
| 33> 9        0.794028800     -1.413561400     -0.700839000
| 34> 9        0.958350600     -0.884509000      1.435093400
| 35> 9       -0.498373400      1.260265600      1.173340200
| 36> 9       -0.299075000      1.289512600     -1.020910800
| 37> 9       -1.641790400     -1.418189000      0.779523800
| 38> 9       -1.792381400     -0.831391600     -1.336863600
| 39> 9       -3.119771000      0.573779800      1.598579800
| 40> 9       -4.383115600     -1.504377600      0.089127600
| 41> 9       -5.365669800      0.430528600      0.260394200
| 42> 9       -4.396020400     -0.128550600     -1.602941800
| 43> *
| 44> 
| 45>                          ****END OF INPUT****
================================================================================

                       *****************************
                       * Geometry Optimization Run *
                       *****************************

Geometry optimization settings:
Update method            Update   .... BFGS
Choice of coordinates    CoordSys .... (2022) Redundant Internals
Initial Hessian          InHess   .... Almloef's Model
Max. no of cycles        MaxIter  .... 72

Convergence Tolerances:
Energy Change            TolE     ....  5.0000e-06 Eh
Max. Gradient            TolMAXG  ....  3.0000e-04 Eh/bohr
RMS Gradient             TolRMSG  ....  1.0000e-04 Eh/bohr
Max. Displacement        TolMAXD  ....  4.0000e-03 bohr
RMS Displacement         TolRMSD  ....  2.0000e-03 bohr
Strict Convergence                .... False

------------------------------------------------------------------------------
                        ORCA OPTIMIZATION COORDINATE SETUP
------------------------------------------------------------------------------

The optimization will be done in redundant internal coordinates (2022)
Making redundant internal coordinates   ...  (2022 redundants) done
Evaluating the initial hessian          ...  (Almloef) done
Evaluating the coordinates              ...  done
Calculating the B-matrix                .... done
Calculating the G-matrix                .... done
Diagonalizing the G-matrix              .... done
Small eigenvalue found = 5.605e-03
Small eigenvalue found = 1.505e-02
The first mode is                       ....   38
The number of degrees of freedom        ....   66

    -----------------------------------------------------------------
                    Redundant Internal Coordinates


    -----------------------------------------------------------------
         Definition                    Initial Value    Approx d2E/dq
    -----------------------------------------------------------------
      1. B(O   1,C   0)                  1.3940         0.551454   
      2. B(O   2,C   0)                  1.3855         0.568952   
      3. B(C   3,C   0)                  1.6006         0.288221   
      4. B(C   4,C   3)                  1.5599         0.334759   
      5. B(C   5,C   4)                  1.5647         0.328824   
      6. B(C   6,C   5)                  1.5667         0.326486   
      7. B(C   7,C   6)                  1.5688         0.323927   
      8. B(C   8,C   7)                  1.5657         0.327637   
      9. B(C   9,C   8)                  1.5632         0.330714   
     10. B(F  10,C   3)                  1.3856         0.528443   
     11. B(F  11,C   3)                  1.3915         0.517117   
     12. B(F  12,C   4)                  1.3570         0.586881   
     13. B(F  13,C   4)                  1.3614         0.577499   
     14. B(F  14,C   5)                  1.3545         0.592326   
     15. B(F  15,C   5)                  1.3556         0.590092   
     16. B(F  16,C   6)                  1.3547         0.591865   
     17. B(F  17,C   6)                  1.3540         0.593567   
     18. B(F  18,C   7)                  1.3538         0.593973   
     19. B(F  19,C   7)                  1.3544         0.592672   
     20. B(F  20,C   8)                  1.3514         0.599114   
     21. B(F  21,C   9)                  1.3406         0.623533   
     22. B(F  22,C   9)                  1.3385         0.628179   
     23. B(F  23,C   9)                  1.3373         0.630929   
     24. A(O   1,C   0,C   3)          111.5249         0.369222   
     25. A(O   2,C   0,C   3)          112.3347         0.371210   
     26. A(O   1,C   0,O   2)          136.1318         0.413163   
     27. A(C   4,C   3,F  10)          107.2033         0.374492   
     28. A(C   4,C   3,F  11)          107.4072         0.373095   
     29. A(F  10,C   3,F  11)          106.7094         0.399684   
     30. A(C   0,C   3,C   4)          113.1687         0.341363   
     31. A(C   0,C   3,F  11)          110.2099         0.363632   
     32. A(C   0,C   3,F  10)          111.8265         0.364982   
     33. A(C   3,C   4,F  12)          110.2926         0.381351   
     34. A(F  12,C   4,F  13)          108.2194         0.415201   
     35. A(C   3,C   4,C   5)          113.5839         0.349005   
     36. A(C   5,C   4,F  13)          107.9208         0.379109   
     37. A(C   3,C   4,F  13)          108.5818         0.380286   
     38. A(C   5,C   4,F  12)          108.0911         0.380169   
     39. A(F  14,C   5,F  15)          109.0206         0.417483   
     40. A(C   4,C   5,C   6)          113.9128         0.347536   
     41. A(C   6,C   5,F  15)          107.7906         0.380059   
     42. A(C   4,C   5,F  15)          108.5900         0.380529   
     43. A(C   4,C   5,F  14)          109.2282         0.380779   
     44. A(C   6,C   5,F  14)          108.2026         0.380308   
     45. A(C   5,C   6,C   7)          113.2023         0.346660   
     46. A(F  16,C   6,F  17)          108.8752         0.417862   
     47. A(C   7,C   6,F  17)          108.2186         0.379927   
     48. A(C   5,C   6,F  17)          109.1523         0.380446   
     49. A(C   7,C   6,F  16)          108.4284         0.379738   
     50. A(C   5,C   6,F  16)          108.8835         0.380256   
     51. A(C   8,C   7,F  18)          108.1296         0.380723   
     52. A(C   6,C   7,F  18)          109.2524         0.379972   
     53. A(F  18,C   7,F  19)          108.7561         0.418014   
     54. A(C   6,C   7,C   8)          113.2298         0.346865   
     55. A(C   8,C   7,F  19)          108.6915         0.380579   
     56. A(C   6,C   7,F  19)          108.6955         0.379828   
     57. A(C   9,C   8,F  20)          107.7127         0.381912   
     58. A(C   7,C   8,C   9)          114.1471         0.348078   
     59. A(C   7,C   8,F  20)          109.0521         0.381293   
     60. A(F  22,C   9,F  23)          108.6464         0.426961   
     61. A(F  21,C   9,F  23)          109.0552         0.426394   
     62. A(C   8,C   9,F  23)          110.9604         0.385362   
     63. A(F  21,C   9,F  22)          108.6877         0.426061   
     64. A(C   8,C   9,F  22)          108.6349         0.385069   
     65. A(C   8,C   9,F  21)          110.7995         0.384572   
     66. D(F  10,C   3,C   0,O   2)    171.0025         0.006601   
     67. D(F  10,C   3,C   0,O   1)     -9.8890         0.006601   
     68. D(F  11,C   3,C   0,O   1)    108.6317         0.006601   
     69. D(C   4,C   3,C   0,O   1)   -131.0839         0.006601   
     70. D(C   4,C   3,C   0,O   2)     49.8076         0.006601   
     71. D(C   5,C   4,C   3,C   0)    148.6429         0.009100   
     72. D(F  12,C   4,C   3,F  10)    146.3851         0.009100   
     73. D(F  12,C   4,C   3,C   0)    -89.8453         0.009100   
     74. D(F  12,C   4,C   3,F  11)     32.0233         0.009100   
     75. D(C   5,C   4,C   3,F  10)     24.8733         0.009100   
     76. D(C   5,C   4,C   3,F  11)    -89.4885         0.009100   
     77. D(F  14,C   5,C   4,C   3)    -74.9661         0.008811   
     78. D(C   6,C   5,C   4,F  12)     41.2001         0.008811   
     79. D(C   6,C   5,C   4,C   3)    163.9326         0.008811   
     80. D(C   6,C   5,C   4,F  13)    -75.6292         0.008811   
     81. D(F  14,C   5,C   4,F  13)     45.4721         0.008811   
     82. D(F  14,C   5,C   4,F  12)    162.3014         0.008811   
     83. D(F  16,C   6,C   5,F  14)    161.9826         0.008700   
     84. D(F  16,C   6,C   5,C   4)    -76.3465         0.008700   
     85. D(C   7,C   6,C   5,F  15)    -76.4529         0.008700   
     86. D(C   7,C   6,C   5,F  14)     41.3107         0.008700   
     87. D(F  16,C   6,C   5,F  15)     44.2190         0.008700   
     88. D(C   7,C   6,C   5,C   4)    162.9815         0.008700   
     89. D(F  18,C   7,C   6,F  17)    162.9167         0.008578   
     90. D(F  18,C   7,C   6,F  16)    -79.1358         0.008578   
     91. D(F  18,C   7,C   6,C   5)     41.7939         0.008578   
     92. D(C   8,C   7,C   6,F  17)    -76.5134         0.008578   
     93. D(C   8,C   7,C   6,F  16)     41.4341         0.008578   
     94. D(C   8,C   7,C   6,C   5)    162.3638         0.008578   
     95. D(C   9,C   8,C   7,F  18)    -76.3785         0.008223   
     96. D(C   9,C   8,C   7,C   6)    162.4166         0.008223   
     97. D(F  20,C   8,C   7,F  18)     44.1231         0.008223   
     98. D(F  20,C   8,C   7,C   6)    -77.0818         0.008223   
     99. D(C   9,C   8,C   7,F  19)     41.5227         0.008223   
    100. D(F  23,C   9,C   8,C   7)    -71.2711         0.008360   
    101. D(F  22,C   9,C   8,F  20)     48.1091         0.008360   
    102. D(F  22,C   9,C   8,C   7)    169.3552         0.008360   
    103. D(F  21,C   9,C   8,F  20)    -71.2185         0.008360   
    104. D(F  21,C   9,C   8,C   7)     50.0276         0.008360   
    -----------------------------------------------------------------

Number of atoms                         .... 24
Number of degrees of freedom            .... 104


         *************************************************************
         *                GEOMETRY OPTIMIZATION CYCLE   1            *
         *************************************************************
---------------------------------
CARTESIAN COORDINATES (ANGSTROEM)
---------------------------------
  C      4.790427   -0.033866   -0.529943
  O      5.449345   -1.206924   -0.894595
  O      4.978223    1.323071   -0.737377
  C      3.506688   -0.338742    0.376154
  C      2.222300    0.400525   -0.110682
  C      0.900507   -0.386390    0.175703
  C     -0.395261    0.487294    0.065549
  C     -1.705694   -0.364774   -0.068374
  C     -3.005136    0.445345    0.258164
  C     -4.319880   -0.214526   -0.270541
  F      3.211587   -1.692050    0.412735
  F      3.741062    0.055286    1.689949
  F      2.125697    1.616868    0.483237
  F      2.314152    0.589704   -1.455769
  F      0.794029   -1.413561   -0.700839
  F      0.958351   -0.884509    1.435093
  F     -0.498373    1.260266    1.173340
  F     -0.299075    1.289513   -1.020911
  F     -1.641790   -1.418189    0.779524
  F     -1.792381   -0.831392   -1.336864
  F     -3.119771    0.573780    1.598580
  F     -4.383116   -1.504378    0.089128
  F     -5.365670    0.430529    0.260394
  F     -4.396020   -0.128551   -1.602942

----------------------------
CARTESIAN COORDINATES (A.U.)
----------------------------
  NO LB      ZA    FRAG     MASS         X           Y           Z
   0 C     6.0000    0    12.011    9.052595   -0.063997   -1.001448
   1 O     8.0000    0    15.999   10.297770   -2.280756   -1.690539
   2 O     8.0000    0    15.999    9.407478    2.500242   -1.393441
   3 C     6.0000    0    12.011    6.626679   -0.640129    0.710828
   4 C     6.0000    0    12.011    4.199538    0.756882   -0.209158
   5 C     6.0000    0    12.011    1.701711   -0.730171    0.332031
   6 C     6.0000    0    12.011   -0.746935    0.920852    0.123870
   7 C     6.0000    0    12.011   -3.223294   -0.689323   -0.129207
   8 C     6.0000    0    12.011   -5.678884    0.841580    0.487859
   9 C     6.0000    0    12.011   -8.163391   -0.405395   -0.511248
  10 F     9.0000    0    18.998    6.069021   -3.197512    0.779956
  11 F     9.0000    0    18.998    7.069582    0.104475    3.193540
  12 F     9.0000    0    18.998    4.016985    3.055437    0.913185
  13 F     9.0000    0    18.998    4.373114    1.114379   -2.751005
  14 F     9.0000    0    18.998    1.500497   -2.671244   -1.324394
  15 F     9.0000    0    18.998    1.811020   -1.671480    2.711934
  16 F     9.0000    0    18.998   -0.941789    2.381557    2.217292
  17 F     9.0000    0    18.998   -0.565170    2.436826   -1.929242
  18 F     9.0000    0    18.998   -3.102534   -2.679989    1.473086
  19 F     9.0000    0    18.998   -3.387110   -1.571102   -2.526306
  20 F     9.0000    0    18.998   -5.895513    1.084287    3.020878
  21 F     9.0000    0    18.998   -8.282888   -2.842862    0.168427
  22 F     9.0000    0    18.998  -10.139646    0.813581    0.492074
  23 F     9.0000    0    18.998   -8.307275   -0.242925   -3.029121

--------------------------------
INTERNAL COORDINATES (ANGSTROEM)
--------------------------------
 C      0   0   0     0.000000000000     0.00000000     0.00000000
 O      1   0   0     1.393990356793     0.00000000     0.00000000
 O      1   2   0     1.385486802956   136.13177198     0.00000000
 C      1   2   3     1.600608594862   111.52489317   181.18992567
 C      4   1   2     1.559863783763   113.16872737   228.91614990
 C      5   4   1     1.564732561934   113.58394786   148.64287440
 C      6   5   4     1.566675459667   113.91280616   163.93256239
 C      7   6   5     1.568817348692   113.20226571   162.98152714
 C      8   7   6     1.565717094808   113.22984595   162.36375422
 C      9   8   7     1.563173062643   114.14707705   162.41661495
 F      4   1   2     1.385592665621   111.82651119   350.11101305
 F      4   1   2     1.391490625050   110.20991618   108.63170802
 F      5   4   1     1.357041377479   110.29260564   270.15468021
 F      5   4   1     1.361428031433   108.58179722    28.57841973
 F      6   5   4     1.354527570075   109.22822656   285.03385927
 F      6   5   4     1.355556277776   108.59004089    43.81583148
 F      7   6   5     1.354739297058   108.88346185   283.65347401
 F      7   6   5     1.353957667090   109.15230848    42.38718856
 F      8   7   6     1.353771473879   109.25240264    41.79387651
 F      8   7   6     1.354368423305   108.69554158   283.25540020
 F      9   8   7     1.351425618925   109.05210362   282.91820052
 F     10   9   8     1.340551089588   110.79953142    50.02756898
 F     10   9   8     1.338530275591   108.63493714   169.35523750
 F     10   9   8     1.337341214598   110.96044107   288.72891896

---------------------------
INTERNAL COORDINATES (A.U.)
---------------------------
 C      0   0   0     0.000000000000     0.00000000     0.00000000
 O      1   0   0     2.634260007667     0.00000000     0.00000000
 O      1   2   0     2.618190619750   136.13177198     0.00000000
 C      1   2   3     3.024711891890   111.52489317   181.18992567
 C      4   1   2     2.947715357535   113.16872737   228.91614990
 C      5   4   1     2.956916014884   113.58394786   148.64287440
 C      6   5   4     2.960587559506   113.91280616   163.93256239
 C      7   6   5     2.964635143173   113.20226571   162.98152714
 C      8   7   6     2.958776512386   113.22984595   162.36375422
 C      9   8   7     2.953968988318   114.14707705   162.41661495
 F      4   1   2     2.618390671194   111.82651119   350.11101305
 F      4   1   2     2.629536199263   110.20991618   108.63170802
 F      5   4   1     2.564436555835   110.29260564   270.15468021
 F      5   4   1     2.572726130452   108.58179722    28.57841973
 F      6   5   4     2.559686148288   109.22822656   285.03385927
 F      6   5   4     2.561630124115   108.59004089    43.81583148
 F      7   6   5     2.560086254300   108.88346185   283.65347401
 F      7   6   5     2.558609187723   109.15230848    42.38718856
 F      8   7   6     2.558257333546   109.25240264    41.79387651
 F      8   7   6     2.559385404477   108.69554158   283.25540020
 F      9   8   7     2.553824310132   109.05210362   282.91820052
 F     10   9   8     2.533274427850   110.79953142    50.02756898
 F     10   9   8     2.529455642830   108.63493714   169.35523750
 F     10   9   8     2.527208643196   110.96044107   288.72891896

---------------------
BASIS SET INFORMATION
---------------------
There are 3 groups of distinct atoms

 Group   1 Type C   : 11s6p2d1f contracted to 5s3p2d1f pattern {62111/411/11/1}
 Group   2 Type O   : 11s6p2d1f contracted to 5s3p2d1f pattern {62111/411/11/1}
 Group   3 Type F   : 11s6p2d1f contracted to 5s3p2d1f pattern {62111/411/11/1}

Atom   0C    basis set group =>   1
Atom   1O    basis set group =>   2
Atom   2O    basis set group =>   2
Atom   3C    basis set group =>   1
Atom   4C    basis set group =>   1
Atom   5C    basis set group =>   1
Atom   6C    basis set group =>   1
Atom   7C    basis set group =>   1
Atom   8C    basis set group =>   1
Atom   9C    basis set group =>   1
Atom  10F    basis set group =>   3
Atom  11F    basis set group =>   3
Atom  12F    basis set group =>   3
Atom  13F    basis set group =>   3
Atom  14F    basis set group =>   3
Atom  15F    basis set group =>   3
Atom  16F    basis set group =>   3
Atom  17F    basis set group =>   3
Atom  18F    basis set group =>   3
Atom  19F    basis set group =>   3
Atom  20F    basis set group =>   3
Atom  21F    basis set group =>   3
Atom  22F    basis set group =>   3
Atom  23F    basis set group =>   3
---------------------------------
AUXILIARY/J BASIS SET INFORMATION
---------------------------------
There are 3 groups of distinct atoms

 Group   1 Type C   : 12s5p4d2f1g contracted to 6s4p3d1f1g pattern {711111/2111/211/2/1}
 Group   2 Type O   : 12s5p4d2f1g contracted to 6s4p3d1f1g pattern {711111/2111/211/2/1}
 Group   3 Type F   : 12s5p4d2f1g contracted to 6s4p3d1f1g pattern {711111/2111/211/2/1}

Atom   0C    basis set group =>   1
Atom   1O    basis set group =>   2
Atom   2O    basis set group =>   2
Atom   3C    basis set group =>   1
Atom   4C    basis set group =>   1
Atom   5C    basis set group =>   1
Atom   6C    basis set group =>   1
Atom   7C    basis set group =>   1
Atom   8C    basis set group =>   1
Atom   9C    basis set group =>   1
Atom  10F    basis set group =>   3
Atom  11F    basis set group =>   3
Atom  12F    basis set group =>   3
Atom  13F    basis set group =>   3
Atom  14F    basis set group =>   3
Atom  15F    basis set group =>   3
Atom  16F    basis set group =>   3
Atom  17F    basis set group =>   3
Atom  18F    basis set group =>   3
Atom  19F    basis set group =>   3
Atom  20F    basis set group =>   3
Atom  21F    basis set group =>   3
Atom  22F    basis set group =>   3
Atom  23F    basis set group =>   3


           ************************************************************
           *        Program running with 20 parallel MPI-processes    *
           *              working on a common directory               *
           ************************************************************
------------------------------------------------------------------------------
                             ORCA STARTUP CALCULATIONS
                           -- RI-GTO INTEGRALS CHOSEN --
------------------------------------------------------------------------------
------------------------------------------------------------------------------
                   ___                                                        
                  /   \      - P O W E R E D   B Y -                         
                 /     \                                                     
                 |  |  |   _    _      __       _____    __    __             
                 |  |  |  | |  | |    /  \     |  _  \  |  |  /  |          
                  \  \/   | |  | |   /    \    | | | |  |  | /  /          
                 / \  \   | |__| |  /  /\  \   | |_| |  |  |/  /          
                |  |  |   |  __  | /  /__\  \  |    /   |      \           
                |  |  |   | |  | | |   __   |  |    \   |  |\   \          
                \     /   | |  | | |  |  |  |  | |\  \  |  | \   \       
                 \___/    |_|  |_| |__|  |__|  |_| \__\ |__|  \__/        
                                                                              
                      - O R C A' S   B I G   F R I E N D -                    
                                      &                                       
                       - I N T E G R A L  F E E D E R -                       
                                                                              
 v1 FN, 2020, v2 2021, v3 2022-2024                                           
------------------------------------------------------------------------------


----------------------
SHARK INTEGRAL PACKAGE
----------------------

Number of atoms                             ...     24
Number of basis functions                   ...    744
Number of shells                            ...    264
Maximum angular momentum                    ...      3
Integral batch strategy                     ... SHARK/LIBINT Hybrid
RI-J (if used) integral strategy            ... SPLIT-RIJ (Revised 2003 algorithm where possible)
Printlevel                                  ...      1
Contraction scheme used                     ... SEGMENTED contraction
Prescreening option                         ... SCHWARTZ
   Thresh                                   ... 2.500e-11
   Tcut                                     ... 2.500e-12
   Tpresel                                  ... 2.500e-12 
Coulomb Range Separation                    ... NOT USED
Exchange Range Separation                   ... NOT USED
Multipole approximations                    ... NOT USED
Finite Nucleus Model                        ... NOT USED
CABS basis                                  ... NOT available
Auxiliary Coulomb fitting basis             ... AVAILABLE
   # of basis functions in Aux-J            ...   1176
   # of shells in Aux-J                     ...    360
   Maximum angular momentum in Aux-J        ...      4
Auxiliary J/K fitting basis                 ... NOT available
Auxiliary Correlation fitting basis         ... NOT available
Auxiliary 'external' fitting basis          ... NOT available

Checking pre-screening integrals            ... done (  0.0 sec) Dimension = 264
Check shell pair data                       ... done (  0.0 sec)
Shell pair information
Shell pair cut-off parameter TPreSel        ...   2.5e-12
Total number of shell pairs                 ...     34980
Shell pairs after pre-screening             ...     21668
Total number of primitive shell pairs       ...    115968
Primitive shell pairs kept                  ...     46075
          la=0 lb=0:   4043 shell pairs
          la=1 lb=0:   5886 shell pairs
          la=1 lb=1:   2062 shell pairs
          la=2 lb=0:   3223 shell pairs
          la=2 lb=1:   2393 shell pairs
          la=2 lb=2:    678 shell pairs
          la=3 lb=0:   1464 shell pairs
          la=3 lb=1:   1151 shell pairs
          la=3 lb=2:    619 shell pairs
          la=3 lb=3:    149 shell pairs

Calculating one electron integrals          ... done (  0.0 sec)
Calculating RI/J V-Matrix + Cholesky decomp.... done (  0.1 sec)
Calculating Nuclear repulsion               ... done (  0.0 sec) ENN=   2610.666930956155 Eh

Diagonalization of the overlap matrix:
Smallest eigenvalue                        ... 6.480e-05
Time for diagonalization                   ...    0.105 sec
Threshold for overlap eigenvalues          ... 1.000e-07
Number of eigenvalues below threshold      ... 0
Time for construction of square roots      ...    0.042 sec
Total time needed                          ...    0.152 sec

-------------------
DFT GRID GENERATION
-------------------

General Integration Accuracy     IntAcc      ... 4.388
Radial Grid Type                 RadialGrid  ... OptM3 with GC (2021)
Angular Grid (max. ang.)         AngularGrid ... 4 (Lebedev-302)
Angular grid pruning method      GridPruning ... 4 (adaptive)
Weight generation scheme         WeightScheme... mBecke (2022)
Basis function cutoff            BFCut       ... 1.0000e-11
Integration weight cutoff        WCut        ... 1.0000e-14
Partially contracted basis set               ... off
Rotationally invariant grid construction     ... off
Angular grids for H and He will be reduced by one unit

Total number of grid points                  ...   145480
Total number of batches                      ...     2286
Average number of points per batch           ...       63
Average number of grid points per atom       ...     6062

--------------------
COSX GRID GENERATION
--------------------

GRIDX 1
-------
General Integration Accuracy     IntAcc      ... 3.816
Radial Grid Type                 RadialGrid  ... OptM3 with GC (2021)
Angular Grid (max. ang.)         AngularGrid ... 1 (Lebedev-50)
Angular grid pruning method      GridPruning ... 4 (adaptive)
Weight generation scheme         WeightScheme... mBecke (2022)
Basis function cutoff            BFCut       ... 1.0000e-11
Integration weight cutoff        WCut        ... 1.0000e-14
Partially contracted basis set               ... on
Rotationally invariant grid construction     ... off
Angular grids for H and He will be reduced by one unit

Total number of grid points                  ...    18277
Total number of batches                      ...      153
Average number of points per batch           ...      119
Average number of grid points per atom       ...      762
UseSFitting                                  ... on

GRIDX 2
-------
General Integration Accuracy     IntAcc      ... 4.020
Radial Grid Type                 RadialGrid  ... OptM3 with GC (2021)
Angular Grid (max. ang.)         AngularGrid ... 2 (Lebedev-110)
Angular grid pruning method      GridPruning ... 4 (adaptive)
Weight generation scheme         WeightScheme... mBecke (2022)
Basis function cutoff            BFCut       ... 1.0000e-11
Integration weight cutoff        WCut        ... 1.0000e-14
Partially contracted basis set               ... on
Rotationally invariant grid construction     ... off
Angular grids for H and He will be reduced by one unit

Total number of grid points                  ...    43354
Total number of batches                      ...      353
Average number of points per batch           ...      122
Average number of grid points per atom       ...     1806
UseSFitting                                  ... on

GRIDX 3
-------
General Integration Accuracy     IntAcc      ... 4.338
Radial Grid Type                 RadialGrid  ... OptM3 with GC (2021)
Angular Grid (max. ang.)         AngularGrid ... 3 (Lebedev-194)
Angular grid pruning method      GridPruning ... 4 (adaptive)
Weight generation scheme         WeightScheme... mBecke (2022)
Basis function cutoff            BFCut       ... 1.0000e-11
Integration weight cutoff        WCut        ... 1.0000e-14
Partially contracted basis set               ... on
Rotationally invariant grid construction     ... off
Angular grids for H and He will be reduced by one unit

Total number of grid points                  ...    96058
Total number of batches                      ...      761
Average number of points per batch           ...      126
Average number of grid points per atom       ...     4002
UseSFitting                                  ... on
Initializing property integral containers    ... done (  0.0 sec)

SHARK setup successfully completed in   3.2 seconds

Maximum memory used throughout the entire STARTUP-calculation: 56.7 MB


           ************************************************************
           *        Program running with 20 parallel MPI-processes    *
           *              working on a common directory               *
           ************************************************************
-------------------------------------------------------------------------------
                                 ORCA GUESS
                   Start orbitals & Density for SCF / CASSCF
-------------------------------------------------------------------------------

------------
SCF SETTINGS
------------
Hamiltonian:
 Density Functional     Method          .... DFT(GTOs)
  Functional kind                       .... Exchange
  Functional name                       .... Re-regularized SCAN exchange by Furness et al
  Functional family                     .... MGGA
  Functional refs                              
    [ 0] J. W. Furness, A. D. Kaplan, J. Ning, J. P. Perdew, and J. Sun.,  J. Phys. Chem. Lett. 11, 8208-8215 (2020), doi: 10.1021/acs.jpclett.0c02405
    [ 1] J. W. Furness, A. D. Kaplan, J. Ning, J. P. Perdew, and J. Sun.,  J. Phys. Chem. Lett. 11, 9248-9248 (2020), doi: 10.1021/acs.jpclett.0c03077
  Functional external parameters        .... 6
    Parameter  0 _c1        =  6.670000e-01 : c1 parameter        
    Parameter  1 _c2        =  8.000000e-01 : c2 parameter        
    Parameter  2 _d         =  1.240000e+00 : d parameter         
    Parameter  3 _k1        =  6.500000e-02 : k1 parameter        
    Parameter  4 _eta       =  1.000000e-03 : eta parameter       
    Parameter  5 _dp2       =  3.610000e-01 : dp2 parameter       
  Functional kind                       .... Correlation
  Functional name                       .... Re-regularized SCAN correlation by Furness et al
  Functional family                     .... MGGA
  Functional refs                              
    [ 0] J. W. Furness, A. D. Kaplan, J. Ning, J. P. Perdew, and J. Sun.,  J. Phys. Chem. Lett. 11, 8208-8215 (2020), doi: 10.1021/acs.jpclett.0c02405
    [ 1] J. W. Furness, A. D. Kaplan, J. Ning, J. P. Perdew, and J. Sun.,  J. Phys. Chem. Lett. 11, 9248-9248 (2020), doi: 10.1021/acs.jpclett.0c03077
  Functional external parameters        .... 1
    Parameter  0 _eta       =  1.000000e-03 : Regularization parameter
 Gradients option       PostSCFGGA      .... off
 Hybrid DFT is turned on
   Fraction HF Exchange ScalHFX         ....  0.100000
   Scaling of DF-GGA-X  ScalDFX         ....  0.900000
   Scaling of DF-GGA-C  ScalDFC         ....  1.000000
   Scaling of DF-LDA-C  ScalLDAC        ....  1.000000
   Perturbative correction              ....  0.000000
   NL short-range parameter             .... 11.900000
 RI-approximation to the Coulomb term is turned on
   Number of AuxJ basis functions       .... 1176
   RIJ-COSX (HFX calculated with COS-X)).... on


General Settings:
 Integral files         IntName         .... rf_mecn_opt_r2s_C7_D_B
 Hartree-Fock type      HFTyp           .... UHF
 Total Charge           Charge          ....   -1
 Multiplicity           Mult            ....    2
 Number of Electrons    NEL             ....  191
 Basis Dimension        Dim             ....  744
 Nuclear Repulsion      ENuc            ....   2610.6669309562 Eh

Convergence Acceleration:
 AO-DIIS                CNVDIIS         .... on
   Start iteration      DIISMaxIt       ....     0
   Startup error        DIISStart       ....  0.200000
   # of expansion vecs  DIISMaxEq       ....     5
   Bias factor          DIISBfac        ....   1.050
   Max. coefficient     DIISMaxC        ....  10.000
 MO-DIIS                CNVKDIIS        .... off
 Trust-Rad. Augm. Hess. CNVTRAH         .... auto
   Auto Start mean grad. ratio tolernc. ....  1.125000
   Auto Start start iteration           ....    50
   Auto Start num. interpolation iter.  ....    10
   Max. Number of Micro iterations      ....    24
   Max. Number of Macro iterations      .... Maxiter - #DIIS iter
   Number of Davidson start vectors     ....     2
   Converg. threshold    (grad. norm)   ....   1.000e-05
   Grad. Scal. Fac. for Micro threshold ....   0.100
   Minimum threshold for Micro iter.    ....   1.000e-02
   NR start threshold (gradient norm)   ....   1.000e-04
   Initial trust radius                 ....   0.400
   Minimum AH scaling param. (alpha)    ....   1.000
   Maximum AH scaling param. (alpha)    .... 1000.000
   Quad. conv. algorithm                .... NR
   White noise on init. David. guess    .... on
   Maximum white noise                  ....   0.010
   Pseudo random numbers                .... off
   Inactive MOs                         .... canonical
   Orbital update algorithm             .... Taylor
   Preconditioner                       .... Diag
   Full preconditioner red. dimension   ....   250
 SOSCF                  CNVSOSCF        .... on
   Start iteration      SOSCFMaxIt      ....   150
   Startup grad/error   SOSCFStart      ....  0.001000
   Hessian update       SOSCFHessUp     .... L-BFGS
 Level Shifting         CNVShift        .... on
   Level shift para.    LevelShift      ....    0.2500
   Turn off err/grad.   ShiftErr        ....    0.0000
 Zerner damping         CNVZerner       .... off
 Static damping         CNVDamp         .... on
   Fraction old density DampFac         ....    0.8500
   Max. Damping (<1)    DampMax         ....    0.9800
   Min. Damping (>=0)   DampMin         ....    0.0000
   Turn off err/grad.   DampErr         ....    0.0300

SCF Procedure:
 Maximum # iterations   MaxIter         ....  1500
 SCF integral mode      SCFMode         .... Direct
   Integral package                     .... SHARK and LIBINT hybrid scheme
 Reset frequency        DirectResetFreq ....    20
 Integral Threshold     Thresh          ....  2.500e-11 Eh
 Primitive CutOff       TCut            ....  2.500e-12 Eh

Convergence Tolerance:
 Convergence Check Mode ConvCheckMode   .... Total+1el-Energy
 Convergence forced     ConvForced      .... 0
 Energy Change          TolE            ....  1.000e-08 Eh
 1-El. energy change                    ....  1.000e-05 Eh
 Orbital Gradient       TolG            ....  1.000e-05
 Orbital Rotation angle TolX            ....  1.000e-05
 DIIS Error             TolErr          ....  5.000e-07

------------------------------
INITIAL GUESS: MODEL POTENTIAL
------------------------------
Loading Hartree-Fock densities                     ... done
Calculating cut-offs                               ... done
Initializing the effective Hamiltonian             ... done
Setting up the integral package (SHARK)            ... done
Starting the Coulomb interaction                   ... done (   0.1 sec)
Making the grid                                    ... done (   0.4 sec)
Mapping shells                                     ... done
Starting the XC term evaluation                    ... done (   0.1 sec)
  promolecular density results
     # of electrons  =    190.000661905
     EX              =   -197.018600771
     EC              =     -6.648268381
     EX+EC           =   -203.666869152
Transforming the Hamiltonian                       ... done (   0.0 sec)
Diagonalizing the Hamiltonian                      ... done (   0.1 sec)
Back transforming the eigenvectors                 ... done (   0.0 sec)
Now organizing SCF variables                       ... done
                      ------------------
                      INITIAL GUESS DONE (   1.0 sec)
                      ------------------
             **** ENERGY FILE WAS UPDATED (rf_mecn_opt_r2s_C7_D_B.en.tmp) ****
Finished Guess after   1.8 sec
Maximum memory used throughout the entire GUESS-calculation: 45.3 MB


           ************************************************************
           *        Program running with 20 parallel MPI-processes    *
           *              working on a common directory               *
           ************************************************************

-------------------------------------------------------------------------------------------
                                      ORCA LEAN-SCF
                              memory conserving SCF solver
-------------------------------------------------------------------------------------------

--------------------
CPCM SOLVATION MODEL
--------------------
CPCM parameters:
  Epsilon                                         ...      35.6880
  Refrac                                          ...       1.3442
  Rsolv                                           ...       1.3000
  Surface type                                    ... GAUSSIAN VDW
  Discretization scheme                           ... Constant charge density
    Threshold for H atoms                         ...       5.0000 (charges/Ang^2)
    Threshold for non-H atoms                     ...       5.0000 (charges/Ang^2)
  Epsilon function type                           ...         CPCM
Solvent:                                          ... ACETONITRILE
SMD-CDS solvent descriptors:
  Soln                                            ...       1.3442
  Soln25                                          ...       1.3416
  Sola                                            ...       0.0700
  Solb                                            ...       0.3200
  Solg                                            ...      41.2500
  Solc                                            ...       0.0000
  Solh                                            ...       0.0000
Radii:
  Scheme                                          ... Element-dependent radii
  Radius for C  used is    3.4960 Bohr (=   1.8500 Ang.)
  Radius for O  used is    4.0969 Bohr (=   2.1680 Ang.)
  Radius for F  used is    3.2692 Bohr (=   1.7300 Ang.)
Calculating surface                               ...        done! (  0.0s)
Cavity surface points                             ...         2132
Cavity Volume                                     ...    2133.4770
Cavity Surface-area                               ...    1114.8307
Calculating surface distance matrix               ...        done! (  0.0s)
Performing Cholesky decomposition & store         ...        done! (  0.1s)
Overall time for CPCM initialization              ...                 0.1s

----------------------------------------D-I-I-S--------------------------------------------
Iteration    Energy (Eh)           Delta-E    RMSDP     MaxDP     DIISErr   Damp  Time(sec)
-------------------------------------------------------------------------------------------
               ***  Starting incremental Fock matrix formation  ***
    1    -1852.5845120259841678     0.00e+00  2.67e-04  3.48e-02  1.57e-01  0.850   6.4
Warning: op=0 Small HOMO/LUMO gap (   0.064) - skipping pre-diagonalization
         Will do a full diagonalization
    2    -1852.7316741063928021    -1.47e-01  3.35e-04  6.59e-02  1.05e-01  0.850   4.5
                               ***Turning on AO-DIIS***
    3    -1852.8077808561424717    -7.61e-02  1.56e-04  2.77e-02  6.06e-02  0.850   4.0
    4    -1852.8529293765445800    -4.51e-02  8.05e-05  8.94e-03  4.44e-02  0.850   3.8
    5    -1852.8849994406432415    -3.21e-02  5.39e-05  3.39e-03  3.69e-02  0.850   3.7
    6    -1852.9104640825312345    -2.55e-02  4.44e-05  2.63e-03  3.22e-02  0.850   3.4
    7    -1852.9317771840374007    -2.13e-02  3.98e-05  2.65e-03  2.77e-02  0.850   3.5
    8    -1852.9499686278763875    -1.82e-02  2.35e-04  1.60e-02  2.31e-02  0.000   3.5
    9    -1853.0459710752425053    -9.60e-02  2.73e-05  2.27e-03  4.75e-03  0.000   3.8
   10    -1853.0462020838463104    -2.31e-04  1.13e-05  1.19e-03  3.14e-03  0.000   3.4
                              *** Initializing SOSCF ***
---------------------------------------S-O-S-C-F--------------------------------------
Iteration    Energy (Eh)           Delta-E    RMSDP     MaxDP     MaxGrad    Time(sec)
--------------------------------------------------------------------------------------
   11    -1853.0462970929861513    -9.50e-05  6.24e-06  7.50e-04  5.29e-04     3.7
               *** Restarting incremental Fock matrix formation ***
   12    -1853.0463185195690130    -2.14e-05  5.36e-06  7.31e-04  2.69e-04     6.1
   13    -1853.0463189168299323    -3.97e-07  3.52e-06  5.49e-04  6.06e-04     4.0
   14    -1853.0463223364372425    -3.42e-06  1.63e-06  2.16e-04  8.41e-05     4.7
   15    -1853.0463223905039740    -5.41e-08  9.20e-07  1.62e-04  3.79e-05     4.4
   16    -1853.0463225766284268    -1.86e-07  3.37e-07  2.68e-05  9.10e-06     3.9
   17    -1853.0463225405924277     3.60e-08  2.29e-07  3.08e-05  1.50e-05     3.8
   18    -1853.0463225835223966    -4.29e-08  1.67e-07  1.38e-05  1.05e-05     3.6
   19    -1853.0463226160304657    -3.25e-08  1.10e-07  1.67e-05  2.28e-05     3.4
   20    -1853.0463225912030794     2.48e-08  8.27e-08  5.49e-06  4.40e-07     3.1
                  *** Gradient check signals convergence ***

               *****************************************************
               *                     SUCCESS                       *
               *           SCF CONVERGED AFTER  20 CYCLES          *
               *****************************************************

Recomputing exchange energy using gridx3       ... done (    8.528 sec)
Old exchange energy                            :    -19.873876948 Eh
New exchange energy                            :    -19.873888959 Eh
Exchange energy change after final integration :     -0.000012011 Eh
Total energy after final integration           :  -1853.046334602 Eh

SMD CDS free energy correction energy :                 3.58525     Kcal/mol
Total Energy after SMD CDS correction =             -1853.040621150 Eh
             **** ENERGY FILE WAS UPDATED (rf_mecn_opt_r2s_C7_D_B.en.tmp) ****

----------------
TOTAL SCF ENERGY
----------------

Total Energy       :      -1853.04062115043075 Eh          -50423.79880 eV

Components:
Nuclear Repulsion  :       2610.66693095615528 Eh           71039.85879 eV
Electronic Energy  :      -4463.62883217369563 Eh         -121461.51551 eV
One Electron Energy:      -7796.05533160769664 Eh         -212141.45064 eV
Two Electron Energy:       3332.42649943400102 Eh           90679.93513 eV
CPCM Dielectric    :         -0.08442137366231 Eh              -2.29722 eV
SMD CDS (Gcds)     :          0.00571345128915 Eh               0.15547 eV

Virial components:
Potential Energy   :      -3698.52494712171665 Eh         -100641.98035 eV
Kinetic Energy     :       1845.48432597128613 Eh           50218.18155 eV
Virial Ratio       :          2.00409447811223

DFT components:
N(Alpha)           :       95.999988042354 electrons
N(Beta)            :       94.999976779118 electrons
N(Total)           :      190.999964821472 electrons
E(X)               :     -179.877198492071 Eh       
E(C)               :       -6.627972583938 Eh       
E(XC)              :     -186.505171076009 Eh       

CPCM Solvation Model Properties:
Surface-charge          :          0.99017799025766
Corrected charge        :          1.00000000000000
Outlying charge corr.   :          0.00000525629624 Eh               0.00014 eV
Free-energy (cav+disp)  :          0.00571345128915 Eh               0.15547 eV

---------------
SCF CONVERGENCE
---------------

  Last Energy change         ...   -2.4827e-08  Tolerance :   1.0000e-08
  Last MAX-Density change    ...    5.4865e-06  Tolerance :   1.0000e-07
  Last RMS-Density change    ...    8.2673e-08  Tolerance :   5.0000e-09
  Last DIIS Error            ...    5.2920e-04  Tolerance :   5.0000e-07
  Last Orbital Gradient      ...    4.4033e-07  Tolerance :   1.0000e-05
  Last Orbital Rotation      ...    2.3029e-06  Tolerance :   1.0000e-05


----------------------
UHF SPIN CONTAMINATION
----------------------

Warning: in a DFT calculation there is little theoretical justification to 
         calculate <S**2> as in Hartree-Fock theory. We will do it anyways
         but you should keep in mind that the values have only limited relevance

Expectation value of <S**2>     :     0.755076
Ideal value S*(S+1) for S=0.5   :     0.750000
Deviation                       :     0.005076

----------------
ORBITAL ENERGIES
----------------
                 SPIN UP ORBITALS
  NO   OCC          E(Eh)            E(eV) 
   0   1.0000     -24.733844      -673.0421 
   1   1.0000     -24.729598      -672.9266 
   2   1.0000     -24.728079      -672.8853 
   3   1.0000     -24.727104      -672.8587 
   4   1.0000     -24.726207      -672.8343 
   5   1.0000     -24.725754      -672.8220 
   6   1.0000     -24.724404      -672.7852 
   7   1.0000     -24.724028      -672.7750 
   8   1.0000     -24.723436      -672.7589 
   9   1.0000     -24.721590      -672.7087 
  10   1.0000     -24.714091      -672.5046 
  11   1.0000     -24.709841      -672.3890 
  12   1.0000     -24.692824      -671.9259 
  13   1.0000     -24.690114      -671.8522 
  14   1.0000     -19.076199      -519.0898 
  15   1.0000     -19.074500      -519.0435 
  16   1.0000     -10.440145      -284.0908 
  17   1.0000     -10.388009      -282.6721 
  18   1.0000     -10.383845      -282.5588 
  19   1.0000     -10.379981      -282.4536 
  20   1.0000     -10.368766      -282.1485 
  21   1.0000     -10.345347      -281.5112 
  22   1.0000     -10.324873      -280.9541 
  23   1.0000     -10.278681      -279.6971 
  24   1.0000      -1.346761       -36.6472 
  25   1.0000      -1.326722       -36.1019 
  26   1.0000      -1.310691       -35.6657 
  27   1.0000      -1.302793       -35.4508 
  28   1.0000      -1.293141       -35.1882 
  29   1.0000      -1.283435       -34.9240 
  30   1.0000      -1.262404       -34.3518 
  31   1.0000      -1.260710       -34.3057 
  32   1.0000      -1.259608       -34.2757 
  33   1.0000      -1.256196       -34.1828 
  34   1.0000      -1.251548       -34.0563 
  35   1.0000      -1.247220       -33.9386 
  36   1.0000      -1.236957       -33.6593 
  37   1.0000      -1.209358       -32.9083 
  38   1.0000      -0.964024       -26.2324 
  39   1.0000      -0.904305       -24.6074 
  40   1.0000      -0.840784       -22.8789 
  41   1.0000      -0.820453       -22.3257 
  42   1.0000      -0.787992       -21.4424 
  43   1.0000      -0.745451       -20.2848 
  44   1.0000      -0.704265       -19.1640 
  45   1.0000      -0.671172       -18.2635 
  46   1.0000      -0.660701       -17.9786 
  47   1.0000      -0.624609       -16.9965 
  48   1.0000      -0.622284       -16.9332 
  49   1.0000      -0.616123       -16.7655 
  50   1.0000      -0.611061       -16.6278 
  51   1.0000      -0.609170       -16.5763 
  52   1.0000      -0.602511       -16.3952 
  53   1.0000      -0.592835       -16.1319 
  54   1.0000      -0.586242       -15.9525 
  55   1.0000      -0.579206       -15.7610 
  56   1.0000      -0.573859       -15.6155 
  57   1.0000      -0.566032       -15.4025 
  58   1.0000      -0.562003       -15.2929 
  59   1.0000      -0.554690       -15.0939 
  60   1.0000      -0.539327       -14.6758 
  61   1.0000      -0.512591       -13.9483 
  62   1.0000      -0.492885       -13.4121 
  63   1.0000      -0.487786       -13.2733 
  64   1.0000      -0.485841       -13.2204 
  65   1.0000      -0.480366       -13.0714 
  66   1.0000      -0.477648       -12.9975 
  67   1.0000      -0.473251       -12.8778 
  68   1.0000      -0.469024       -12.7628 
  69   1.0000      -0.463930       -12.6242 
  70   1.0000      -0.460455       -12.5296 
  71   1.0000      -0.455556       -12.3963 
  72   1.0000      -0.452563       -12.3149 
  73   1.0000      -0.448562       -12.2060 
  74   1.0000      -0.446825       -12.1587 
  75   1.0000      -0.444291       -12.0898 
  76   1.0000      -0.441434       -12.0120 
  77   1.0000      -0.436358       -11.8739 
  78   1.0000      -0.433826       -11.8050 
  79   1.0000      -0.428735       -11.6665 
  80   1.0000      -0.424249       -11.5444 
  81   1.0000      -0.422748       -11.5035 
  82   1.0000      -0.420686       -11.4474 
  83   1.0000      -0.417584       -11.3630 
  84   1.0000      -0.411112       -11.1869 
  85   1.0000      -0.401037       -10.9128 
  86   1.0000      -0.400120       -10.8878 
  87   1.0000      -0.384988       -10.4761 
  88   1.0000      -0.377856       -10.2820 
  89   1.0000      -0.359523        -9.7831 
  90   1.0000      -0.338875        -9.2213 
  91   1.0000      -0.326232        -8.8772 
  92   1.0000      -0.299236        -8.1426 
  93   1.0000      -0.241237        -6.5644 
  94   1.0000      -0.233417        -6.3516 
  95   1.0000      -0.230195        -6.2639 
  96   0.0000      -0.032292        -0.8787 
  97   0.0000      -0.008669        -0.2359 
  98   0.0000       0.002262         0.0616 
  99   0.0000       0.030418         0.8277 
 100   0.0000       0.066247         1.8027 
 101   0.0000       0.077328         2.1042 
 102   0.0000       0.103971         2.8292 
 103   0.0000       0.106028         2.8852 
 104   0.0000       0.110979         3.0199 
 105   0.0000       0.123225         3.3531 
 106   0.0000       0.126868         3.4522 

                 SPIN DOWN ORBITALS
  NO   OCC          E(Eh)            E(eV) 
   0   1.0000     -24.729093      -672.9128 
   1   1.0000     -24.728105      -672.8860 
   2   1.0000     -24.727079      -672.8580 
   3   1.0000     -24.726742      -672.8488 
   4   1.0000     -24.726172      -672.8334 
   5   1.0000     -24.725731      -672.8213 
   6   1.0000     -24.724450      -672.7865 
   7   1.0000     -24.724065      -672.7760 
   8   1.0000     -24.723435      -672.7589 
   9   1.0000     -24.721588      -672.7086 
  10   1.0000     -24.714091      -672.5046 
  11   1.0000     -24.709841      -672.3890 
  12   1.0000     -24.692824      -671.9259 
  13   1.0000     -24.690114      -671.8522 
  14   1.0000     -19.076199      -519.0898 
  15   1.0000     -19.074497      -519.0435 
  16   1.0000     -10.440130      -284.0904 
  17   1.0000     -10.387968      -282.6710 
  18   1.0000     -10.383803      -282.5576 
  19   1.0000     -10.379997      -282.4541 
  20   1.0000     -10.368768      -282.1485 
  21   1.0000     -10.345346      -281.5112 
  22   1.0000     -10.307201      -280.4732 
  23   1.0000     -10.278681      -279.6971 
  24   1.0000      -1.345667       -36.6175 
  25   1.0000      -1.326262       -36.0894 
  26   1.0000      -1.309757       -35.6403 
  27   1.0000      -1.302491       -35.4426 
  28   1.0000      -1.293115       -35.1875 
  29   1.0000      -1.275802       -34.7163 
  30   1.0000      -1.262323       -34.3496 
  31   1.0000      -1.259520       -34.2733 
  32   1.0000      -1.258300       -34.2401 
  33   1.0000      -1.255829       -34.1729 
  34   1.0000      -1.250704       -34.0334 
  35   1.0000      -1.247039       -33.9337 
  36   1.0000      -1.236956       -33.6593 
  37   1.0000      -1.209358       -32.9083 
  38   1.0000      -0.964023       -26.2324 
  39   1.0000      -0.904302       -24.6073 
  40   1.0000      -0.835860       -22.7449 
  41   1.0000      -0.810701       -22.0603 
  42   1.0000      -0.781878       -21.2760 
  43   1.0000      -0.744147       -20.2493 
  44   1.0000      -0.701375       -19.0854 
  45   1.0000      -0.665860       -18.1190 
  46   1.0000      -0.659993       -17.9593 
  47   1.0000      -0.623014       -16.9531 
  48   1.0000      -0.619738       -16.8639 
  49   1.0000      -0.614325       -16.7166 
  50   1.0000      -0.609918       -16.5967 
  51   1.0000      -0.608202       -16.5500 
  52   1.0000      -0.600259       -16.3339 
  53   1.0000      -0.591620       -16.0988 
  54   1.0000      -0.585000       -15.9187 
  55   1.0000      -0.577938       -15.7265 
  56   1.0000      -0.571713       -15.5571 
  57   1.0000      -0.563930       -15.3453 
  58   1.0000      -0.560743       -15.2586 
  59   1.0000      -0.554045       -15.0763 
  60   1.0000      -0.539323       -14.6757 
  61   1.0000      -0.492336       -13.3971 
  62   1.0000      -0.489770       -13.3273 
  63   1.0000      -0.486644       -13.2423 
  64   1.0000      -0.483494       -13.1565 
  65   1.0000      -0.479605       -13.0507 
  66   1.0000      -0.473988       -12.8979 
  67   1.0000      -0.471261       -12.8237 
  68   1.0000      -0.467398       -12.7185 
  69   1.0000      -0.461729       -12.5643 
  70   1.0000      -0.457562       -12.4509 
  71   1.0000      -0.454986       -12.3808 
  72   1.0000      -0.449877       -12.2418 
  73   1.0000      -0.447775       -12.1846 
  74   1.0000      -0.443715       -12.0741 
  75   1.0000      -0.442499       -12.0410 
  76   1.0000      -0.439372       -11.9559 
  77   1.0000      -0.435199       -11.8424 
  78   1.0000      -0.433025       -11.7832 
  79   1.0000      -0.428234       -11.6528 
  80   1.0000      -0.423906       -11.5351 
  81   1.0000      -0.421919       -11.4810 
  82   1.0000      -0.419871       -11.4253 
  83   1.0000      -0.417402       -11.3581 
  84   1.0000      -0.410292       -11.1646 
  85   1.0000      -0.401036       -10.9127 
  86   1.0000      -0.398832       -10.8528 
  87   1.0000      -0.383080       -10.4241 
  88   1.0000      -0.377809       -10.2807 
  89   1.0000      -0.356585        -9.7032 
  90   1.0000      -0.338855        -9.2207 
  91   1.0000      -0.324662        -8.8345 
  92   1.0000      -0.241236        -6.5644 
  93   1.0000      -0.233415        -6.3515 
  94   1.0000      -0.230181        -6.2636 
  95   0.0000      -0.135596        -3.6898 
  96   0.0000      -0.032186        -0.8758 
  97   0.0000      -0.005646        -0.1536 
  98   0.0000       0.006641         0.1807 
  99   0.0000       0.035182         0.9574 
 100   0.0000       0.073058         1.9880 
 101   0.0000       0.080649         2.1946 
 102   0.0000       0.106159         2.8887 
 103   0.0000       0.109094         2.9686 
 104   0.0000       0.120471         3.2782 
 105   0.0000       0.125612         3.4181 
*Only the first 10 virtual orbitals were printed.

                    ********************************
                    * MULLIKEN POPULATION ANALYSIS *
                    ********************************

--------------------------------------------
MULLIKEN ATOMIC CHARGES AND SPIN POPULATIONS
--------------------------------------------
   0 C :    0.240733   -0.000000
   1 O :   -0.557426    0.000087
   2 O :   -0.559832    0.000002
   3 C :    0.355954   -0.000010
   4 C :    0.328664   -0.000002
   5 C :    0.326488    0.000516
   6 C :    0.333418   -0.002062
   7 C :    0.353762   -0.005203
   8 C :    0.124219    0.870350
   9 C :    0.491798    0.000581
  10 F :   -0.198514   -0.000001
  11 F :   -0.211535    0.000005
  12 F :   -0.181012    0.000010
  13 F :   -0.181017    0.000001
  14 F :   -0.171888   -0.000039
  15 F :   -0.172372   -0.000002
  16 F :   -0.172259    0.000534
  17 F :   -0.172724    0.000316
  18 F :   -0.166060    0.025984
  19 F :   -0.172839    0.000473
  20 F :   -0.154357    0.082289
  21 F :   -0.155867    0.027792
  22 F :   -0.163828   -0.000527
  23 F :   -0.163507   -0.001095
Sum of atomic charges         :   -1.0000000
Sum of atomic spin populations:    1.0000000

-----------------------------------------------------
MULLIKEN REDUCED ORBITAL CHARGES AND SPIN POPULATIONS
-----------------------------------------------------
CHARGE
  0 C s       :     3.146686  s :     3.146686
      pz      :     0.833456  p :     2.402603
      px      :     0.856597
      py      :     0.712550
      dz2     :     0.012494  d :     0.193685
      dxz     :     0.014958
      dyz     :     0.057068
      dx2y2   :     0.050851
      dxy     :     0.058315
      f0      :     0.001648  f :     0.016293
      f+1     :     0.001038
      f-1     :     0.002046
      f+2     :     0.002445
      f-2     :     0.001603
      f+3     :     0.003591
      f-3     :     0.003921

  1 O s       :     3.875755  s :     3.875755
      pz      :     1.592861  p :     4.657343
      px      :     1.636362
      py      :     1.428120
      dz2     :     0.003076  d :     0.023095
      dxz     :     0.001659
      dyz     :     0.005289
      dx2y2   :     0.005470
      dxy     :     0.007601
      f0      :     0.000110  f :     0.001233
      f+1     :     0.000055
      f-1     :     0.000170
      f+2     :     0.000115
      f-2     :     0.000188
      f+3     :     0.000356
      f-3     :     0.000240

  2 O s       :     3.873060  s :     3.873060
      pz      :     1.619689  p :     4.661947
      px      :     1.737955
      py      :     1.304302
      dz2     :     0.003108  d :     0.023570
      dxz     :     0.000323
      dyz     :     0.006070
      dx2y2   :     0.008750
      dxy     :     0.005320
      f0      :     0.000116  f :     0.001255
      f+1     :     0.000016
      f-1     :     0.000222
      f+2     :     0.000211
      f-2     :     0.000032
      f+3     :     0.000285
      f-3     :     0.000374

  3 C s       :     3.112110  s :     3.112110
      pz      :     0.680394  p :     2.261580
      px      :     0.941239
      py      :     0.639946
      dz2     :     0.045082  d :     0.246076
      dxz     :     0.046521
      dyz     :     0.061096
      dx2y2   :     0.042527
      dxy     :     0.050850
      f0      :     0.005154  f :     0.024281
      f+1     :     0.003542
      f-1     :     0.003698
      f+2     :     0.003329
      f-2     :     0.001979
      f+3     :     0.003568
      f-3     :     0.003011

  4 C s       :     3.121345  s :     3.121345
      pz      :     0.607620  p :     2.248653
      px      :     0.940163
      py      :     0.700870
      dz2     :     0.060119  d :     0.274652
      dxz     :     0.057195
      dyz     :     0.066962
      dx2y2   :     0.034081
      dxy     :     0.056295
      f0      :     0.003469  f :     0.026686
      f+1     :     0.004809
      f-1     :     0.007798
      f+2     :     0.002084
      f-2     :     0.002594
      f+3     :     0.003486
      f-3     :     0.002446

  5 C s       :     3.151017  s :     3.151017
      pz      :     0.584518  p :     2.211792
      px      :     0.918111
      py      :     0.709164
      dz2     :     0.074864  d :     0.283702
      dxz     :     0.060365
      dyz     :     0.058773
      dx2y2   :     0.032588
      dxy     :     0.057112
      f0      :     0.004742  f :     0.027000
      f+1     :     0.004265
      f-1     :     0.005971
      f+2     :     0.003057
      f-2     :     0.004279
      f+3     :     0.002548
      f-3     :     0.002138

  6 C s       :     3.132540  s :     3.132540
      pz      :     0.574812  p :     2.223224
      px      :     0.928411
      py      :     0.720001
      dz2     :     0.079671  d :     0.283865
      dxz     :     0.060465
      dyz     :     0.053886
      dx2y2   :     0.032615
      dxy     :     0.057228
      f0      :     0.005908  f :     0.026953
      f+1     :     0.003795
      f-1     :     0.004197
      f+2     :     0.003926
      f-2     :     0.005127
      f+3     :     0.002106
      f-3     :     0.001895

  7 C s       :     3.125623  s :     3.125623
      pz      :     0.584822  p :     2.203229
      px      :     0.925077
      py      :     0.693329
      dz2     :     0.072670  d :     0.290295
      dxz     :     0.061023
      dyz     :     0.058517
      dx2y2   :     0.036951
      dxy     :     0.061134
      f0      :     0.004539  f :     0.027091
      f+1     :     0.004234
      f-1     :     0.006293
      f+2     :     0.003015
      f-2     :     0.004174
      f+3     :     0.002734
      f-3     :     0.002102

  8 C s       :     3.293357  s :     3.293357
      pz      :     0.613170  p :     2.425784
      px      :     0.908544
      py      :     0.904070
      dz2     :     0.029278  d :     0.141414
      dxz     :     0.044569
      dyz     :     0.037622
      dx2y2   :     0.011776
      dxy     :     0.018168
      f0      :     0.002583  f :     0.015226
      f+1     :     0.004771
      f-1     :     0.004341
      f+2     :     0.000574
      f-2     :     0.000808
      f+3     :     0.001163
      f-3     :     0.000987

  9 C s       :     3.020834  s :     3.020834
      pz      :     0.644568  p :     2.098151
      px      :     0.799049
      py      :     0.654534
      dz2     :     0.066464  d :     0.350056
      dxz     :     0.068201
      dyz     :     0.082498
      dx2y2   :     0.061564
      dxy     :     0.071328
      f0      :     0.004505  f :     0.039161
      f+1     :     0.007835
      f-1     :     0.008640
      f+2     :     0.004429
      f-2     :     0.002942
      f+3     :     0.007317
      f-3     :     0.003494

 10 F s       :     3.923317  s :     3.923317
      pz      :     1.898308  p :     5.259610
      px      :     1.887487
      py      :     1.473815
      dz2     :     0.002086  d :     0.014974
      dxz     :     0.000316
      dyz     :     0.002852
      dx2y2   :     0.005689
      dxy     :     0.004030
      f0      :     0.000048  f :     0.000614
      f+1     :     0.000015
      f-1     :     0.000119
      f+2     :     0.000071
      f-2     :     0.000018
      f+3     :     0.000167
      f-3     :     0.000176

 11 F s       :     3.927430  s :     3.927430
      pz      :     1.494522  p :     5.269145
      px      :     1.903256
      py      :     1.871366
      dz2     :     0.006382  d :     0.014368
      dxz     :     0.003506
      dyz     :     0.003544
      dx2y2   :     0.000468
      dxy     :     0.000468
      f0      :     0.000207  f :     0.000593
      f+1     :     0.000136
      f-1     :     0.000168
      f+2     :     0.000038
      f-2     :     0.000038
      f+3     :     0.000003
      f-3     :     0.000003

 12 F s       :     3.926716  s :     3.926716
      pz      :     1.811449  p :     5.237240
      px      :     1.903365
      py      :     1.522426
      dz2     :     0.002084  d :     0.016372
      dxz     :     0.000813
      dyz     :     0.005270
      dx2y2   :     0.004844
      dxy     :     0.003361
      f0      :     0.000075  f :     0.000684
      f+1     :     0.000004
      f-1     :     0.000121
      f+2     :     0.000180
      f-2     :     0.000064
      f+3     :     0.000109
      f-3     :     0.000130

 13 F s       :     3.927744  s :     3.927744
      pz      :     1.451118  p :     5.236350
      px      :     1.904701
      py      :     1.880530
      dz2     :     0.008348  d :     0.016245
      dxz     :     0.003780
      dyz     :     0.003509
      dx2y2   :     0.000300
      dxy     :     0.000307
      f0      :     0.000330  f :     0.000678
      f+1     :     0.000156
      f-1     :     0.000159
      f+2     :     0.000011
      f-2     :     0.000018
      f+3     :     0.000001
      f-3     :     0.000002

 14 F s       :     3.928066  s :     3.928066
      pz      :     1.705294  p :     5.226522
      px      :     1.899909
      py      :     1.621319
      dz2     :     0.002715  d :     0.016611
      dxz     :     0.001656
      dyz     :     0.006531
      dx2y2   :     0.003112
      dxy     :     0.002597
      f0      :     0.000077  f :     0.000688
      f+1     :     0.000014
      f-1     :     0.000183
      f+2     :     0.000188
      f-2     :     0.000105
      f+3     :     0.000060
      f-3     :     0.000061

 15 F s       :     3.927849  s :     3.927849
      pz      :     1.500066  p :     5.227248
      px      :     1.903397
      py      :     1.823785
      dz2     :     0.006810  d :     0.016586
      dxz     :     0.003365
      dyz     :     0.004950
      dx2y2   :     0.000641
      dxy     :     0.000820
      f0      :     0.000227  f :     0.000689
      f+1     :     0.000110
      f-1     :     0.000232
      f+2     :     0.000050
      f-2     :     0.000060
      f+3     :     0.000005
      f-3     :     0.000004

 16 F s       :     3.929902  s :     3.929902
      pz      :     1.591151  p :     5.225025
      px      :     1.899936
      py      :     1.733938
      dz2     :     0.004549  d :     0.016643
      dxz     :     0.002655
      dyz     :     0.006288
      dx2y2   :     0.001564
      dxy     :     0.001586
      f0      :     0.000118  f :     0.000690
      f+1     :     0.000056
      f-1     :     0.000251
      f+2     :     0.000123
      f-2     :     0.000102
      f+3     :     0.000022
      f-3     :     0.000018

 17 F s       :     3.929949  s :     3.929949
      pz      :     1.602399  p :     5.225434
      px      :     1.900363
      py      :     1.722672
      dz2     :     0.004293  d :     0.016651
      dxz     :     0.002575
      dyz     :     0.006410
      dx2y2   :     0.001692
      dxy     :     0.001681
      f0      :     0.000110  f :     0.000691
      f+1     :     0.000050
      f-1     :     0.000249
      f+2     :     0.000132
      f-2     :     0.000105
      f+3     :     0.000024
      f-3     :     0.000021

 18 F s       :     3.929372  s :     3.929372
      pz      :     1.718261  p :     5.219387
      px      :     1.897927
      py      :     1.603199
      dz2     :     0.002608  d :     0.016612
      dxz     :     0.001531
      dyz     :     0.006482
      dx2y2   :     0.003329
      dxy     :     0.002662
      f0      :     0.000077  f :     0.000688
      f+1     :     0.000010
      f-1     :     0.000175
      f+2     :     0.000193
      f-2     :     0.000100
      f+3     :     0.000065
      f-3     :     0.000068

 19 F s       :     3.929278  s :     3.929278
      pz      :     1.492605  p :     5.226211
      px      :     1.899565
      py      :     1.834041
[...]
      f+2     :    -0.000000
      f-2     :     0.000000
      f+3     :     0.000000
      f-3     :    -0.000000

 16 F s       :     0.000202  s :     0.000202
      pz      :     0.000617  p :     0.000831
      px      :     0.000138
      py      :     0.000076
      dz2     :     0.000005  d :     0.000215
      dxz     :     0.000004
      dyz     :     0.000024
      dx2y2   :     0.000140
      dxy     :     0.000042
      f0      :     0.000000  f :     0.000014
      f+1     :     0.000002
      f-1     :     0.000000
      f+2     :     0.000004
      f-2     :     0.000004
      f+3     :     0.000002
      f-3     :     0.000002

 17 F s       :     0.000148  s :     0.000148
      pz      :    -0.000119  p :     0.000458
      px      :    -0.000030
      py      :     0.000608
      dz2     :     0.000011  d :     0.000203
      dxz     :     0.000032
      dyz     :     0.000035
      dx2y2   :     0.000086
      dxy     :     0.000039
      f0      :     0.000000  f :     0.000012
      f+1     :     0.000004
      f-1     :     0.000001
      f+2     :     0.000003
      f-2     :     0.000003
      f+3     :     0.000001
      f-3     :     0.000001

 18 F s       :     0.001257  s :     0.001257
      pz      :     0.006389  p :     0.015416
      px      :     0.004291
      py      :     0.004737
      dz2     :    -0.000061  d :    -0.000137
      dxz     :    -0.000047
      dyz     :     0.000067
      dx2y2   :    -0.000017
      dxy     :    -0.000079
      f0      :     0.000000  f :    -0.000006
      f+1     :    -0.000000
      f-1     :    -0.000001
      f+2     :    -0.000000
      f-2     :    -0.000002
      f+3     :    -0.000002
      f-3     :    -0.000000

 19 F s       :     0.000623  s :     0.000623
      pz      :     0.006955  p :     0.006236
      px      :     0.000296
      py      :    -0.001016
      dz2     :    -0.000037  d :    -0.000263
      dxz     :    -0.000119
      dyz     :    -0.000034
      dx2y2   :     0.000001
      dxy     :    -0.000075
      f0      :    -0.000003  f :    -0.000013
      f+1     :    -0.000003
      f-1     :     0.000001
      f+2     :    -0.000002
      f-2     :    -0.000006
      f+3     :    -0.000001
      f-3     :     0.000000

 20 F s       :     0.003218  s :     0.003218
      pz      :    -0.004727  p :     0.096031
      px      :     0.019116
      py      :     0.081642
      dz2     :     0.001108  d :     0.010860
      dxz     :     0.001914
      dyz     :     0.006755
      dx2y2   :     0.000936
      dxy     :     0.000147
      f0      :     0.000051  f :     0.000586
      f+1     :     0.000116
      f-1     :     0.000282
      f+2     :     0.000116
      f-2     :     0.000014
      f+3     :     0.000005
      f-3     :     0.000001

 21 F s       :     0.001725  s :     0.001725
      pz      :     0.012363  p :     0.028768
      px      :     0.015300
      py      :     0.001105
      dz2     :    -0.000013  d :     0.000218
      dxz     :     0.000191
      dyz     :     0.000033
      dx2y2   :    -0.000012
      dxy     :     0.000019
      f0      :     0.000004  f :     0.000010
      f+1     :    -0.000000
      f-1     :    -0.000002
      f+2     :    -0.000000
      f-2     :     0.000006
      f+3     :    -0.000003
      f-3     :     0.000005

 22 F s       :     0.000016  s :     0.000016
      pz      :    -0.000453  p :     0.005194
      px      :     0.005364
      py      :     0.000282
      dz2     :    -0.000055  d :    -0.000133
      dxz     :    -0.000022
      dyz     :    -0.000043
      dx2y2   :     0.000063
      dxy     :    -0.000076
      f0      :    -0.000000  f :    -0.000008
      f+1     :    -0.000002
      f-1     :    -0.000002
      f+2     :    -0.000000
      f-2     :    -0.000002
      f+3     :     0.000002
      f-3     :    -0.000003

 23 F s       :     0.000608  s :     0.000608
      pz      :     0.010033  p :     0.012281
      px      :     0.001615
      py      :     0.000633
      dz2     :    -0.000027  d :    -0.000093
      dxz     :    -0.000024
      dyz     :    -0.000022
      dx2y2   :    -0.000007
      dxy     :    -0.000014
      f0      :     0.000001  f :    -0.000009
      f+1     :    -0.000002
      f-1     :    -0.000004
      f+2     :    -0.000003
      f-2     :    -0.000001
      f+3     :     0.000000
      f-3     :    -0.000000



                      *****************************
                      * MAYER POPULATION ANALYSIS *
                      *****************************

  NA   - Mulliken gross atomic population
  ZA   - Total nuclear charge
  QA   - Mulliken gross atomic charge
  VA   - Mayer's total valence
  BVA  - Mayer's bonded valence
  FA   - Mayer's free valence

  ATOM       NA         ZA         QA         VA         BVA        FA
  0 C      5.7876     6.0000     0.2124     4.5860     4.5860     0.0000
  1 O      8.5087     8.0000    -0.5087     1.9585     1.9585     0.0000
  2 O      8.5234     8.0000    -0.5234     1.9433     1.9433     0.0000
  3 C      5.6568     6.0000     0.3432     3.9092     3.9092     0.0000
  4 C      5.6994     6.0000     0.3006     4.1223     4.1223     0.0000
  5 C      5.6781     6.0000     0.3219     4.1788     4.1788     0.0000
  6 C      5.6989     6.0000     0.3011     4.1923     4.1913     0.0009
  7 C      5.6131     6.0000     0.3869     4.2019     4.1991     0.0028
  8 C      5.8627     6.0000     0.1373     3.8983     3.2898     0.6085
  9 C      5.5098     6.0000     0.4902     4.4706     4.4681     0.0025
 10 F      9.2073     9.0000    -0.2073     1.0788     1.0788     0.0000
 11 F      9.2139     9.0000    -0.2139     1.0656     1.0656     0.0000
 12 F      9.1798     9.0000    -0.1798     1.1309     1.1309     0.0000
 13 F      9.1866     9.0000    -0.1866     1.1231     1.1231     0.0000
 14 F      9.1727     9.0000    -0.1727     1.1415     1.1415     0.0000
 15 F      9.1721     9.0000    -0.1721     1.1447     1.1447     0.0000
 16 F      9.1721     9.0000    -0.1721     1.1450     1.1450     0.0000
 17 F      9.1727     9.0000    -0.1727     1.1502     1.1502     0.0000
 18 F      9.1716     9.0000    -0.1716     1.1404     1.1401     0.0003
 19 F      9.1709     9.0000    -0.1709     1.1387     1.1386     0.0001
 20 F      9.1433     9.0000    -0.1433     1.1950     1.1838     0.0112
 21 F      9.1701     9.0000    -0.1701     1.1316     1.1306     0.0010
 22 F      9.1625     9.0000    -0.1625     1.1493     1.1492     0.0000
 23 F      9.1657     9.0000    -0.1657     1.1392     1.1390     0.0002

  Mayer bond orders larger than 0.100000
B(  0-C ,  1-O ) :   1.8537 B(  0-C ,  2-O ) :   1.8248 B(  0-C ,  3-C ) :   0.8377 
B(  3-C ,  4-C ) :   0.9313 B(  3-C , 10-F ) :   1.0354 B(  3-C , 11-F ) :   1.0256 
B(  4-C ,  5-C ) :   0.9189 B(  4-C , 12-F ) :   1.0631 B(  4-C , 13-F ) :   1.0574 
B(  5-C ,  6-C ) :   0.9284 B(  5-C , 14-F ) :   1.0705 B(  5-C , 15-F ) :   1.0794 
B(  6-C ,  7-C ) :   0.9357 B(  6-C , 16-F ) :   1.0734 B(  6-C , 17-F ) :   1.0773 
B(  7-C ,  8-C ) :   0.9850 B(  7-C , 18-F ) :   1.0673 B(  7-C , 19-F ) :   1.0813 
B(  8-C ,  9-C ) :   1.0454 B(  8-C , 20-F ) :   1.1221 B(  9-C , 21-F ) :   1.1181 
B(  9-C , 22-F ) :   1.1284 B(  9-C , 23-F ) :   1.1196 

-------
TIMINGS
-------

Total SCF time: 0 days 0 hours 0 min 35 sec 

Total time                  ....      35.661 sec
Sum of individual times     ....      34.518 sec  ( 96.8%)

SCF preparation             ....       1.135 sec  (  3.2%)
Fock matrix formation       ....      29.539 sec  ( 82.8%)
  Startup                   ....       0.144 sec  (  0.5% of F)
  Split-RI-J                ....       1.719 sec  (  5.8% of F)
  Chain of spheres X        ....      19.051 sec  ( 64.5% of F)
  XC integration            ....       6.797 sec  ( 23.0% of F)
    XC Preparation          ....       0.000 sec  (  0.0% of XC)
    Basis function eval.    ....       0.408 sec  (  6.0% of XC)
    Density eval.           ....       2.018 sec  ( 29.7% of XC)
    XC-Functional eval.     ....       0.127 sec  (  1.9% of XC)
    XC-Potential eval.      ....       1.873 sec  ( 27.6% of XC)
  CPCM terms                ....       1.435 sec  (  4.9% of F)
Diagonalization             ....       0.000 sec  (  0.0%)
Density matrix formation    ....       0.394 sec  (  1.1%)
Total Energy calculation    ....       0.236 sec  (  0.7%)
Population analysis         ....       0.315 sec  (  0.9%)
Orbital Transformation      ....       0.395 sec  (  1.1%)
Orbital Orthonormalization  ....       0.000 sec  (  0.0%)
DIIS solution               ....       0.528 sec  (  1.5%)
SOSCF solution              ....       1.976 sec  (  5.5%)
Finished LeanSCF after  35.9 sec

Maximum memory used throughout the entire LEANSCF-calculation: 105.0 MB


-------------------------------------------------------------------------------
                          DFT DISPERSION CORRECTION                            
                                                                               
                              DFTD3 V3.1  Rev 1                                
                          USING Becke-Johnson damping                          
-------------------------------------------------------------------------------
The R2SCANh functional is recognized
Active option DFTDOPT                   ...         4   

molecular C6(AA) [au] = 6297.839476 


            DFT-D V3
 parameters
 s6 scaling factor         :     1.0000 
 a1 scaling factor         :     0.4709 
 s8 scaling factor         :     1.1236 
 a2 scaling factor         :     5.9157 
 ad hoc parameters k1-k3   :    16.0000     1.3333    -4.0000 

 Edisp/kcal,au: -5.080625184138  -0.008096490734 
 E6   /kcal   :  -3.702929861 
 E8   /kcal   :  -1.377695323 
 % E8         :  27.116649488 

-------------------------   ----------------
Dispersion correction           -0.008096491
-------------------------   ----------------


-------------------------   --------------------
FINAL SINGLE POINT ENERGY     -1853.115433309703
-------------------------   --------------------

                                *** OPTIMIZATION RUN DONE ***



           ************************************************************
           *        Program running with 20 parallel MPI-processes    *
           *              working on a common directory               *
           ************************************************************

------------------------------------------------------------------------------
                              ORCA PROPERTY CALCULATIONS
------------------------------------------------------------------------------

GBWName                                 ... rf_mecn_opt_r2s_C7_D_B.gbw
Number of atoms                         ...     24
Number of basis functions               ...    744
Max core memory                         ...   8000 MB

Electric properties:
Dipole moment                           ... YES
Quadrupole moment                       ...  NO
Static polarizability (Dipole/Dipole)   ...  NO
Static polarizability (Dipole/Quad.)    ...  NO
Static polarizability (Quad./Quad.)     ...  NO
Static polarizability (Velocity)        ...  NO

Atomic electric properties:
Dipole moment                           ...  NO
Quadrupole moment                       ...  NO
Static polarizability                   ...  NO

Choice of electric origin               ... Center of mass
Position of electric origin             ...     0.162674    -0.170304     0.025143

General magnetic properties:
Magnetizability                         ...  NO

EPR properties:
g-Tensor (aka g-matrix)                 ...  NO
Zero-Field splitting spin-orbit         ...  NO
Zero-field splitting spin-spin          ...  NO
Hyperfine couplings                     ...  NO (   0 nuclei)
Quadrupole couplings                    ...  NO (   0 nuclei)
Contact density                         ...  NO (   0 nuclei)

NMR properties:
Chemical shifts                         ...  NO (   0 nuclei)
Spin-rotation constants                 ...  NO (   0 nuclei)
Spin-spin couplings                     ...  NO (   0 nuclei,    0 pairs)

Choice of magnetic origin               ... GIAO
Position of magnetic origin             ...     0.000000     0.000000     0.000000

Properties with geometric perturbations:
SCF Hessian                             ...  NO
IR spectrum                             ...  NO
VCD spectrum                            ...  NO
X-ray spectroscopy properties:
SCF XES/XAS/RIXS spectra                ...  NO


-------------
DIPOLE MOMENT
-------------

Method             : SCF
Type of density    : Electron Density
Multiplicity       :   2
Irrep              :   0
Energy             : -1853.1073368189695429 Eh
Relativity type    : 
Basis              : AO
                                X                 Y                 Z
Electronic contribution:    -16.951370080      -1.711848386       2.985058534
Nuclear contribution   :      8.546269783       0.978249622      -1.453834839
                        -----------------------------------------
Total Dipole Moment    :     -8.405100297      -0.733598764       1.531223695
                        -----------------------------------------
Magnitude (a.u.)       :      8.574877501
Magnitude (Debye)      :     21.795606482



--------------------
Rotational spectrum 
--------------------
 
Rotational constants in cm-1:             0.020965             0.004133             0.004054 
Rotational constants in MHz :           628.501585           123.894179           121.537615 

Dipole components along the rotational axes: 
x,y,z [a.u.] :    -8.414820    -1.612139     0.346902 
x,y,z [Debye]:   -21.388772    -4.097732     0.881754 

 

Dipole moment calculation done in   0.0 sec 

Maximum memory used throughout the entire PROP-calculation: 54.4 MB

--------------------------------
SUGGESTED CITATIONS FOR THIS RUN
--------------------------------

Below you find a list of papers that are relevant to this ORCA run
We neither can nor want to force you to cite these papers, but we appreciate if you do
You receive ORCA, which is the product of decades of hard work by many enthusiastic individuals, for free
The only thing we kindly ask in return is that you cite our papers,
We deeply appreciate it, if you show your appreciation for ORCA by not just citing the generic ORCA reference.

Please note that relegating all ORCA citations to the supporting information does *not* help us.
SI sections are not indexed - citations you put there will not count into any citation statistics
But we need these citations in order to attract the funding resources that allow us to do what we are doing

Therefore, if you are a happy ORCA user, please consider citing a few of the papers listed below in the main body of your paper

In addition to the list printed below, the program has created the file rf_mecn_opt_r2s_C7_D_B.bibtex that contains the list in bibtex format
You can import this file easily into all common literature databanks and citation aid programs


List of essential papers. We consider these as the minimum necessary citations

  1. Neese,F.
     Software update: the ORCA program system, version 5.0
     WIRES Comput. Molec. Sci., 2022 12(1)e1606
     doi.org/10.1002/wcms.1606

List of papers to cite with high priority. The work reported in these papers was absolutely
necessary for this run to complete.
Our perspective: the developers of density functionals and basis sets usually get cited in chemistry papers
Good! But without the algorithms to do something with them, the functionals or basis sets would not do anything.
Hence, in our opinion, the algorithm design and method developments papers are equally worthy of getting cited

  1. Neese,F.
     An improvement of the resolution of the identity approximation for the formation of the Coulomb matrix
     J. Comp. Chem., 2003 24(14)1740-1747
     doi.org/10.1002/jcc.10318
  2. Neese,F.; Wennmohs,F.; Hansen,A.; Becker,U.
     Efficient, approximate and parallel Hartree-Fock and hybrid DFT calculations. A 'chain-of-spheres' algorithm for the Hartree-Fock exchange
     Chem. Phys., 2009 356(1-3)98-109
     doi.org/10.1016/j.chemphys.2008.10.036
  3. Garcia-Rates,M.; Neese,F.
     Effect of the Solute Cavity on the Solvation Energy and its Derivatives within the Framework of the Gaussian Charge Scheme
     J. Comput. Chem., 2020 41 922-939
     doi.org/10.1002/jcc.26139
  4. Helmich-Paris,B.; de Souza,B.; Neese,F.; Izsák,R.
     An improved chain of spheres for exchange algorithm
     J. Chem. Phys., 2021 155 104109
     doi.org/doi: 10.1063/5.0058766.
  5. Neese,F.
     The SHARK Integral Generation and Digestion System
     J. Comp. Chem., 2022  1-16
     doi.org/10.1002/jcc.26942
  6. Lehtola,S.; Steigemann,C.; Oliveira,M.; Marques,M.
     Recent developments in Libxc - A comprehensive library of functionals for density functional theory
     Software X, 2018 7 
     doi.org/10.1016/j.softx.2017.11.002
  7. Grimme,S.; Antony,J.; Ehrlich,S.; Krieg,H.
     A consistent and accurate ab initio parametrization of density functional dispersion correction (DFT-D) for the 94 elements H-Pu
     J. Chem. Phys., 2010 132 154104
     doi.org/10.1063/1.3382344
  8. Grimme,S.; Ehrlich,S.; Goerigk,L.
     Effect of the damping function in dispersion corrected density functional theory
     J. Comput. Chem., 2011 32(7)1456-1465
     doi.org/10.1002/jcc.21759
  9. Bursch,M.; Neugebauer,H.; Ehlert,S.; Grimme,S.
     Dispersion corrected r2SCAN based global hybrid functionals: r2SCANh, r2SCAN0, and r2SCAN50
     J. Phys. Chem., 2022 156(13)134105
     doi.org/10.1063/5.0086040

List of suggested additional citations. These are papers that are important in the 'surrounding' of 
of this run, or papers that preceded the highly important papers. If you like your results we are grateful for a citation.

  1. Izsak,R.; Neese,F.
     An overlap fitted chain of spheres exchange method
     J. Chem. Phys., 2011 135 144105
     doi.org/10.1063/1.3646921
  2. Izsak,R.; Hansen,A.; Neese,F.
     The resolution of identity and chain of spheres approximations for the LPNO-CCSD singles Fock term
     Molec. Phys., 2012 110 2413-2417
     doi.org/10.1080/00268976.2012.687466
  3. Neese,F.
     The ORCA program system
     WIRES Comput. Molec. Sci., 2012 2(1)73-78
     doi.org/10.1002/wcms.81
  4. Izsak,R.; Neese,F.; Klopper,W.
     Robust fitting techniques in the chain of spheres approximation to the Fock exchange: The role of the complementary space
     J. Chem. Phys., 2013 139 
     doi.org/10.1063/1.4819264
  5. Neese,F.
     Software update: the ORCA program system, version 4.0
     WIRES Comput. Molec. Sci., 2018 8(1)1-6
     doi.org/10.1002/wcms.1327
  6. Neese,F.; Wennmohs,F.; Becker,U.; Riplinger,C.
     The ORCA quantum chemistry program package
     J. Chem. Phys., 2020 152 Art. No. L224108
     doi.org/10.1063/5.0004608
  7. Wittmann,L.; Neugebauer,H.; Grimme,S.; Bursch,M.
     Dispersion-corrected r2SCAN based double-hybrid functionals
     J. Chem. Phys., 2023 159(22)224103
     doi.org/10.1063/5.0174988

List of optional additional citations

  1. Neese,F.
     Approximate second-order SCF convergence for spin unrestricted wavefunctions
     Chem. Phys. Lett., 2000 325(1-3)93-98
     doi.org/10.1016/s0009-2614(00)00662-x

Timings for individual modules:

Sum of individual times          ...     1730.402 sec (=  28.840 min)
Startup calculation              ...       82.604 sec (=   1.377 min)   4.8 %
SCF iterations                   ...     1252.988 sec (=  20.883 min)  72.4 %
Property calculations            ...        0.797 sec (=   0.013 min)   0.0 %
SCF Gradient evaluation          ...      393.714 sec (=   6.562 min)  22.8 %
Geometry relaxation              ...        0.299 sec (=   0.005 min)   0.0 %
                             ****ORCA TERMINATED NORMALLY****
TOTAL RUN TIME: 0 days 0 hours 29 minutes 4 seconds 642 msec
