
                                 *****************
                                 * O   R   C   A *
                                 *****************

                                            #,                                       
                                            ###                                      
                                            ####                                     
                                            #####                                    
                                            ######                                   
                                           ########,                                 
                                     ,,################,,,,,                         
                               ,,#################################,,                 
                          ,,##########################################,,             
                       ,#########################################, ''#####,          
                    ,#############################################,,   '####,        
                  ,##################################################,,,,####,       
                ,###########''''           ''''###############################       
              ,#####''   ,,,,##########,,,,          '''####'''          '####       
            ,##' ,,,,###########################,,,                        '##       
           ' ,,###''''                  '''############,,,                           
         ,,##''                                '''############,,,,        ,,,,,,###''
      ,#''                                            '''#######################'''  
     '                                                          ''''####''''         
             ,#######,   #######,   ,#######,      ##                                
            ,#'     '#,  ##    ##  ,#'     '#,    #''#        ,####,   ,####,        
            ##       ##  ##   ,#'  ##            #'  '#       #'       #'  '#        
            ##       ##  #######   ##           ,######,      #####,   #    #        
            '#,     ,#'  ##    ##  '#,     ,#' ,#      #,     #,   #   #,  ,#        
             '#######'   ##     ##  '#######'  #'      '#     '####' # '####'        



                #########################################################
                #                        -***-                          #
                #          Department of theory and spectroscopy        #
                #                                                       #
                #                      Frank Neese                      #
                #                                                       #
                #     Directorship, Architecture, Infrastructure        #
                #                    SHARK, DRIVERS                     #
                #        Core code/Algorithms in most modules           #
                #                                                       #
                #        Max Planck Institute fuer Kohlenforschung      #
                #                Kaiser Wilhelm Platz 1                 #
                #                 D-45470 Muelheim/Ruhr                 #
                #                      Germany                          #
                #                                                       #
                #                  All rights reserved                  #
                #                        -***-                          #
                #########################################################


                         Program Version 6.0.1  -  RELEASE   -


 With contributions from (in alphabetic order):
[Max-Planck-Institut fuer Kohlenforschung]                               
  Daniel Aravena         : Magnetic Suceptibility                        
  Michael Atanasov       : Ab Initio Ligand Field Theory (pilot matlab implementation)
  Alexander A. Auer      : GIAO ZORA, VPT2 properties, NMR spectrum      
  Ute Becker             : All parallelization in ORCA, NUMFREQ, NUMCALC 
  Giovanni Bistoni       : ED, misc. LED, open-shell LED, HFLD           
  Martin Brehm           : Molecular dynamics                            
  Dmytro Bykov           : pre 5.0 version of the SCF Hessian            
  Marcos Casanova-Páez   : Triplet and SCS-CIS(D). UHF-(DLPNO)-IP/EA/STEOM-CCSD. UHF-CVS-IP/STEOM-CCSD   
  Vijay G. Chilkuri      : MRCI spin determinant printing, contributions to CSF-ICE 
  Pauline Colinet        : FMM embedding                                 
  Dipayan Datta          : RHF DLPNO-CCSD density                        
  Achintya Kumar Dutta   : EOM-CC, STEOM-CC                              
  Nicolas Foglia         : Exact transition moments, OPA infrastructure, MCD improvements    
  Dmitry Ganyushin       : Spin-Orbit,Spin-Spin,Magnetic field MRCI      
  Miquel Garcia-Rates    : C-PCM and meta-GGA Hessian, CCSD/C-PCM, Gaussian charge scheme 
  Tiago L. C. Gouveia    : GS-ROHF, GS-ROCIS                             
  Yang Guo               : DLPNO-NEVPT2, F12-NEVPT2, CIM, IAO-localization        
  Andreas Hansen         : Spin unrestricted coupled pair/coupled cluster methods 
  Ingolf Harden          : AUTO-CI MPn and infrastructure                
  Benjamin Helmich-Paris : MC-RPA, TRAH-(SCF,CASSCF), AVAS, COSX integrals, SCF dyn. polar. 
  Lee Huntington         : MR-EOM, pCC                                   
  Robert Izsak           : Overlap fitted RIJCOSX, COSX-SCS-MP3, EOM     
  Riya Kayal             : Wick's Theorem for AUTO-CI, AUTO-CI UHF-CCSDT 
  Emily Kempfer          : AUTO-CI, RHF CISDT and CCSDT                  
  Christian Kollmar      : KDIIS, OOCD, Brueckner-CCSD(T), CCSD density, CASPT2, CASPT2-K, improved NEVPT2 
  Axel Koslowski         : Symmetry handling                             
  Simone Kossmann        : meta-GGA functionals, TD-DFT gradient, OOMP2, (MP2 Hessian; deprecated post 5.0) 
  Lucas Lang             : DCDCAS                                        
  Marvin Lechner         : AUTO-CI (C++ implementation), FIC-MRCC        
  Spencer Leger          : CASSCF response                               
  Dagmar Lenk            : GEPOL surface, SMD, ORCA-2-JSON               
  Dimitrios Liakos       : Extrapolation schemes; Compound Job, initial MDCI parallelization 
  Dimitrios Manganas     : Further ROCIS development; embedding schemes. LFT, Crystal Embedding 
  Dimitrios Pantazis     : SARC Basis sets                               
  Anastasios Papadopoulos: AUTO-CI, single reference methods and gradients 
  Taras Petrenko         : pre 6.0 DFT Hessian and TD-DFT gradient, (ASA, deprecated), ECA, 1-Electron XAS/XES, NRVS 
  Peter Pinski           : DLPNO-MP2, DLPNO-MP2 Gradient                 
  Christoph Reimann      : Effective Core Potentials                     
  Marius Retegan         : Local ZFS, SOC                                
  Christoph Riplinger    : Optimizer, TS searches, QM/MM, DLPNO-CCSD(T), (RO)-DLPNO pert. Triples 
  Michael Roemelt        : Original ROCIS implementation                 
  Masaaki Saitow         : Open-shell DLPNO-CCSD energy and density      
  Barbara Sandhoefer     : DKH picture change effects                    
  Kantharuban Sivalingam : CASSCF convergence/infrastructure, NEVPT2 and variants, FIC-MRCI 
  Bernardo de Souza      : ESD, SOC TD-DFT                               
  Georgi L. Stoychev     : AutoAux, RI-MP2 NMR, DLPNO-MP2 response, X2C  
  Van Anh Tran           : RI-MP2 g-tensors                              
  Willem Van den Heuvel  : Paramagnetic NMR                              
  Zikuan Wang            : NOTCH, Electric field optimization            
  Frank Wennmohs         : Technical directorship and infrastructure     
  Hang Xu                : AUTO-CI-Response properties                   
                                                                         
[FACCTs GmbH]                                                            
  Markus Bursch, Miquel Garcia-Rates, Christoph Riplinger, Bernardo de Souza, Georgi L. Stoychev 
                                                                 
  APM, Basis sets (HGBS, AHGBS, def-TZVP (Ac-Lr), def2-XVPD (La-Lu)), CI-OPT, improved COSX, DLPNO-Multilevel,           
  DOCKER, DRACO, updates on ESD, GOAT, IRC, LR-CPCM, MBIS, meta-GGA TD-DFT gradient, ML-optimized integration grids, 
  MM, NACMEs, nearIR, NEB, NEB-TS, NL-DFT gradient (VV10), 2- and 3-layer-ONIOM, interface openCOSMO-RS, QMMM,   
  Crystal-QMMM, SF, symmetry and pop. for TD-DFT, r2SCAN hybrids, SOLVATOR                                   
                                                                         
[Other institutions]                                                     
  V. Asgeirsson          : NEB                                           
  Christoph Bannwarth    : sTDA-DFT, sTD-DFT, PBEh-3c, B97-3c, D3        
  Sebastian Ehlert       : rSCAN, r2SCAN, r2SCAN-3c, D4, dhf basis sets  
  Marvin Friede          : D4 for Fr, Ra, Ac-Lr                          
  Lars Goerigk           : TD-DFT with DH, B97 family of functionals     
  Stefan Grimme          : VdW corrections, initial TS optimization, DFT functionals, gCP, sTDA/sTD-DF 
  Waldemar Hujo          : DFT-NL                                        
  H. Jonsson             : NEB                                           
  Holger Kruse           : gCP                                           
  Marcel Mueller         : wB97X-3c, vDZP basis set                      
  Hagen Neugebauer       : wr2SCAN                                       
  Tobias Risthaus        : range-separated hybrid DFT                    
  Lukas Wittmann         : regularized MP2, r2SCAN double-hybrids, wr2SCAN        
                                                                         
We gratefully acknowledge several colleagues who have allowed us to      
interface, adapt or use parts of their codes:                            
  Ed Valeev, F. Pavosevic, A. Kumar             : LibInt (2-el integral package), F12 methods 
  Garnet Chan, S. Sharma, J. Yang, R. Olivares  : DMRG                   
  Ulf Ekstrom                                   : XCFun DFT Library      
  Mihaly Kallay                                 : mrcc  (arbitrary order and MRCC methods)
  Frank Weinhold                                : gennbo (NPA and NBO analysis)           
  Simon Mueller                                 : openCOSMO-RS                            
  Christopher J. Cramer and Donald G. Truhlar   : smd solvation model                     
  S Lehtola, MJT Oliveira, MAL Marques          : LibXC Library                           
  Liviu Ungur et al                             : ANISO software                          


 Your calculation uses the libint2 library for the computation of 2-el integrals
 For citations please refer to: http://libint.valeyev.net

 Your ORCA version has been built with support for libXC version: 6.2.2
 For citations please refer to: https://libxc.gitlab.io

 This ORCA versions uses:
   CBLAS   interface :  Fast vector & matrix operations
   LAPACKE interface :  Fast linear algebra routines
   SCALAPACK package :  Parallel linear algebra routines
   Shared memory     :  Shared parallel matrices
   BLAS/LAPACK       :  OpenBLAS 0.3.27  USE64BITINT DYNAMIC_ARCH NO_AFFINITY SkylakeX SINGLE_THREADED
        Core in use  :  SkylakeX
   Copyright (c) 2011-2014, The OpenBLAS Project


NOTE: MaxCore=8000 MB was set to SCF,MP2,MDCI,CIPSI,MRCI and CIS
      => If you want to overwrite this, your respective input block should be placed after the MaxCore statement
Your calculation utilizes the atom-pairwise dispersion correction
with the Becke-Johnson damping scheme (D3BJ)


Your calculation utilizes the SMD solvation module
Please cite in your paper:
A.V. Marenich, C.J. Cramer, D.G. Truhlar J. Phys. Chem. B, 113, (2009), 6378 

Warning: RI is on but no J-basis has been assigned. Assigning Def2/J (nothing to worry about!)
================================================================================

----- Orbital basis set information -----
Your calculation utilizes the basis: def2-TZVP
   F. Weigend and R. Ahlrichs, Phys. Chem. Chem. Phys. 7, 3297 (2005).

----- AuxJ basis set information -----
Your calculation utilizes the auxiliary basis: def2/J
   F. Weigend, Phys. Chem. Chem. Phys. 8, 1057 (2006).

================================================================================
                                        WARNINGS
                       Please study these warnings very carefully!
================================================================================


WARNING: your system is open-shell and RHF/RKS was chosen
  ===> : WILL SWITCH to UHF/UKS


WARNING: Geometry Optimization
  ===> : Switching off AutoStart
         For restart on a previous wavefunction, please use MOREAD

================================================================================
                                       INPUT FILE
================================================================================
NAME = rf_mecn_opt_TP_D_A.inp
|  1> !TPSSh def2-TZVP opt d3 TightSCF SlowConv defgrid2
|  2>  
|  3> %pal
|  4> nprocs 20
|  5> end
|  6>  
|  7> %scf
|  8> MaxIter 1500
|  9> end
| 10>  
| 11> %maxcore 8000
| 12>  
| 13> !CPCM
| 14> %cpcm smd true
| 15> SMDsolvent "ACETONITRILE"
| 16> end
| 17>  
| 18> * xyz -2 2
| 19> 6        4.790427000     -0.033865800     -0.529943200
| 20> 8        5.449345000     -1.206924000     -0.894594600
| 21> 8        4.978223000      1.323071000     -0.737377200
| 22> 6        3.506687600     -0.338741600      0.376153800
| 23> 6        2.222300000      0.400524800     -0.110681600
| 24> 6        0.900506800     -0.386389800      0.175703000
| 25> 6       -0.395261200      0.487294000      0.065549000
| 26> 6       -1.705693600     -0.364773800     -0.068373600
| 27> 6       -3.005136200      0.445344800      0.258164000
| 28> 6       -4.319880200     -0.214526000     -0.270540800
| 29> 9        3.211587400     -1.692050400      0.412735200
| 30> 9        3.741061800      0.055285800      1.689948800
| 31> 9        2.125696800      1.616867800      0.483236600
| 32> 9        2.314152400      0.589704000     -1.455769200
| 33> 9        0.794028800     -1.413561400     -0.700839000
| 34> 9        0.958350600     -0.884509000      1.435093400
| 35> 9       -0.498373400      1.260265600      1.173340200
| 36> 9       -0.299075000      1.289512600     -1.020910800
| 37> 9       -1.641790400     -1.418189000      0.779523800
| 38> 9       -1.792381400     -0.831391600     -1.336863600
| 39> 9       -2.918792200      1.679227200     -0.295171200
| 40> 9       -3.119771000      0.573779800      1.598579800
| 41> 9       -4.383115600     -1.504377600      0.089127600
| 42> 9       -5.365669800      0.430528600      0.260394200
| 43> 9       -4.396020400     -0.128550600     -1.602941800
| 44> *
| 45> 
| 46>                          ****END OF INPUT****
================================================================================

                       *****************************
                       * Geometry Optimization Run *
                       *****************************

Geometry optimization settings:
Update method            Update   .... BFGS
Choice of coordinates    CoordSys .... (2022) Redundant Internals
Initial Hessian          InHess   .... Almloef's Model
Max. no of cycles        MaxIter  .... 75

Convergence Tolerances:
Energy Change            TolE     ....  5.0000e-06 Eh
Max. Gradient            TolMAXG  ....  3.0000e-04 Eh/bohr
RMS Gradient             TolRMSG  ....  1.0000e-04 Eh/bohr
Max. Displacement        TolMAXD  ....  4.0000e-03 bohr
RMS Displacement         TolRMSD  ....  2.0000e-03 bohr
Strict Convergence                .... False

------------------------------------------------------------------------------
                        ORCA OPTIMIZATION COORDINATE SETUP
------------------------------------------------------------------------------

The optimization will be done in redundant internal coordinates (2022)
Making redundant internal coordinates   ...  (2022 redundants) done
Evaluating the initial hessian          ...  (Almloef) done
Evaluating the coordinates              ...  done
Calculating the B-matrix                .... done
Calculating the G-matrix                .... done
Diagonalizing the G-matrix              .... done
Small eigenvalue found = 5.470e-03
Small eigenvalue found = 1.492e-02
Small eigenvalue found = 2.979e-02
The first mode is                       ....   41
The number of degrees of freedom        ....   69

    -----------------------------------------------------------------
                    Redundant Internal Coordinates


    -----------------------------------------------------------------
         Definition                    Initial Value    Approx d2E/dq
    -----------------------------------------------------------------
      1. B(O   1,C   0)                  1.3940         0.551454   
      2. B(O   2,C   0)                  1.3855         0.568952   
      3. B(C   3,C   0)                  1.6006         0.288221   
      4. B(C   4,C   3)                  1.5599         0.334759   
      5. B(C   5,C   4)                  1.5647         0.328824   
      6. B(C   6,C   5)                  1.5667         0.326486   
      7. B(C   7,C   6)                  1.5688         0.323927   
      8. B(C   8,C   7)                  1.5657         0.327637   
      9. B(C   9,C   8)                  1.5632         0.330714   
     10. B(F  10,C   3)                  1.3856         0.528443   
     11. B(F  11,C   3)                  1.3915         0.517117   
     12. B(F  12,C   4)                  1.3570         0.586881   
     13. B(F  13,C   4)                  1.3614         0.577499   
     14. B(F  14,C   5)                  1.3545         0.592326   
     15. B(F  15,C   5)                  1.3556         0.590092   
     16. B(F  16,C   6)                  1.3547         0.591865   
     17. B(F  17,C   6)                  1.3540         0.593567   
     18. B(F  18,C   7)                  1.3538         0.593973   
     19. B(F  19,C   7)                  1.3544         0.592672   
     20. B(F  20,C   8)                  1.3550         0.591238   
     21. B(F  21,C   8)                  1.3514         0.599114   
     22. B(F  22,C   9)                  1.3406         0.623533   
     23. B(F  23,C   9)                  1.3385         0.628179   
     24. B(F  24,C   9)                  1.3373         0.630929   
     25. A(O   1,C   0,C   3)          111.5249         0.369222   
     26. A(O   1,C   0,O   2)          136.1318         0.413163   
     27. A(O   2,C   0,C   3)          112.3347         0.371210   
     28. A(C   0,C   3,F  10)          111.8265         0.364982   
     29. A(C   4,C   3,F  11)          107.4072         0.373095   
     30. A(F  10,C   3,F  11)          106.7094         0.399684   
     31. A(C   0,C   3,C   4)          113.1687         0.341363   
     32. A(C   0,C   3,F  11)          110.2099         0.363632   
     33. A(C   4,C   3,F  10)          107.2033         0.374492   
     34. A(C   3,C   4,F  12)          110.2926         0.381351   
     35. A(F  12,C   4,F  13)          108.2194         0.415201   
     36. A(C   3,C   4,C   5)          113.5839         0.349005   
     37. A(C   5,C   4,F  13)          107.9208         0.379109   
     38. A(C   3,C   4,F  13)          108.5818         0.380286   
     39. A(C   5,C   4,F  12)          108.0911         0.380169   
     40. A(F  14,C   5,F  15)          109.0206         0.417483   
     41. A(C   4,C   5,C   6)          113.9128         0.347536   
     42. A(C   6,C   5,F  15)          107.7906         0.380059   
     43. A(C   4,C   5,F  15)          108.5900         0.380529   
     44. A(C   6,C   5,F  14)          108.2026         0.380308   
     45. A(C   4,C   5,F  14)          109.2282         0.380779   
     46. A(C   5,C   6,C   7)          113.2023         0.346660   
     47. A(F  16,C   6,F  17)          108.8752         0.417862   
     48. A(C   7,C   6,F  17)          108.2186         0.379927   
     49. A(C   5,C   6,F  17)          109.1523         0.380446   
     50. A(C   7,C   6,F  16)          108.4284         0.379738   
     51. A(C   5,C   6,F  16)          108.8835         0.380256   
     52. A(C   8,C   7,F  18)          108.1296         0.380723   
     53. A(C   6,C   7,F  18)          109.2524         0.379972   
     54. A(F  18,C   7,F  19)          108.7561         0.418014   
     55. A(C   6,C   7,C   8)          113.2298         0.346865   
     56. A(C   8,C   7,F  19)          108.6915         0.380579   
     57. A(C   6,C   7,F  19)          108.6955         0.379828   
     58. A(C   9,C   8,F  21)          107.7127         0.381912   
     59. A(C   7,C   8,F  21)          109.0521         0.381293   
     60. A(C   9,C   8,F  20)          107.4499         0.381036   
     61. A(C   7,C   8,C   9)          114.1471         0.348078   
     62. A(F  20,C   8,F  21)          108.8987         0.418476   
     63. A(C   7,C   8,F  20)          109.4572         0.380419   
     64. A(F  23,C   9,F  24)          108.6464         0.426961   
     65. A(F  22,C   9,F  24)          109.0552         0.426394   
     66. A(C   8,C   9,F  24)          110.9604         0.385362   
     67. A(F  22,C   9,F  23)          108.6877         0.426061   
     68. A(C   8,C   9,F  23)          108.6349         0.385069   
     69. A(C   8,C   9,F  22)          110.7995         0.384572   
     70. D(F  11,C   3,C   0,O   1)    108.6317         0.006601   
     71. D(F  10,C   3,C   0,O   1)     -9.8890         0.006601   
     72. D(C   4,C   3,C   0,O   2)     49.8076         0.006601   
     73. D(C   4,C   3,C   0,O   1)   -131.0839         0.006601   
     74. D(F  10,C   3,C   0,O   2)    171.0025         0.006601   
     75. D(C   5,C   4,C   3,C   0)    148.6429         0.009100   
     76. D(F  12,C   4,C   3,F  11)     32.0233         0.009100   
     77. D(C   5,C   4,C   3,F  11)    -89.4885         0.009100   
     78. D(F  12,C   4,C   3,C   0)    -89.8453         0.009100   
     79. D(F  12,C   4,C   3,F  10)    146.3851         0.009100   
     80. D(C   5,C   4,C   3,F  10)     24.8733         0.009100   
     81. D(F  14,C   5,C   4,C   3)    -74.9661         0.008811   
     82. D(C   6,C   5,C   4,F  12)     41.2001         0.008811   
     83. D(C   6,C   5,C   4,C   3)    163.9326         0.008811   
     84. D(C   6,C   5,C   4,F  13)    -75.6292         0.008811   
     85. D(F  14,C   5,C   4,F  13)     45.4721         0.008811   
     86. D(F  14,C   5,C   4,F  12)    162.3014         0.008811   
     87. D(F  16,C   6,C   5,F  14)    161.9826         0.008700   
     88. D(F  16,C   6,C   5,C   4)    -76.3465         0.008700   
     89. D(C   7,C   6,C   5,F  15)    -76.4529         0.008700   
     90. D(C   7,C   6,C   5,F  14)     41.3107         0.008700   
     91. D(F  16,C   6,C   5,F  15)     44.2190         0.008700   
     92. D(C   7,C   6,C   5,C   4)    162.9815         0.008700   
     93. D(F  18,C   7,C   6,F  17)    162.9167         0.008578   
     94. D(F  18,C   7,C   6,F  16)    -79.1358         0.008578   
     95. D(F  18,C   7,C   6,C   5)     41.7939         0.008578   
     96. D(C   8,C   7,C   6,F  17)    -76.5134         0.008578   
     97. D(C   8,C   7,C   6,F  16)     41.4341         0.008578   
     98. D(C   8,C   7,C   6,C   5)    162.3638         0.008578   
     99. D(C   9,C   8,C   7,F  18)    -76.3785         0.008755   
    100. D(C   9,C   8,C   7,C   6)    162.4166         0.008755   
    101. D(F  20,C   8,C   7,F  19)    -78.9355         0.008755   
    102. D(F  20,C   8,C   7,F  18)    163.1633         0.008755   
    103. D(F  20,C   8,C   7,C   6)     41.9584         0.008755   
    104. D(C   9,C   8,C   7,F  19)     41.5227         0.008755   
    105. D(F  23,C   9,C   8,F  21)     48.1091         0.008903   
    106. D(F  23,C   9,C   8,F  20)    -69.0724         0.008903   
    107. D(F  23,C   9,C   8,C   7)    169.3552         0.008903   
    108. D(F  22,C   9,C   8,F  21)    -71.2185         0.008903   
    109. D(F  22,C   9,C   8,F  20)    171.5999         0.008903   
    110. D(F  22,C   9,C   8,C   7)     50.0276         0.008903   
    -----------------------------------------------------------------

Number of atoms                         .... 25
Number of degrees of freedom            .... 110


         *************************************************************
         *                GEOMETRY OPTIMIZATION CYCLE   1            *
         *************************************************************
---------------------------------
CARTESIAN COORDINATES (ANGSTROEM)
---------------------------------
  C      4.790427   -0.033866   -0.529943
  O      5.449345   -1.206924   -0.894595
  O      4.978223    1.323071   -0.737377
  C      3.506688   -0.338742    0.376154
  C      2.222300    0.400525   -0.110682
  C      0.900507   -0.386390    0.175703
  C     -0.395261    0.487294    0.065549
  C     -1.705694   -0.364774   -0.068374
  C     -3.005136    0.445345    0.258164
  C     -4.319880   -0.214526   -0.270541
  F      3.211587   -1.692050    0.412735
  F      3.741062    0.055286    1.689949
  F      2.125697    1.616868    0.483237
  F      2.314152    0.589704   -1.455769
  F      0.794029   -1.413561   -0.700839
  F      0.958351   -0.884509    1.435093
  F     -0.498373    1.260266    1.173340
  F     -0.299075    1.289513   -1.020911
  F     -1.641790   -1.418189    0.779524
  F     -1.792381   -0.831392   -1.336864
  F     -2.918792    1.679227   -0.295171
  F     -3.119771    0.573780    1.598580
  F     -4.383116   -1.504378    0.089128
  F     -5.365670    0.430529    0.260394
  F     -4.396020   -0.128551   -1.602942

----------------------------
CARTESIAN COORDINATES (A.U.)
----------------------------
  NO LB      ZA    FRAG     MASS         X           Y           Z
   0 C     6.0000    0    12.011    9.052595   -0.063997   -1.001448
   1 O     8.0000    0    15.999   10.297770   -2.280756   -1.690539
   2 O     8.0000    0    15.999    9.407478    2.500242   -1.393441
   3 C     6.0000    0    12.011    6.626679   -0.640129    0.710828
   4 C     6.0000    0    12.011    4.199538    0.756882   -0.209158
   5 C     6.0000    0    12.011    1.701711   -0.730171    0.332031
   6 C     6.0000    0    12.011   -0.746935    0.920852    0.123870
   7 C     6.0000    0    12.011   -3.223294   -0.689323   -0.129207
   8 C     6.0000    0    12.011   -5.678884    0.841580    0.487859
   9 C     6.0000    0    12.011   -8.163391   -0.405395   -0.511248
  10 F     9.0000    0    18.998    6.069021   -3.197512    0.779956
  11 F     9.0000    0    18.998    7.069582    0.104475    3.193540
  12 F     9.0000    0    18.998    4.016985    3.055437    0.913185
  13 F     9.0000    0    18.998    4.373114    1.114379   -2.751005
  14 F     9.0000    0    18.998    1.500497   -2.671244   -1.324394
  15 F     9.0000    0    18.998    1.811020   -1.671480    2.711934
  16 F     9.0000    0    18.998   -0.941789    2.381557    2.217292
  17 F     9.0000    0    18.998   -0.565170    2.436826   -1.929242
  18 F     9.0000    0    18.998   -3.102534   -2.679989    1.473086
  19 F     9.0000    0    18.998   -3.387110   -1.571102   -2.526306
  20 F     9.0000    0    18.998   -5.515718    3.173280   -0.557793
  21 F     9.0000    0    18.998   -5.895513    1.084287    3.020878
  22 F     9.0000    0    18.998   -8.282888   -2.842862    0.168427
  23 F     9.0000    0    18.998  -10.139646    0.813581    0.492074
  24 F     9.0000    0    18.998   -8.307275   -0.242925   -3.029121

--------------------------------
INTERNAL COORDINATES (ANGSTROEM)
--------------------------------
 C      0   0   0     0.000000000000     0.00000000     0.00000000
 O      1   0   0     1.393990356793     0.00000000     0.00000000
 O      1   2   0     1.385486802956   136.13177198     0.00000000
 C      1   2   3     1.600608594862   111.52489317   181.18992567
 C      4   1   2     1.559863783763   113.16872737   228.91614990
 C      5   4   1     1.564732561934   113.58394786   148.64287440
 C      6   5   4     1.566675459667   113.91280616   163.93256239
 C      7   6   5     1.568817348692   113.20226571   162.98152714
 C      8   7   6     1.565717094808   113.22984595   162.36375422
 C      9   8   7     1.563173062643   114.14707705   162.41661495
 F      4   1   2     1.385592665621   111.82651119   350.11101305
 F      4   1   2     1.391490625050   110.20991618   108.63170802
 F      5   4   1     1.357041377479   110.29260564   270.15468021
 F      5   4   1     1.361428031433   108.58179722    28.57841973
 F      6   5   4     1.354527570075   109.22822656   285.03385927
 F      6   5   4     1.355556277776   108.59004089    43.81583148
 F      7   6   5     1.354739297058   108.88346185   283.65347401
 F      7   6   5     1.353957667090   109.15230848    42.38718856
 F      8   7   6     1.353771473879   109.25240264    41.79387651
 F      8   7   6     1.354368423305   108.69554158   283.25540020
 F      9   8   7     1.355028009646   109.45719767    41.95842364
 F      9   8   7     1.351425618925   109.05210362   282.91820052
 F     10   9   8     1.340551089588   110.79953142    50.02756898
 F     10   9   8     1.338530275591   108.63493714   169.35523750
 F     10   9   8     1.337341214598   110.96044107   288.72891896

---------------------------
INTERNAL COORDINATES (A.U.)
---------------------------
 C      0   0   0     0.000000000000     0.00000000     0.00000000
 O      1   0   0     2.634260007667     0.00000000     0.00000000
 O      1   2   0     2.618190619750   136.13177198     0.00000000
 C      1   2   3     3.024711891890   111.52489317   181.18992567
 C      4   1   2     2.947715357535   113.16872737   228.91614990
 C      5   4   1     2.956916014884   113.58394786   148.64287440
 C      6   5   4     2.960587559506   113.91280616   163.93256239
 C      7   6   5     2.964635143173   113.20226571   162.98152714
 C      8   7   6     2.958776512386   113.22984595   162.36375422
 C      9   8   7     2.953968988318   114.14707705   162.41661495
 F      4   1   2     2.618390671194   111.82651119   350.11101305
 F      4   1   2     2.629536199263   110.20991618   108.63170802
 F      5   4   1     2.564436555835   110.29260564   270.15468021
 F      5   4   1     2.572726130452   108.58179722    28.57841973
 F      6   5   4     2.559686148288   109.22822656   285.03385927
 F      6   5   4     2.561630124115   108.59004089    43.81583148
 F      7   6   5     2.560086254300   108.88346185   283.65347401
 F      7   6   5     2.558609187723   109.15230848    42.38718856
 F      8   7   6     2.558257333546   109.25240264    41.79387651
 F      8   7   6     2.559385404477   108.69554158   283.25540020
 F      9   8   7     2.560631842023   109.45719767    41.95842364
 F      9   8   7     2.553824310132   109.05210362   282.91820052
 F     10   9   8     2.533274427850   110.79953142    50.02756898
 F     10   9   8     2.529455642830   108.63493714   169.35523750
 F     10   9   8     2.527208643196   110.96044107   288.72891896

---------------------
BASIS SET INFORMATION
---------------------
There are 3 groups of distinct atoms

 Group   1 Type C   : 11s6p2d1f contracted to 5s3p2d1f pattern {62111/411/11/1}
 Group   2 Type O   : 11s6p2d1f contracted to 5s3p2d1f pattern {62111/411/11/1}
 Group   3 Type F   : 11s6p2d1f contracted to 5s3p2d1f pattern {62111/411/11/1}

Atom   0C    basis set group =>   1
Atom   1O    basis set group =>   2
Atom   2O    basis set group =>   2
Atom   3C    basis set group =>   1
Atom   4C    basis set group =>   1
Atom   5C    basis set group =>   1
Atom   6C    basis set group =>   1
Atom   7C    basis set group =>   1
Atom   8C    basis set group =>   1
Atom   9C    basis set group =>   1
Atom  10F    basis set group =>   3
Atom  11F    basis set group =>   3
Atom  12F    basis set group =>   3
Atom  13F    basis set group =>   3
Atom  14F    basis set group =>   3
Atom  15F    basis set group =>   3
Atom  16F    basis set group =>   3
Atom  17F    basis set group =>   3
Atom  18F    basis set group =>   3
Atom  19F    basis set group =>   3
Atom  20F    basis set group =>   3
Atom  21F    basis set group =>   3
Atom  22F    basis set group =>   3
Atom  23F    basis set group =>   3
Atom  24F    basis set group =>   3
---------------------------------
AUXILIARY/J BASIS SET INFORMATION
---------------------------------
There are 3 groups of distinct atoms

 Group   1 Type C   : 12s5p4d2f1g contracted to 6s4p3d1f1g pattern {711111/2111/211/2/1}
 Group   2 Type O   : 12s5p4d2f1g contracted to 6s4p3d1f1g pattern {711111/2111/211/2/1}
 Group   3 Type F   : 12s5p4d2f1g contracted to 6s4p3d1f1g pattern {711111/2111/211/2/1}

Atom   0C    basis set group =>   1
Atom   1O    basis set group =>   2
Atom   2O    basis set group =>   2
Atom   3C    basis set group =>   1
Atom   4C    basis set group =>   1
Atom   5C    basis set group =>   1
Atom   6C    basis set group =>   1
Atom   7C    basis set group =>   1
Atom   8C    basis set group =>   1
Atom   9C    basis set group =>   1
Atom  10F    basis set group =>   3
Atom  11F    basis set group =>   3
Atom  12F    basis set group =>   3
Atom  13F    basis set group =>   3
Atom  14F    basis set group =>   3
Atom  15F    basis set group =>   3
Atom  16F    basis set group =>   3
Atom  17F    basis set group =>   3
Atom  18F    basis set group =>   3
Atom  19F    basis set group =>   3
Atom  20F    basis set group =>   3
Atom  21F    basis set group =>   3
Atom  22F    basis set group =>   3
Atom  23F    basis set group =>   3
Atom  24F    basis set group =>   3


           ************************************************************
           *        Program running with 20 parallel MPI-processes    *
           *              working on a common directory               *
           ************************************************************
------------------------------------------------------------------------------
                             ORCA STARTUP CALCULATIONS
                           -- RI-GTO INTEGRALS CHOSEN --
------------------------------------------------------------------------------
------------------------------------------------------------------------------
                   ___                                                        
                  /   \      - P O W E R E D   B Y -                         
                 /     \                                                     
                 |  |  |   _    _      __       _____    __    __             
                 |  |  |  | |  | |    /  \     |  _  \  |  |  /  |          
                  \  \/   | |  | |   /    \    | | | |  |  | /  /          
                 / \  \   | |__| |  /  /\  \   | |_| |  |  |/  /          
                |  |  |   |  __  | /  /__\  \  |    /   |      \           
                |  |  |   | |  | | |   __   |  |    \   |  |\   \          
                \     /   | |  | | |  |  |  |  | |\  \  |  | \   \       
                 \___/    |_|  |_| |__|  |__|  |_| \__\ |__|  \__/        
                                                                              
                      - O R C A' S   B I G   F R I E N D -                    
                                      &                                       
                       - I N T E G R A L  F E E D E R -                       
                                                                              
 v1 FN, 2020, v2 2021, v3 2022-2024                                           
------------------------------------------------------------------------------


----------------------
SHARK INTEGRAL PACKAGE
----------------------

Number of atoms                             ...     25
Number of basis functions                   ...    775
Number of shells                            ...    275
Maximum angular momentum                    ...      3
Integral batch strategy                     ... SHARK/LIBINT Hybrid
RI-J (if used) integral strategy            ... SPLIT-RIJ (Revised 2003 algorithm where possible)
Printlevel                                  ...      1
Contraction scheme used                     ... SEGMENTED contraction
Prescreening option                         ... SCHWARTZ
   Thresh                                   ... 2.500e-11
   Tcut                                     ... 2.500e-12
   Tpresel                                  ... 2.500e-12 
Coulomb Range Separation                    ... NOT USED
Exchange Range Separation                   ... NOT USED
Multipole approximations                    ... NOT USED
Finite Nucleus Model                        ... NOT USED
CABS basis                                  ... NOT available
Auxiliary Coulomb fitting basis             ... AVAILABLE
   # of basis functions in Aux-J            ...   1225
   # of shells in Aux-J                     ...    375
   Maximum angular momentum in Aux-J        ...      4
Auxiliary J/K fitting basis                 ... NOT available
Auxiliary Correlation fitting basis         ... NOT available
Auxiliary 'external' fitting basis          ... NOT available

Checking pre-screening integrals            ... done (  0.0 sec) Dimension = 275
Check shell pair data                       ... done (  0.0 sec)
Shell pair information
Shell pair cut-off parameter TPreSel        ...   2.5e-12
Total number of shell pairs                 ...     37950
Shell pairs after pre-screening             ...     23325
Total number of primitive shell pairs       ...    125800
Primitive shell pairs kept                  ...     49419
          la=0 lb=0:   4351 shell pairs
          la=1 lb=0:   6349 shell pairs
          la=1 lb=1:   2227 shell pairs
          la=2 lb=0:   3461 shell pairs
          la=2 lb=1:   2576 shell pairs
          la=2 lb=2:    727 shell pairs
          la=3 lb=0:   1568 shell pairs
          la=3 lb=1:   1240 shell pairs
          la=3 lb=2:    666 shell pairs
          la=3 lb=3:    160 shell pairs

Calculating one electron integrals          ... done (  0.1 sec)
Calculating RI/J V-Matrix + Cholesky decomp.... done (  0.1 sec)
Calculating Nuclear repulsion               ... done (  0.0 sec) ENN=   2860.975784253119 Eh

Diagonalization of the overlap matrix:
Smallest eigenvalue                        ... 6.047e-05
Time for diagonalization                   ...    0.176 sec
Threshold for overlap eigenvalues          ... 1.000e-07
Number of eigenvalues below threshold      ... 0
Time for construction of square roots      ...    0.058 sec
Total time needed                          ...    0.242 sec

-------------------
DFT GRID GENERATION
-------------------

General Integration Accuracy     IntAcc      ... 4.388
Radial Grid Type                 RadialGrid  ... OptM3 with GC (2021)
Angular Grid (max. ang.)         AngularGrid ... 4 (Lebedev-302)
Angular grid pruning method      GridPruning ... 4 (adaptive)
Weight generation scheme         WeightScheme... mBecke (2022)
Basis function cutoff            BFCut       ... 1.0000e-11
Integration weight cutoff        WCut        ... 1.0000e-14
Partially contracted basis set               ... off
Rotationally invariant grid construction     ... off
Angular grids for H and He will be reduced by one unit

Total number of grid points                  ...   151489
Total number of batches                      ...     2379
Average number of points per batch           ...       63
Average number of grid points per atom       ...     6060

--------------------
COSX GRID GENERATION
--------------------

GRIDX 1
-------
General Integration Accuracy     IntAcc      ... 3.816
Radial Grid Type                 RadialGrid  ... OptM3 with GC (2021)
Angular Grid (max. ang.)         AngularGrid ... 1 (Lebedev-50)
Angular grid pruning method      GridPruning ... 4 (adaptive)
Weight generation scheme         WeightScheme... mBecke (2022)
Basis function cutoff            BFCut       ... 1.0000e-11
Integration weight cutoff        WCut        ... 1.0000e-14
Partially contracted basis set               ... on
Rotationally invariant grid construction     ... off
Angular grids for H and He will be reduced by one unit

Total number of grid points                  ...    19031
Total number of batches                      ...      159
Average number of points per batch           ...      119
Average number of grid points per atom       ...      761
UseSFitting                                  ... on

GRIDX 2
-------
General Integration Accuracy     IntAcc      ... 4.020
Radial Grid Type                 RadialGrid  ... OptM3 with GC (2021)
Angular Grid (max. ang.)         AngularGrid ... 2 (Lebedev-110)
Angular grid pruning method      GridPruning ... 4 (adaptive)
Weight generation scheme         WeightScheme... mBecke (2022)
Basis function cutoff            BFCut       ... 1.0000e-11
Integration weight cutoff        WCut        ... 1.0000e-14
Partially contracted basis set               ... on
Rotationally invariant grid construction     ... off
Angular grids for H and He will be reduced by one unit

Total number of grid points                  ...    45091
Total number of batches                      ...      367
Average number of points per batch           ...      122
Average number of grid points per atom       ...     1804
UseSFitting                                  ... on

GRIDX 3
-------
General Integration Accuracy     IntAcc      ... 4.338
Radial Grid Type                 RadialGrid  ... OptM3 with GC (2021)
Angular Grid (max. ang.)         AngularGrid ... 3 (Lebedev-194)
Angular grid pruning method      GridPruning ... 4 (adaptive)
Weight generation scheme         WeightScheme... mBecke (2022)
Basis function cutoff            BFCut       ... 1.0000e-11
Integration weight cutoff        WCut        ... 1.0000e-14
Partially contracted basis set               ... on
Rotationally invariant grid construction     ... off
Angular grids for H and He will be reduced by one unit

Total number of grid points                  ...    99878
Total number of batches                      ...      788
Average number of points per batch           ...      126
Average number of grid points per atom       ...     3995
UseSFitting                                  ... on
Initializing property integral containers    ... done (  0.0 sec)

SHARK setup successfully completed in   4.2 seconds

Maximum memory used throughout the entire STARTUP-calculation: 59.4 MB


           ************************************************************
           *        Program running with 20 parallel MPI-processes    *
           *              working on a common directory               *
           ************************************************************
-------------------------------------------------------------------------------
                                 ORCA GUESS
                   Start orbitals & Density for SCF / CASSCF
-------------------------------------------------------------------------------

------------
SCF SETTINGS
------------
Hamiltonian:
 Density Functional     Method          .... DFT(GTOs)
 Exchange Functional    Exchange        .... TPSS
 Correlation Functional Correlation     .... TPSS
 LDA part of GGA corr.  LDAOpt          .... PW91-LDA
 Gradients option       PostSCFGGA      .... off
 Hybrid DFT is turned on
   Fraction HF Exchange ScalHFX         ....  0.100000
   Scaling of DF-GGA-X  ScalDFX         ....  0.900000
   Scaling of DF-GGA-C  ScalDFC         ....  1.000000
   Scaling of DF-LDA-C  ScalLDAC        ....  1.000000
   Perturbative correction              ....  0.000000
   NL short-range parameter             ....  5.200000
 RI-approximation to the Coulomb term is turned on
   Number of AuxJ basis functions       .... 1225
   RIJ-COSX (HFX calculated with COS-X)).... on


General Settings:
 Integral files         IntName         .... rf_mecn_opt_TP_D_A
 Hartree-Fock type      HFTyp           .... UHF
 Total Charge           Charge          ....   -2
 Multiplicity           Mult            ....    2
 Number of Electrons    NEL             ....  201
 Basis Dimension        Dim             ....  775
 Nuclear Repulsion      ENuc            ....   2860.9757842531 Eh

Convergence Acceleration:
 AO-DIIS                CNVDIIS         .... on
   Start iteration      DIISMaxIt       ....     0
   Startup error        DIISStart       ....  0.200000
   # of expansion vecs  DIISMaxEq       ....     5
   Bias factor          DIISBfac        ....   1.050
   Max. coefficient     DIISMaxC        ....  10.000
 MO-DIIS                CNVKDIIS        .... off
 Trust-Rad. Augm. Hess. CNVTRAH         .... auto
   Auto Start mean grad. ratio tolernc. ....  1.125000
   Auto Start start iteration           ....    50
   Auto Start num. interpolation iter.  ....    10
   Max. Number of Micro iterations      ....    24
   Max. Number of Macro iterations      .... Maxiter - #DIIS iter
   Number of Davidson start vectors     ....     2
   Converg. threshold    (grad. norm)   ....   1.000e-05
   Grad. Scal. Fac. for Micro threshold ....   0.100
   Minimum threshold for Micro iter.    ....   1.000e-02
   NR start threshold (gradient norm)   ....   1.000e-04
   Initial trust radius                 ....   0.400
   Minimum AH scaling param. (alpha)    ....   1.000
   Maximum AH scaling param. (alpha)    .... 1000.000
   Quad. conv. algorithm                .... NR
   White noise on init. David. guess    .... on
   Maximum white noise                  ....   0.010
   Pseudo random numbers                .... off
   Inactive MOs                         .... canonical
   Orbital update algorithm             .... Taylor
   Preconditioner                       .... Diag
   Full preconditioner red. dimension   ....   250
 SOSCF                  CNVSOSCF        .... on
   Start iteration      SOSCFMaxIt      ....   150
   Startup grad/error   SOSCFStart      ....  0.001000
   Hessian update       SOSCFHessUp     .... L-BFGS
 Level Shifting         CNVShift        .... on
   Level shift para.    LevelShift      ....    0.2500
   Turn off err/grad.   ShiftErr        ....    0.0000
 Zerner damping         CNVZerner       .... off
 Static damping         CNVDamp         .... on
   Fraction old density DampFac         ....    0.8500
   Max. Damping (<1)    DampMax         ....    0.9800
   Min. Damping (>=0)   DampMin         ....    0.0000
   Turn off err/grad.   DampErr         ....    0.0300

SCF Procedure:
 Maximum # iterations   MaxIter         ....  1500
 SCF integral mode      SCFMode         .... Direct
   Integral package                     .... SHARK and LIBINT hybrid scheme
 Reset frequency        DirectResetFreq ....    20
 Integral Threshold     Thresh          ....  2.500e-11 Eh
 Primitive CutOff       TCut            ....  2.500e-12 Eh

Convergence Tolerance:
 Convergence Check Mode ConvCheckMode   .... Total+1el-Energy
 Convergence forced     ConvForced      .... 0
 Energy Change          TolE            ....  1.000e-08 Eh
 1-El. energy change                    ....  1.000e-05 Eh
 Orbital Gradient       TolG            ....  1.000e-05
 Orbital Rotation angle TolX            ....  1.000e-05
 DIIS Error             TolErr          ....  5.000e-07

------------------------------
INITIAL GUESS: MODEL POTENTIAL
------------------------------
Loading Hartree-Fock densities                     ... done
Calculating cut-offs                               ... done
Initializing the effective Hamiltonian             ... done
Setting up the integral package (SHARK)            ... done
Starting the Coulomb interaction                   ... done (   0.2 sec)
Making the grid                                    ... done (   0.4 sec)
Mapping shells                                     ... done
Starting the XC term evaluation                    ... done (   0.2 sec)
  promolecular density results
     # of electrons  =    199.000496603
     EX              =   -207.068070787
     EC              =     -6.981308686
     EX+EC           =   -214.049379473
Transforming the Hamiltonian                       ... done (   0.1 sec)
Diagonalizing the Hamiltonian                      ... done (   0.1 sec)
Back transforming the eigenvectors                 ... done (   0.0 sec)
Now organizing SCF variables                       ... done
                      ------------------
                      INITIAL GUESS DONE (   1.3 sec)
                      ------------------
             **** ENERGY FILE WAS UPDATED (rf_mecn_opt_TP_D_A.en.tmp) ****
Finished Guess after   2.1 sec
Maximum memory used throughout the entire GUESS-calculation: 48.5 MB


           ************************************************************
           *        Program running with 20 parallel MPI-processes    *
           *              working on a common directory               *
           ************************************************************

-------------------------------------------------------------------------------------------
                                      ORCA LEAN-SCF
                              memory conserving SCF solver
-------------------------------------------------------------------------------------------

--------------------
CPCM SOLVATION MODEL
--------------------
CPCM parameters:
  Epsilon                                         ...      35.6880
  Refrac                                          ...       1.3442
  Rsolv                                           ...       1.3000
  Surface type                                    ... GAUSSIAN VDW
  Discretization scheme                           ... Constant charge density
    Threshold for H atoms                         ...       5.0000 (charges/Ang^2)
    Threshold for non-H atoms                     ...       5.0000 (charges/Ang^2)
  Epsilon function type                           ...         CPCM
Solvent:                                          ... ACETONITRILE
SMD-CDS solvent descriptors:
  Soln                                            ...       1.3442
  Soln25                                          ...       1.3416
  Sola                                            ...       0.0700
  Solb                                            ...       0.3200
  Solg                                            ...      41.2500
  Solc                                            ...       0.0000
  Solh                                            ...       0.0000
Radii:
  Scheme                                          ... Element-dependent radii
  Radius for C  used is    3.4960 Bohr (=   1.8500 Ang.)
  Radius for O  used is    4.0969 Bohr (=   2.1680 Ang.)
  Radius for F  used is    3.2692 Bohr (=   1.7300 Ang.)
Calculating surface                               ...        done! (  0.0s)
Cavity surface points                             ...         2164
Cavity Volume                                     ...    2191.6855
Cavity Surface-area                               ...    1131.7098
Calculating surface distance matrix               ...        done! (  0.1s)
Performing Cholesky decomposition & store         ...        done! (  0.1s)
Overall time for CPCM initialization              ...                 0.2s

----------------------------------------D-I-I-S--------------------------------------------
Iteration    Energy (Eh)           Delta-E    RMSDP     MaxDP     DIISErr   Damp  Time(sec)
-------------------------------------------------------------------------------------------
               ***  Starting incremental Fock matrix formation  ***
    1    -1953.2681553226188953     0.00e+00  6.46e-04  1.30e-01  1.91e-01  0.850   8.7
Warning: op=0 Small HOMO/LUMO gap (  -0.046) - skipping pre-diagonalization
         Will do a full diagonalization
    2    -1953.4617489156539705    -1.94e-01  9.06e-04  2.27e-01  1.25e-01  0.850   6.1
                               ***Turning on AO-DIIS***
    3    -1953.5603960347020802    -9.86e-02  5.05e-04  7.37e-02  6.60e-02  0.850   5.3
    4    -1953.6149340551087334    -5.45e-02  3.28e-04  4.52e-02  4.40e-02  0.850   5.4
    5    -1953.6525364742406055    -3.76e-02  2.28e-04  2.26e-02  3.50e-02  0.850   5.2
    6    -1953.6818405822455134    -2.93e-02  1.68e-04  2.54e-02  3.01e-02  0.850   5.1
    7    -1953.7060081278827965    -2.42e-02  1.30e-04  2.42e-02  2.60e-02  0.850   5.0
    8    -1953.7264680214252621    -2.05e-02  6.97e-04  1.34e-01  2.20e-02  0.000   5.0
    9    -1953.8398633126585082    -1.13e-01  7.85e-05  8.66e-03  3.39e-03  0.000   5.2
   10    -1953.8402207037966036    -3.57e-04  5.47e-05  4.97e-03  3.02e-03  0.000   4.9
                              *** Initializing SOSCF ***
---------------------------------------S-O-S-C-F--------------------------------------
Iteration    Energy (Eh)           Delta-E    RMSDP     MaxDP     MaxGrad    Time(sec)
--------------------------------------------------------------------------------------
   11    -1953.8405051510785597    -2.84e-04  4.68e-05  4.04e-03  7.94e-04     5.3
               *** Restarting incremental Fock matrix formation ***
   12    -1953.8406599903742062    -1.55e-04  9.09e-05  7.63e-03  3.16e-03     8.8
   13    -1953.8408825086639808    -2.23e-04  3.95e-04  4.16e-02  1.77e-03     6.8
   14    -1953.8411764818788470    -2.94e-04  4.18e-05  5.92e-03  1.33e-03     7.5
   15    -1953.8413164176413375    -1.40e-04  3.57e-05  1.96e-03  1.18e-03     6.6
   16    -1953.8413564113229768    -4.00e-05  6.60e-05  5.46e-03  7.57e-04     6.4
   17    -1953.8413889047692464    -3.25e-05  6.98e-05  6.28e-03  4.92e-04     7.1
   18    -1953.8413981036651421    -9.20e-06  1.07e-05  6.15e-04  5.61e-04     6.7
   19    -1953.8414052236116731    -7.12e-06  1.24e-05  1.82e-03  2.05e-04     6.0
   20    -1953.8414068365123057    -1.61e-06  9.21e-06  7.10e-04  2.67e-04     5.9
   21    -1953.8414096160590816    -2.78e-06  1.22e-05  7.11e-04  1.35e-04     5.9
   22    -1953.8414102558813283    -6.40e-07  3.57e-06  2.23e-04  8.17e-05     6.2
   23    -1953.8414107196317673    -4.64e-07  1.78e-06  1.31e-04  4.60e-05     5.5
   24    -1953.8414107930598220    -7.34e-08  7.17e-07  6.64e-05  1.47e-05     5.1
   25    -1953.8414108135025344    -2.04e-08  6.62e-07  6.01e-05  1.07e-05     4.6
   26    -1953.8414108072506679     6.25e-09  3.33e-07  3.31e-05  4.58e-06     4.6
                 **** Energy Check signals convergence ****

               *****************************************************
               *                     SUCCESS                       *
               *           SCF CONVERGED AFTER  26 CYCLES          *
               *****************************************************

Recomputing exchange energy using gridx3       ... done (   10.040 sec)
Old exchange energy                            :    -20.911207715 Eh
New exchange energy                            :    -20.911218002 Eh
Exchange energy change after final integration :     -0.000010287 Eh
Total energy after final integration           :  -1953.841421094 Eh

SMD CDS free energy correction energy :                 3.69432     Kcal/mol
Total Energy after SMD CDS correction =             -1953.835533827 Eh
             **** ENERGY FILE WAS UPDATED (rf_mecn_opt_TP_D_A.en.tmp) ****

----------------
TOTAL SCF ENERGY
----------------

Total Energy       :      -1953.83553382741707 Eh          -53166.56781 eV

Components:
Nuclear Repulsion  :       2860.97578425311940 Eh           77851.10896 eV
Electronic Energy  :      -4814.54729108554238 Eh         -131010.49224 eV
One Electron Energy:      -8465.10309187895655 Eh         -230347.16575 eV
Two Electron Energy:       3650.55580079341462 Eh           99336.67352 eV
CPCM Dielectric    :         -0.26990397482853 Eh              -7.34446 eV
SMD CDS (Gcds)     :          0.00588726697443 Eh               0.16020 eV

Virial components:
Potential Energy   :      -3900.79101595557495 Eh         -106145.91990 eV
Kinetic Energy     :       1946.95548212815766 Eh           52979.35209 eV
Virial Ratio       :          2.00353374885169

DFT components:
N(Alpha)           :      100.999988309735 electrons
N(Beta)            :       99.999978147032 electrons
N(Total)           :      200.999966456768 electrons
E(X)               :     -190.120609675547 Eh       
E(C)               :       -7.072325870902 Eh       
E(XC)              :     -197.192935546449 Eh       

CPCM Solvation Model Properties:
Surface-charge          :          1.98866125617090
Corrected charge        :          2.00000000000000
Outlying charge corr.   :          0.00000696664637 Eh               0.00019 eV
Free-energy (cav+disp)  :          0.00588726697443 Eh               0.16020 eV

---------------
SCF CONVERGENCE
---------------

  Last Energy change         ...   -6.2519e-09  Tolerance :   1.0000e-08
  Last MAX-Density change    ...    3.3060e-05  Tolerance :   1.0000e-07
  Last RMS-Density change    ...    3.3288e-07  Tolerance :   5.0000e-09
  Last DIIS Error            ...    7.9384e-04  Tolerance :   5.0000e-07
  Last Orbital Gradient      ...    4.5765e-06  Tolerance :   1.0000e-05
  Last Orbital Rotation      ...    7.3238e-05  Tolerance :   1.0000e-05


----------------------
UHF SPIN CONTAMINATION
----------------------

Warning: in a DFT calculation there is little theoretical justification to 
         calculate <S**2> as in Hartree-Fock theory. We will do it anyways
         but you should keep in mind that the values have only limited relevance

Expectation value of <S**2>     :     0.753129
Ideal value S*(S+1) for S=0.5   :     0.750000
Deviation                       :     0.003129

----------------
ORBITAL ENERGIES
----------------
                 SPIN UP ORBITALS
  NO   OCC          E(Eh)            E(eV) 
   0   1.0000     -24.647639      -670.6964 
   1   1.0000     -24.647497      -670.6925 
   2   1.0000     -24.645399      -670.6354 
   3   1.0000     -24.639064      -670.4630 
   4   1.0000     -24.635937      -670.3779 
   5   1.0000     -24.634360      -670.3350 
   6   1.0000     -24.630416      -670.2277 
   7   1.0000     -24.629379      -670.1995 
   8   1.0000     -24.626020      -670.1081 
   9   1.0000     -24.623449      -670.0381 
  10   1.0000     -24.619465      -669.9297 
  11   1.0000     -24.611571      -669.7149 
  12   1.0000     -24.604530      -669.5233 
  13   1.0000     -24.582043      -668.9114 
  14   1.0000     -24.580153      -668.8600 
  15   1.0000     -18.947635      -515.5914 
  16   1.0000     -18.945665      -515.5378 
  17   1.0000     -10.376527      -282.3597 
  18   1.0000     -10.313901      -280.6555 
  19   1.0000     -10.306827      -280.4630 
  20   1.0000     -10.300059      -280.2789 
  21   1.0000     -10.292054      -280.0610 
  22   1.0000     -10.276935      -279.6496 
  23   1.0000     -10.242663      -278.7170 
  24   1.0000     -10.145829      -276.0820 
  25   1.0000      -1.306454       -35.5504 
  26   1.0000      -1.271107       -34.5886 
  27   1.0000      -1.257674       -34.2230 
  28   1.0000      -1.249876       -34.0108 
  29   1.0000      -1.242445       -33.8086 
  30   1.0000      -1.228531       -33.4300 
  31   1.0000      -1.221277       -33.2326 
  32   1.0000      -1.217650       -33.1339 
  33   1.0000      -1.207730       -32.8640 
  34   1.0000      -1.200691       -32.6725 
  35   1.0000      -1.195201       -32.5231 
  36   1.0000      -1.191680       -32.4273 
  37   1.0000      -1.187592       -32.3160 
  38   1.0000      -1.173582       -31.9348 
  39   1.0000      -1.140985       -31.0478 
  40   1.0000      -0.877256       -23.8713 
  41   1.0000      -0.819767       -22.3070 
  42   1.0000      -0.794417       -21.6172 
  43   1.0000      -0.770938       -20.9783 
  44   1.0000      -0.740383       -20.1468 
  45   1.0000      -0.701772       -19.0962 
  46   1.0000      -0.663188       -18.0463 
  47   1.0000      -0.636625       -17.3234 
  48   1.0000      -0.612506       -16.6671 
  49   1.0000      -0.600127       -16.3303 
  50   1.0000      -0.596496       -16.2315 
  51   1.0000      -0.593464       -16.1490 
  52   1.0000      -0.576067       -15.6756 
  53   1.0000      -0.573522       -15.6063 
  54   1.0000      -0.568053       -15.4575 
  55   1.0000      -0.557442       -15.1688 
  56   1.0000      -0.553829       -15.0704 
  57   1.0000      -0.544031       -14.8038 
  58   1.0000      -0.542660       -14.7665 
  59   1.0000      -0.530686       -14.4407 
  60   1.0000      -0.522361       -14.2142 
  61   1.0000      -0.514901       -14.0112 
  62   1.0000      -0.498699       -13.5703 
  63   1.0000      -0.489154       -13.3106 
  64   1.0000      -0.467852       -12.7309 
  65   1.0000      -0.463976       -12.6254 
  66   1.0000      -0.459838       -12.5128 
  67   1.0000      -0.454158       -12.3583 
  68   1.0000      -0.449940       -12.2435 
  69   1.0000      -0.443834       -12.0773 
  70   1.0000      -0.438350       -11.9281 
  71   1.0000      -0.434878       -11.8336 
  72   1.0000      -0.429825       -11.6961 
  73   1.0000      -0.425915       -11.5897 
  74   1.0000      -0.423587       -11.5264 
  75   1.0000      -0.420840       -11.4516 
  76   1.0000      -0.415814       -11.3149 
  77   1.0000      -0.408883       -11.1263 
  78   1.0000      -0.406611       -11.0644 
  79   1.0000      -0.404567       -11.0088 
  80   1.0000      -0.399682       -10.8759 
  81   1.0000      -0.398580       -10.8459 
  82   1.0000      -0.396369       -10.7857 
  83   1.0000      -0.393683       -10.7127 
  84   1.0000      -0.391997       -10.6668 
  85   1.0000      -0.389140       -10.5891 
  86   1.0000      -0.381964       -10.3938 
  87   1.0000      -0.378760       -10.3066 
  88   1.0000      -0.372295       -10.1307 
  89   1.0000      -0.368310       -10.0222 
  90   1.0000      -0.355409        -9.6712 
  91   1.0000      -0.353952        -9.6315 
  92   1.0000      -0.335678        -9.1343 
  93   1.0000      -0.311882        -8.4867 
  94   1.0000      -0.309497        -8.4218 
  95   1.0000      -0.283206        -7.7064 
  96   1.0000      -0.279012        -7.5923 
  97   1.0000      -0.186122        -5.0646 
  98   1.0000      -0.171255        -4.6601 
  99   1.0000      -0.169051        -4.6001 
 100   1.0000      -0.014878        -0.4049 
 101   0.0000       0.003612         0.0983 
 102   0.0000       0.019911         0.5418 
 103   0.0000       0.053396         1.4530 
 104   0.0000       0.064062         1.7432 
 105   0.0000       0.098464         2.6793 
 106   0.0000       0.106022         2.8850 
 107   0.0000       0.112464         3.0603 
 108   0.0000       0.121519         3.3067 
 109   0.0000       0.136370         3.7108 
 110   0.0000       0.146085         3.9752 
 111   0.0000       0.147077         4.0022 

                 SPIN DOWN ORBITALS
  NO   OCC          E(Eh)            E(eV) 
   0   1.0000     -24.647472      -670.6918 
   1   1.0000     -24.647424      -670.6905 
   2   1.0000     -24.645072      -670.6265 
   3   1.0000     -24.638939      -670.4596 
   4   1.0000     -24.635173      -670.3571 
   5   1.0000     -24.634188      -670.3303 
   6   1.0000     -24.629563      -670.2045 
   7   1.0000     -24.629187      -670.1943 
   8   1.0000     -24.625338      -670.0895 
   9   1.0000     -24.623251      -670.0327 
  10   1.0000     -24.618941      -669.9154 
  11   1.0000     -24.611442      -669.7114 
  12   1.0000     -24.604113      -669.5120 
  13   1.0000     -24.581916      -668.9079 
  14   1.0000     -24.578994      -668.8284 
  15   1.0000     -18.944765      -515.5133 
  16   1.0000     -18.942508      -515.4518 
  17   1.0000     -10.376087      -282.3477 
  18   1.0000     -10.313046      -280.6323 
  19   1.0000     -10.305714      -280.4327 
  20   1.0000     -10.298909      -280.2476 
  21   1.0000     -10.291024      -280.0330 
  22   1.0000     -10.276023      -279.6248 
  23   1.0000     -10.241881      -278.6957 
  24   1.0000     -10.140412      -275.9346 
  25   1.0000      -1.305946       -35.5366 
  26   1.0000      -1.269869       -34.5549 
  27   1.0000      -1.256655       -34.1953 
  28   1.0000      -1.248771       -33.9808 
  29   1.0000      -1.241427       -33.7809 
  30   1.0000      -1.227814       -33.4105 
  31   1.0000      -1.220921       -33.2230 
  32   1.0000      -1.217080       -33.1184 
  33   1.0000      -1.206758       -32.8376 
  34   1.0000      -1.199718       -32.6460 
  35   1.0000      -1.194189       -32.4955 
  36   1.0000      -1.190349       -32.3910 
  37   1.0000      -1.186704       -32.2918 
  38   1.0000      -1.172918       -31.9167 
  39   1.0000      -1.139595       -31.0100 
  40   1.0000      -0.870458       -23.6864 
  41   1.0000      -0.814470       -22.1629 
  42   1.0000      -0.790680       -21.5155 
  43   1.0000      -0.767336       -20.8803 
  44   1.0000      -0.737128       -20.0583 
  45   1.0000      -0.699091       -19.0232 
  46   1.0000      -0.661466       -17.9994 
  47   1.0000      -0.634863       -17.2755 
  48   1.0000      -0.610243       -16.6056 
  49   1.0000      -0.598772       -16.2934 
  50   1.0000      -0.594888       -16.1877 
  51   1.0000      -0.592722       -16.1288 
  52   1.0000      -0.573864       -15.6156 
  53   1.0000      -0.572023       -15.5655 
  54   1.0000      -0.565790       -15.3959 
  55   1.0000      -0.556214       -15.1353 
  56   1.0000      -0.551487       -15.0067 
  57   1.0000      -0.541639       -14.7388 
  58   1.0000      -0.541370       -14.7314 
  59   1.0000      -0.529334       -14.4039 
  60   1.0000      -0.520831       -14.1725 
  61   1.0000      -0.512514       -13.9462 
  62   1.0000      -0.493308       -13.4236 
  63   1.0000      -0.487215       -13.2578 
  64   1.0000      -0.467045       -12.7090 
  65   1.0000      -0.463506       -12.6127 
  66   1.0000      -0.459387       -12.5006 
  67   1.0000      -0.453490       -12.3401 
  68   1.0000      -0.449105       -12.2208 
  69   1.0000      -0.443000       -12.0546 
  70   1.0000      -0.437782       -11.9127 
  71   1.0000      -0.434335       -11.8189 
  72   1.0000      -0.429214       -11.6795 
  73   1.0000      -0.425323       -11.5736 
  74   1.0000      -0.422544       -11.4980 
  75   1.0000      -0.420420       -11.4402 
  76   1.0000      -0.414684       -11.2841 
  77   1.0000      -0.407945       -11.1007 
  78   1.0000      -0.406040       -11.0489 
  79   1.0000      -0.404041       -10.9945 
  80   1.0000      -0.398831       -10.8527 
  81   1.0000      -0.397849       -10.8260 
  82   1.0000      -0.395295       -10.7565 
  83   1.0000      -0.391533       -10.6541 
  84   1.0000      -0.389497       -10.5988 
  85   1.0000      -0.387150       -10.5349 
  86   1.0000      -0.380250       -10.3471 
  87   1.0000      -0.377661       -10.2767 
  88   1.0000      -0.370925       -10.0934 
  89   1.0000      -0.366697        -9.9783 
  90   1.0000      -0.353395        -9.6164 
  91   1.0000      -0.352640        -9.5958 
  92   1.0000      -0.333553        -9.0764 
  93   1.0000      -0.309969        -8.4347 
  94   1.0000      -0.306566        -8.3421 
  95   1.0000      -0.279024        -7.5926 
  96   1.0000      -0.260311        -7.0834 
  97   1.0000      -0.169938        -4.6243 
  98   1.0000      -0.169193        -4.6040 
  99   1.0000      -0.166286        -4.5249 
 100   0.0000       0.015317         0.4168 
 101   0.0000       0.022074         0.6007 
 102   0.0000       0.036659         0.9975 
 103   0.0000       0.062446         1.6992 
 104   0.0000       0.071893         1.9563 
 105   0.0000       0.103452         2.8151 
 106   0.0000       0.108948         2.9646 
 107   0.0000       0.118389         3.2215 
 108   0.0000       0.125399         3.4123 
 109   0.0000       0.139986         3.8092 
 110   0.0000       0.150671         4.1000 
*Only the first 10 virtual orbitals were printed.

                    ********************************
                    * MULLIKEN POPULATION ANALYSIS *
                    ********************************

--------------------------------------------
MULLIKEN ATOMIC CHARGES AND SPIN POPULATIONS
--------------------------------------------
   0 C :    0.073440    0.282325
   1 O :   -0.670621    0.084803
   2 O :   -0.669194    0.079153
   3 C :    0.259999    0.101358
   4 C :    0.284027    0.064507
   5 C :    0.248984    0.088742
   6 C :    0.239579    0.100759
   7 C :    0.229065    0.097080
   8 C :    0.261719    0.070710
   9 C :    0.393386    0.030186
  10 F :   -0.216208   -0.002612
  11 F :   -0.236296    0.005263
  12 F :   -0.194246   -0.001269
  13 F :   -0.189003    0.001027
  14 F :   -0.180705   -0.001739
  15 F :   -0.177171   -0.001470
  16 F :   -0.177410   -0.001608
  17 F :   -0.171824   -0.000290
  18 F :   -0.169440    0.001944
  19 F :   -0.174198   -0.001415
  20 F :   -0.162364    0.001802
  21 F :   -0.164691   -0.000843
  22 F :   -0.146429   -0.000123
  23 F :   -0.145606    0.002004
  24 F :   -0.144795   -0.000294
Sum of atomic charges         :   -2.0000000
Sum of atomic spin populations:    1.0000000

-----------------------------------------------------
MULLIKEN REDUCED ORBITAL CHARGES AND SPIN POPULATIONS
-----------------------------------------------------
CHARGE
  0 C s       :     3.111076  s :     3.111076
      pz      :     1.013055  p :     2.634202
      px      :     0.916061
      py      :     0.705086
      dz2     :     0.015439  d :     0.164643
      dxz     :     0.012926
      dyz     :     0.046371
      dx2y2   :     0.040802
      dxy     :     0.049104
      f0      :     0.001847  f :     0.016640
      f+1     :     0.000947
      f-1     :     0.002159
      f+2     :     0.002428
      f-2     :     0.001542
      f+3     :     0.003785
      f-3     :     0.003932

  1 O s       :     3.845495  s :     3.845495
      pz      :     1.687021  p :     4.802438
      px      :     1.663327
      py      :     1.452090
      dz2     :     0.003021  d :     0.021453
      dxz     :     0.001510
      dyz     :     0.004863
      dx2y2   :     0.004945
      dxy     :     0.007115
      f0      :     0.000114  f :     0.001235
      f+1     :     0.000068
      f-1     :     0.000178
      f+2     :     0.000114
      f-2     :     0.000177
      f+3     :     0.000355
      f-3     :     0.000230

  2 O s       :     3.841135  s :     3.841135
      pz      :     1.694929  p :     4.804991
      px      :     1.768194
      py      :     1.341868
      dz2     :     0.002975  d :     0.021810
      dxz     :     0.000270
      dyz     :     0.005638
      dx2y2   :     0.008166
      dxy     :     0.004760
      f0      :     0.000115  f :     0.001258
      f+1     :     0.000018
      f-1     :     0.000230
      f+2     :     0.000213
      f-2     :     0.000028
      f+3     :     0.000276
      f-3     :     0.000378

  3 C s       :     3.096846  s :     3.096846
      pz      :     0.762325  p :     2.365531
      px      :     0.963905
      py      :     0.639301
      dz2     :     0.055927  d :     0.253085
      dxz     :     0.041838
      dyz     :     0.056224
      dx2y2   :     0.051079
      dxy     :     0.048018
      f0      :     0.005129  f :     0.024539
      f+1     :     0.003610
      f-1     :     0.003879
      f+2     :     0.003232
      f-2     :     0.001966
      f+3     :     0.003600
      f-3     :     0.003122

  4 C s       :     3.088948  s :     3.088948
      pz      :     0.648592  p :     2.316196
      px      :     0.940972
      py      :     0.726632
      dz2     :     0.063193  d :     0.283430
      dxz     :     0.055677
      dyz     :     0.063381
      dx2y2   :     0.044905
      dxy     :     0.056275
      f0      :     0.003670  f :     0.027399
      f+1     :     0.004835
      f-1     :     0.007833
      f+2     :     0.002325
      f-2     :     0.002591
      f+3     :     0.003656
      f-3     :     0.002488

  5 C s       :     3.126162  s :     3.126162
      pz      :     0.601566  p :     2.298018
      px      :     0.919127
      py      :     0.777325
      dz2     :     0.075961  d :     0.299145
      dxz     :     0.059336
      dyz     :     0.057427
      dx2y2   :     0.048967
      dxy     :     0.057455
      f0      :     0.005031  f :     0.027691
      f+1     :     0.004249
      f-1     :     0.006000
      f+2     :     0.003262
      f-2     :     0.004296
      f+3     :     0.002660
      f-3     :     0.002194

  6 C s       :     3.114365  s :     3.114365
      pz      :     0.584536  p :     2.316767
      px      :     0.925484
      py      :     0.806747
      dz2     :     0.080153  d :     0.301617
      dxz     :     0.059762
      dyz     :     0.054014
      dx2y2   :     0.050257
      dxy     :     0.057430
      f0      :     0.006159  f :     0.027672
      f+1     :     0.003798
      f-1     :     0.004301
      f+2     :     0.004130
      f-2     :     0.005141
      f+3     :     0.002201
      f-3     :     0.001942

  7 C s       :     3.121342  s :     3.121342
      pz      :     0.588139  p :     2.319086
      px      :     0.937135
      py      :     0.793812
      dz2     :     0.073178  d :     0.302754
      dxz     :     0.060381
      dyz     :     0.060296
      dx2y2   :     0.050793
      dxy     :     0.058106
      f0      :     0.004761  f :     0.027752
      f+1     :     0.004258
      f-1     :     0.006414
      f+2     :     0.003271
      f-2     :     0.004223
      f+3     :     0.002723
      f-3     :     0.002103

  8 C s       :     3.095698  s :     3.095698
      pz      :     0.620029  p :     2.321536
      px      :     0.943639
      py      :     0.757868
      dz2     :     0.058102  d :     0.293109
      dxz     :     0.059678
      dyz     :     0.070185
      dx2y2   :     0.047425
      dxy     :     0.057719
      f0      :     0.003575  f :     0.027939
      f+1     :     0.004918
      f-1     :     0.008180
      f+2     :     0.002569
      f-2     :     0.002398
      f+3     :     0.003885
      f-3     :     0.002414

  9 C s       :     3.024266  s :     3.024266
      pz      :     0.662374  p :     2.187144
      px      :     0.825812
      py      :     0.698958
      dz2     :     0.065848  d :     0.355271
      dxz     :     0.069296
      dyz     :     0.085231
      dx2y2   :     0.066554
      dxy     :     0.068342
      f0      :     0.004452  f :     0.039933
      f+1     :     0.007967
      f-1     :     0.008825
      f+2     :     0.004490
      f-2     :     0.003111
      f+3     :     0.007633
      f-3     :     0.003455

 10 F s       :     3.907583  s :     3.907583
      pz      :     1.901884  p :     5.294216
      px      :     1.892348
      py      :     1.499984
      dz2     :     0.001942  d :     0.013796
      dxz     :     0.000336
      dyz     :     0.002634
      dx2y2   :     0.005205
      dxy     :     0.003678
      f0      :     0.000046  f :     0.000614
      f+1     :     0.000014
      f-1     :     0.000121
      f+2     :     0.000071
      f-2     :     0.000017
      f+3     :     0.000163
      f-3     :     0.000181

 11 F s       :     3.904513  s :     3.904513
      pz      :     1.532361  p :     5.318269
      px      :     1.910170
      py      :     1.875738
      dz2     :     0.005605  d :     0.012938
      dxz     :     0.003267
      dyz     :     0.003134
      dx2y2   :     0.000485
      dxy     :     0.000447
      f0      :     0.000200  f :     0.000575
      f+1     :     0.000133
      f-1     :     0.000161
      f+2     :     0.000037
      f-2     :     0.000038
      f+3     :     0.000003
      f-3     :     0.000003

 12 F s       :     3.911242  s :     3.911242
      pz      :     1.815964  p :     5.267137
      px      :     1.910409
      py      :     1.540763
      dz2     :     0.001904  d :     0.015181
      dxz     :     0.000760
      dyz     :     0.004890
      dx2y2   :     0.004522
      dxy     :     0.003104
      f0      :     0.000077  f :     0.000686
      f+1     :     0.000004
      f-1     :     0.000117
      f+2     :     0.000185
      f-2     :     0.000061
      f+3     :     0.000105
      f-3     :     0.000136

 13 F s       :     3.908879  s :     3.908879
      pz      :     1.472473  p :     5.264458
      px      :     1.909552
      py      :     1.882433
      dz2     :     0.007611  d :     0.014987
      dxz     :     0.003438
      dyz     :     0.003152
      dx2y2   :     0.000407
      dxy     :     0.000379
      f0      :     0.000338  f :     0.000680
      f+1     :     0.000151
      f-1     :     0.000156
      f+2     :     0.000013
      f-2     :     0.000017
      f+3     :     0.000001
      f-3     :     0.000002

 14 F s       :     3.912190  s :     3.912190
      pz      :     1.713059  p :     5.252454
      px      :     1.905533
      py      :     1.633863
      dz2     :     0.002476  d :     0.015372
      dxz     :     0.001504
      dyz     :     0.006013
      dx2y2   :     0.002976
      dxy     :     0.002403
      f0      :     0.000076  f :     0.000689
      f+1     :     0.000013
      f-1     :     0.000185
      f+2     :     0.000192
      f-2     :     0.000101
      f+3     :     0.000058
      f-3     :     0.000065

 15 F s       :     3.906585  s :     3.906585
      pz      :     1.518632  p :     5.254712
      px      :     1.908127
      py      :     1.827953
      dz2     :     0.006152  d :     0.015190
      dxz     :     0.003045
      dyz     :     0.004488
      dx2y2   :     0.000717
      dxy     :     0.000788
      f0      :     0.000227  f :     0.000684
      f+1     :     0.000105
      f-1     :     0.000232
      f+2     :     0.000053
      f-2     :     0.000057
      f+3     :     0.000005
      f-3     :     0.000005

 16 F s       :     3.914692  s :     3.914692
      pz      :     1.600939  p :     5.246558
      px      :     1.903548
      py      :     1.742072
      dz2     :     0.004191  d :     0.015472
      dxz     :     0.002422
      dyz     :     0.005789
      dx2y2   :     0.001587
      dxy     :     0.001483
      f0      :     0.000115  f :     0.000689
      f+1     :     0.000054
      f-1     :     0.000257
      f+2     :     0.000126
      f-2     :     0.000097
      f+3     :     0.000020
      f-3     :     0.000020

 17 F s       :     3.907591  s :     3.907591
      pz      :     1.614596  p :     5.248279
      px      :     1.903871
      py      :     1.729812
      dz2     :     0.003889  d :     0.015271
      dxz     :     0.002319
      dyz     :     0.005831
      dx2y2   :     0.001668
      dxy     :     0.001564
      f0      :     0.000107  f :     0.000683
      f+1     :     0.000048
      f-1     :     0.000248
      f+2     :     0.000134
      f-2     :     0.000099
      f+3     :     0.000024
      f-3     :     0.000024

 18 F s       :     3.908436  s :     3.908436
      pz      :     1.722661  p :     5.245039
      px      :     1.904046
      py      :     1.618331
      dz2     :     0.002369  d :     0.015284
      dxz     :     0.001408
      dyz     :     0.005954
      dx2y2   :     0.003103
      dxy     :     0.002450
      f0      :     0.000075  f :     0.000681
      f+1     :     0.000010
      f-1     :     0.000173
      f+2     :     0.000195
      f-2     :     0.000095
      f+3     :     0.000062
      f-3     :     0.000072

[...]
      f+2     :     0.000008
      f-2     :    -0.000000
      f+3     :     0.000000
      f-3     :     0.000006

 16 F s       :     0.002439  s :     0.002439
      pz      :     0.008072  p :     0.004999
      px      :    -0.001044
      py      :    -0.002029
      dz2     :     0.000544  d :     0.001304
      dxz     :    -0.000054
      dyz     :     0.000038
      dx2y2   :     0.000793
      dxy     :    -0.000017
      f0      :     0.000013  f :     0.000045
      f+1     :    -0.000001
      f-1     :     0.000014
      f+2     :     0.000011
      f-2     :    -0.000002
      f+3     :    -0.000000
      f-3     :     0.000011

 17 F s       :     0.003015  s :     0.003015
      pz      :     0.008968  p :     0.004955
      px      :    -0.001005
      py      :    -0.003008
      dz2     :     0.000502  d :     0.001196
      dxz     :    -0.000055
      dyz     :     0.000083
      dx2y2   :     0.000678
      dxy     :    -0.000011
      f0      :     0.000009  f :     0.000041
      f+1     :    -0.000001
      f-1     :     0.000018
      f+2     :     0.000006
      f-2     :    -0.000002
      f+3     :     0.000000
      f-3     :     0.000010

 18 F s       :     0.003212  s :     0.003212
      pz      :     0.010792  p :     0.006552
      px      :    -0.001044
      py      :    -0.003196
      dz2     :     0.000606  d :     0.001356
      dxz     :    -0.000061
      dyz     :     0.000096
      dx2y2   :     0.000758
      dxy     :    -0.000043
      f0      :     0.000011  f :     0.000045
      f+1     :    -0.000001
      f-1     :     0.000021
      f+2     :     0.000007
      f-2     :    -0.000003
      f+3     :    -0.000001
      f-3     :     0.000012

 19 F s       :     0.002783  s :     0.002783
      pz      :     0.009807  p :     0.006325
      px      :    -0.001065
      py      :    -0.002417
      dz2     :     0.000658  d :     0.001410
      dxz     :    -0.000063
      dyz     :     0.000038
      dx2y2   :     0.000809
      dxy     :    -0.000032
      f0      :     0.000015  f :     0.000048
      f+1     :    -0.000001
      f-1     :     0.000015
      f+2     :     0.000012
      f-2     :    -0.000003
      f+3     :    -0.000001
      f-3     :     0.000011

 20 F s       :     0.002286  s :     0.002286
      pz      :     0.006973  p :     0.003865
      px      :    -0.000684
      py      :    -0.002424
      dz2     :     0.000410  d :     0.000984
      dxz     :     0.000000
      dyz     :     0.000101
      dx2y2   :     0.000473
      dxy     :     0.000000
      f0      :     0.000007  f :     0.000040
      f+1     :     0.000001
      f-1     :     0.000017
      f+2     :     0.000004
      f-2     :     0.000001
      f+3     :     0.000001
      f-3     :     0.000008

 21 F s       :     0.002141  s :     0.002141
      pz      :     0.006628  p :     0.003720
      px      :    -0.000741
      py      :    -0.002167
      dz2     :     0.000460  d :     0.000998
      dxz     :    -0.000007
      dyz     :     0.000059
      dx2y2   :     0.000488
      dxy     :    -0.000003
      f0      :     0.000010  f :     0.000041
      f+1     :     0.000001
      f-1     :     0.000014
      f+2     :     0.000005
      f-2     :     0.000001
      f+3     :     0.000001
      f-3     :     0.000008

 22 F s       :     0.000080  s :     0.000080
      pz      :     0.000281  p :     0.000505
      px      :     0.000210
      py      :     0.000014
      dz2     :     0.000137  d :     0.000397
      dxz     :    -0.000042
      dyz     :     0.000038
      dx2y2   :     0.000281
      dxy     :    -0.000016
      f0      :     0.000005  f :     0.000017
      f+1     :    -0.000001
      f-1     :     0.000004
      f+2     :     0.000005
      f-2     :    -0.000001
      f+3     :     0.000002
      f-3     :     0.000002

 23 F s       :     0.003426  s :     0.003426
      pz      :    -0.000202  p :     0.020551
      px      :     0.021085
      py      :    -0.000332
      dz2     :     0.000278  d :     0.001855
      dxz     :     0.000020
      dyz     :     0.000005
      dx2y2   :     0.001201
      dxy     :     0.000351
      f0      :     0.000001  f :     0.000073
      f+1     :     0.000014
      f-1     :     0.000001
      f+2     :     0.000000
      f-2     :     0.000001
      f+3     :     0.000011
      f-3     :     0.000046

 24 F s       :     0.000072  s :     0.000072
      pz      :     0.000152  p :     0.000476
      px      :     0.000133
      py      :     0.000191
      dz2     :     0.000137  d :     0.000400
      dxz     :    -0.000046
      dyz     :     0.000048
      dx2y2   :     0.000274
      dxy     :    -0.000013
      f0      :     0.000006  f :     0.000017
      f+1     :    -0.000001
      f-1     :     0.000002
      f+2     :     0.000006
      f-2     :    -0.000001
      f+3     :     0.000002
      f-3     :     0.000002



                      *****************************
                      * MAYER POPULATION ANALYSIS *
                      *****************************

  NA   - Mulliken gross atomic population
  ZA   - Total nuclear charge
  QA   - Mulliken gross atomic charge
  VA   - Mayer's total valence
  BVA  - Mayer's bonded valence
  FA   - Mayer's free valence

  ATOM       NA         ZA         QA         VA         BVA        FA
  0 C      5.8332     6.0000     0.1668     4.6432     4.6430     0.0001
  1 O      8.4995     8.0000    -0.4995     1.9521     1.9521     0.0000
  2 O      8.5071     8.0000    -0.5071     1.9437     1.9437     0.0000
  3 C      5.6927     6.0000     0.3073     3.9358     3.9351     0.0007
  4 C      5.7522     6.0000     0.2478     4.1005     4.0951     0.0054
  5 C      5.7453     6.0000     0.2547     4.1310     4.1032     0.0278
  6 C      5.7784     6.0000     0.2216     4.0943     4.0102     0.0841
  7 C      5.8044     6.0000     0.1956     4.0866     3.9908     0.0958
  8 C      5.7489     6.0000     0.2511     4.1666     4.1300     0.0367
  9 C      5.6238     6.0000     0.3762     4.5680     4.5591     0.0089
 10 F      9.2098     9.0000    -0.2098     1.0743     1.0743     0.0000
 11 F      9.2139     9.0000    -0.2139     1.0648     1.0648     0.0000
 12 F      9.1934     9.0000    -0.1934     1.1054     1.1054     0.0000
 13 F      9.1975     9.0000    -0.1975     1.1033     1.1033     0.0000
 14 F      9.2024     9.0000    -0.2024     1.0824     1.0823     0.0001
 15 F      9.2042     9.0000    -0.2042     1.0841     1.0840     0.0000
 16 F      9.2174     9.0000    -0.2174     1.0549     1.0547     0.0002
 17 F      9.2228     9.0000    -0.2228     1.0462     1.0460     0.0002
 18 F      9.2265     9.0000    -0.2265     1.0421     1.0419     0.0002
 19 F      9.2224     9.0000    -0.2224     1.0488     1.0486     0.0002
 20 F      9.2018     9.0000    -0.2018     1.0789     1.0788     0.0001
 21 F      9.2012     9.0000    -0.2012     1.0803     1.0802     0.0001
 22 F      9.1622     9.0000    -0.1622     1.1415     1.1415     0.0000
 23 F      9.1770     9.0000    -0.1770     1.1052     1.1048     0.0004
 24 F      9.1623     9.0000    -0.1623     1.1412     1.1412     0.0000

  Mayer bond orders larger than 0.100000
B(  0-C ,  1-O ) :   1.8598 B(  0-C ,  2-O ) :   1.8490 B(  0-C ,  3-C ) :   0.8535 
B(  3-C ,  4-C ) :   0.9205 B(  3-C , 10-F ) :   1.0501 B(  3-C , 11-F ) :   1.0369 
B(  4-C ,  5-C ) :   0.9026 B(  4-C , 12-F ) :   1.0644 B(  4-C , 13-F ) :   1.0513 
B(  5-C ,  6-C ) :   0.9078 B(  5-C , 14-F ) :   1.0368 B(  5-C , 15-F ) :   1.0358 
B(  6-C ,  7-C ) :   0.9052 B(  6-C , 16-F ) :   1.0081 B(  6-C , 17-F ) :   0.9974 
B(  7-C ,  8-C ) :   0.9222 B(  7-C , 18-F ) :   0.9946 B(  7-C , 19-F ) :   0.9994 
B(  8-C ,  9-C ) :   0.9675 B(  8-C , 20-F ) :   1.0311 B(  8-C , 21-F ) :   1.0311 
B(  9-C , 22-F ) :   1.1474 B(  9-C , 23-F ) :   1.0912 B(  9-C , 24-F ) :   1.1468 


-------
TIMINGS
-------

Total SCF time: 0 days 0 hours 0 min 53 sec 

Total time                  ....      53.774 sec
Sum of individual times     ....      52.754 sec  ( 98.1%)

SCF preparation             ....       1.392 sec  (  2.6%)
Fock matrix formation       ....      42.634 sec  ( 79.3%)
  Startup                   ....       0.228 sec  (  0.5% of F)
  Split-RI-J                ....       3.135 sec  (  7.4% of F)
  Chain of spheres X        ....      25.729 sec  ( 60.3% of F)
  XC integration            ....      10.203 sec  ( 23.9% of F)
    XC Preparation          ....       0.000 sec  (  0.0% of XC)
    Basis function eval.    ....       0.664 sec  (  6.5% of XC)
    Density eval.           ....       2.984 sec  ( 29.2% of XC)
    XC-Functional eval.     ....       0.138 sec  (  1.4% of XC)
    XC-Potential eval.      ....       2.579 sec  ( 25.3% of XC)
  CPCM terms                ....       2.698 sec  (  6.3% of F)
Diagonalization             ....       0.000 sec  (  0.0%)
Density matrix formation    ....       0.772 sec  (  1.4%)
Total Energy calculation    ....       0.385 sec  (  0.7%)
Population analysis         ....       0.355 sec  (  0.7%)
Orbital Transformation      ....       1.052 sec  (  2.0%)
Orbital Orthonormalization  ....       0.000 sec  (  0.0%)
DIIS solution               ....       3.915 sec  (  7.3%)
SOSCF solution              ....       2.249 sec  (  4.2%)
Finished LeanSCF after  54.0 sec

Maximum memory used throughout the entire LEANSCF-calculation: 109.3 MB


-------------------------------------------------------------------------------
                          DFT DISPERSION CORRECTION                            
                                                                               
                              DFTD3 V3.1  Rev 1                                
                          USING Becke-Johnson damping                          
-------------------------------------------------------------------------------
The TPSSH functional is recognized
Active option DFTDOPT                   ...         4   

molecular C6(AA) [au] = 6622.163420 


            DFT-D V3
 parameters
 s6 scaling factor         :     1.0000 
 a1 scaling factor         :     0.4529 
 s8 scaling factor         :     2.2382 
 a2 scaling factor         :     4.6550 
 ad hoc parameters k1-k3   :    16.0000     1.3333    -4.0000 

 Edisp/kcal,au: -18.445554650644  -0.029394859274 
 E6   /kcal   :  -8.940910305 
 E8   /kcal   :  -9.504644345 
 % E8         :  51.528102708 

-------------------------   ----------------
Dispersion correction           -0.029394859
-------------------------   ----------------


-------------------------   --------------------
FINAL SINGLE POINT ENERGY     -1953.935908772140
-------------------------   --------------------

                                *** OPTIMIZATION RUN DONE ***



           ************************************************************
           *        Program running with 20 parallel MPI-processes    *
           *              working on a common directory               *
           ************************************************************

------------------------------------------------------------------------------
                              ORCA PROPERTY CALCULATIONS
------------------------------------------------------------------------------

GBWName                                 ... rf_mecn_opt_TP_D_A.gbw
Number of atoms                         ...     25
Number of basis functions               ...    775
Max core memory                         ...   8000 MB

Electric properties:
Dipole moment                           ... YES
Quadrupole moment                       ...  NO
Static polarizability (Dipole/Dipole)   ...  NO
Static polarizability (Dipole/Quad.)    ...  NO
Static polarizability (Quad./Quad.)     ...  NO
Static polarizability (Velocity)        ...  NO

Atomic electric properties:
Dipole moment                           ...  NO
Quadrupole moment                       ...  NO
Static polarizability                   ...  NO

Choice of electric origin               ... Center of mass
Position of electric origin             ...    -0.115965    -0.035838    -0.003441

General magnetic properties:
Magnetizability                         ...  NO

EPR properties:
g-Tensor (aka g-matrix)                 ...  NO
Zero-Field splitting spin-orbit         ...  NO
Zero-field splitting spin-spin          ...  NO
Hyperfine couplings                     ...  NO (   0 nuclei)
Quadrupole couplings                    ...  NO (   0 nuclei)
Contact density                         ...  NO (   0 nuclei)

NMR properties:
Chemical shifts                         ...  NO (   0 nuclei)
Spin-rotation constants                 ...  NO (   0 nuclei)
Spin-spin couplings                     ...  NO (   0 nuclei,    0 pairs)

Choice of magnetic origin               ... GIAO
Position of magnetic origin             ...     0.000000     0.000000     0.000000

Properties with geometric perturbations:
SCF Hessian                             ...  NO
IR spectrum                             ...  NO
VCD spectrum                            ...  NO
X-ray spectroscopy properties:
SCF XES/XAS/RIXS spectra                ...  NO


-------------
DIPOLE MOMENT
-------------

Method             : SCF
Type of density    : Electron Density
Multiplicity       :   2
Irrep              :   0
Energy             : -1953.9065139128661031 Eh
Relativity type    : 
Basis              : AO
                                X                 Y                 Z
Electronic contribution:    -17.565514452      -1.588752056       1.387223028
Nuclear contribution   :     10.238732365       0.839428191      -0.793275867
                        -----------------------------------------
Total Dipole Moment    :     -7.326782087      -0.749323865       0.593947161
                        -----------------------------------------
Magnitude (a.u.)       :      7.388910287
Magnitude (Debye)      :     18.781117390



--------------------
Rotational spectrum 
--------------------
 
Rotational constants in cm-1:             0.021720             0.003356             0.003329 
Rotational constants in MHz :           651.154770           100.599307            99.793397 

Dipole components along the rotational axes: 
x,y,z [a.u.] :     7.320480     0.793682    -0.613712 
x,y,z [Debye]:    18.607180     2.017379    -1.559932 

 

Dipole moment calculation done in   0.0 sec 

Maximum memory used throughout the entire PROP-calculation: 57.3 MB

--------------------------------
SUGGESTED CITATIONS FOR THIS RUN
--------------------------------

Below you find a list of papers that are relevant to this ORCA run
We neither can nor want to force you to cite these papers, but we appreciate if you do
You receive ORCA, which is the product of decades of hard work by many enthusiastic individuals, for free
The only thing we kindly ask in return is that you cite our papers,
We deeply appreciate it, if you show your appreciation for ORCA by not just citing the generic ORCA reference.

Please note that relegating all ORCA citations to the supporting information does *not* help us.
SI sections are not indexed - citations you put there will not count into any citation statistics
But we need these citations in order to attract the funding resources that allow us to do what we are doing

Therefore, if you are a happy ORCA user, please consider citing a few of the papers listed below in the main body of your paper

In addition to the list printed below, the program has created the file rf_mecn_opt_TP_D_A.bibtex that contains the list in bibtex format
You can import this file easily into all common literature databanks and citation aid programs


List of essential papers. We consider these as the minimum necessary citations

  1. Neese,F.
     Software update: the ORCA program system, version 5.0
     WIRES Comput. Molec. Sci., 2022 12(1)e1606
     doi.org/10.1002/wcms.1606

List of papers to cite with high priority. The work reported in these papers was absolutely
necessary for this run to complete.
Our perspective: the developers of density functionals and basis sets usually get cited in chemistry papers
Good! But without the algorithms to do something with them, the functionals or basis sets would not do anything.
Hence, in our opinion, the algorithm design and method developments papers are equally worthy of getting cited

  1. Neese,F.
     An improvement of the resolution of the identity approximation for the formation of the Coulomb matrix
     J. Comp. Chem., 2003 24(14)1740-1747
     doi.org/10.1002/jcc.10318
  2. Neese,F.; Wennmohs,F.; Hansen,A.; Becker,U.
     Efficient, approximate and parallel Hartree-Fock and hybrid DFT calculations. A 'chain-of-spheres' algorithm for the Hartree-Fock exchange
     Chem. Phys., 2009 356(1-3)98-109
     doi.org/10.1016/j.chemphys.2008.10.036
  3. Garcia-Rates,M.; Neese,F.
     Effect of the Solute Cavity on the Solvation Energy and its Derivatives within the Framework of the Gaussian Charge Scheme
     J. Comput. Chem., 2020 41 922-939
     doi.org/10.1002/jcc.26139
  4. Helmich-Paris,B.; de Souza,B.; Neese,F.; Izsák,R.
     An improved chain of spheres for exchange algorithm
     J. Chem. Phys., 2021 155 104109
     doi.org/doi: 10.1063/5.0058766.
  5. Neese,F.
     The SHARK Integral Generation and Digestion System
     J. Comp. Chem., 2022  1-16
     doi.org/10.1002/jcc.26942
  6. Grimme,S.; Antony,J.; Ehrlich,S.; Krieg,H.
     A consistent and accurate ab initio parametrization of density functional dispersion correction (DFT-D) for the 94 elements H-Pu
     J. Chem. Phys., 2010 132 154104
     doi.org/10.1063/1.3382344
  7. Grimme,S.; Ehrlich,S.; Goerigk,L.
     Effect of the damping function in dispersion corrected density functional theory
     J. Comput. Chem., 2011 32(7)1456-1465
     doi.org/10.1002/jcc.21759

List of suggested additional citations. These are papers that are important in the 'surrounding' of 
of this run, or papers that preceded the highly important papers. If you like your results we are grateful for a citation.

  1. Izsak,R.; Neese,F.
     An overlap fitted chain of spheres exchange method
     J. Chem. Phys., 2011 135 144105
     doi.org/10.1063/1.3646921
  2. Izsak,R.; Hansen,A.; Neese,F.
     The resolution of identity and chain of spheres approximations for the LPNO-CCSD singles Fock term
     Molec. Phys., 2012 110 2413-2417
     doi.org/10.1080/00268976.2012.687466
  3. Neese,F.
     The ORCA program system
     WIRES Comput. Molec. Sci., 2012 2(1)73-78
     doi.org/10.1002/wcms.81
  4. Izsak,R.; Neese,F.; Klopper,W.
     Robust fitting techniques in the chain of spheres approximation to the Fock exchange: The role of the complementary space
     J. Chem. Phys., 2013 139 
     doi.org/10.1063/1.4819264
  5. Neese,F.
     Software update: the ORCA program system, version 4.0
     WIRES Comput. Molec. Sci., 2018 8(1)1-6
     doi.org/10.1002/wcms.1327
  6. Neese,F.; Wennmohs,F.; Becker,U.; Riplinger,C.
     The ORCA quantum chemistry program package
     J. Chem. Phys., 2020 152 Art. No. L224108
     doi.org/10.1063/5.0004608

List of optional additional citations

  1. Neese,F.
     Approximate second-order SCF convergence for spin unrestricted wavefunctions
     Chem. Phys. Lett., 2000 325(1-3)93-98
     doi.org/10.1016/s0009-2614(00)00662-x

Timings for individual modules:

Sum of individual times          ...     1563.010 sec (=  26.050 min)
Startup calculation              ...       58.603 sec (=   0.977 min)   3.7 %
SCF iterations                   ...     1197.173 sec (=  19.953 min)  76.6 %
Property calculations            ...        0.808 sec (=   0.013 min)   0.1 %
SCF Gradient evaluation          ...      306.168 sec (=   5.103 min)  19.6 %
Geometry relaxation              ...        0.257 sec (=   0.004 min)   0.0 %
                             ****ORCA TERMINATED NORMALLY****
TOTAL RUN TIME: 0 days 0 hours 26 minutes 12 seconds 792 msec
