
                                 *****************
                                 * O   R   C   A *
                                 *****************

                                            #,                                       
                                            ###                                      
                                            ####                                     
                                            #####                                    
                                            ######                                   
                                           ########,                                 
                                     ,,################,,,,,                         
                               ,,#################################,,                 
                          ,,##########################################,,             
                       ,#########################################, ''#####,          
                    ,#############################################,,   '####,        
                  ,##################################################,,,,####,       
                ,###########''''           ''''###############################       
              ,#####''   ,,,,##########,,,,          '''####'''          '####       
            ,##' ,,,,###########################,,,                        '##       
           ' ,,###''''                  '''############,,,                           
         ,,##''                                '''############,,,,        ,,,,,,###''
      ,#''                                            '''#######################'''  
     '                                                          ''''####''''         
             ,#######,   #######,   ,#######,      ##                                
            ,#'     '#,  ##    ##  ,#'     '#,    #''#        ,####,   ,####,        
            ##       ##  ##   ,#'  ##            #'  '#       #'       #'  '#        
            ##       ##  #######   ##           ,######,      #####,   #    #        
            '#,     ,#'  ##    ##  '#,     ,#' ,#      #,     #,   #   #,  ,#        
             '#######'   ##     ##  '#######'  #'      '#     '####' # '####'        



                #########################################################
                #                        -***-                          #
                #          Department of theory and spectroscopy        #
                #                                                       #
                #                      Frank Neese                      #
                #                                                       #
                #     Directorship, Architecture, Infrastructure        #
                #                    SHARK, DRIVERS                     #
                #        Core code/Algorithms in most modules           #
                #                                                       #
                #        Max Planck Institute fuer Kohlenforschung      #
                #                Kaiser Wilhelm Platz 1                 #
                #                 D-45470 Muelheim/Ruhr                 #
                #                      Germany                          #
                #                                                       #
                #                  All rights reserved                  #
                #                        -***-                          #
                #########################################################


                         Program Version 6.0.1  -  RELEASE   -


 With contributions from (in alphabetic order):
[Max-Planck-Institut fuer Kohlenforschung]                               
  Daniel Aravena         : Magnetic Suceptibility                        
  Michael Atanasov       : Ab Initio Ligand Field Theory (pilot matlab implementation)
  Alexander A. Auer      : GIAO ZORA, VPT2 properties, NMR spectrum      
  Ute Becker             : All parallelization in ORCA, NUMFREQ, NUMCALC 
  Giovanni Bistoni       : ED, misc. LED, open-shell LED, HFLD           
  Martin Brehm           : Molecular dynamics                            
  Dmytro Bykov           : pre 5.0 version of the SCF Hessian            
  Marcos Casanova-Páez   : Triplet and SCS-CIS(D). UHF-(DLPNO)-IP/EA/STEOM-CCSD. UHF-CVS-IP/STEOM-CCSD   
  Vijay G. Chilkuri      : MRCI spin determinant printing, contributions to CSF-ICE 
  Pauline Colinet        : FMM embedding                                 
  Dipayan Datta          : RHF DLPNO-CCSD density                        
  Achintya Kumar Dutta   : EOM-CC, STEOM-CC                              
  Nicolas Foglia         : Exact transition moments, OPA infrastructure, MCD improvements    
  Dmitry Ganyushin       : Spin-Orbit,Spin-Spin,Magnetic field MRCI      
  Miquel Garcia-Rates    : C-PCM and meta-GGA Hessian, CCSD/C-PCM, Gaussian charge scheme 
  Tiago L. C. Gouveia    : GS-ROHF, GS-ROCIS                             
  Yang Guo               : DLPNO-NEVPT2, F12-NEVPT2, CIM, IAO-localization        
  Andreas Hansen         : Spin unrestricted coupled pair/coupled cluster methods 
  Ingolf Harden          : AUTO-CI MPn and infrastructure                
  Benjamin Helmich-Paris : MC-RPA, TRAH-(SCF,CASSCF), AVAS, COSX integrals, SCF dyn. polar. 
  Lee Huntington         : MR-EOM, pCC                                   
  Robert Izsak           : Overlap fitted RIJCOSX, COSX-SCS-MP3, EOM     
  Riya Kayal             : Wick's Theorem for AUTO-CI, AUTO-CI UHF-CCSDT 
  Emily Kempfer          : AUTO-CI, RHF CISDT and CCSDT                  
  Christian Kollmar      : KDIIS, OOCD, Brueckner-CCSD(T), CCSD density, CASPT2, CASPT2-K, improved NEVPT2 
  Axel Koslowski         : Symmetry handling                             
  Simone Kossmann        : meta-GGA functionals, TD-DFT gradient, OOMP2, (MP2 Hessian; deprecated post 5.0) 
  Lucas Lang             : DCDCAS                                        
  Marvin Lechner         : AUTO-CI (C++ implementation), FIC-MRCC        
  Spencer Leger          : CASSCF response                               
  Dagmar Lenk            : GEPOL surface, SMD, ORCA-2-JSON               
  Dimitrios Liakos       : Extrapolation schemes; Compound Job, initial MDCI parallelization 
  Dimitrios Manganas     : Further ROCIS development; embedding schemes. LFT, Crystal Embedding 
  Dimitrios Pantazis     : SARC Basis sets                               
  Anastasios Papadopoulos: AUTO-CI, single reference methods and gradients 
  Taras Petrenko         : pre 6.0 DFT Hessian and TD-DFT gradient, (ASA, deprecated), ECA, 1-Electron XAS/XES, NRVS 
  Peter Pinski           : DLPNO-MP2, DLPNO-MP2 Gradient                 
  Christoph Reimann      : Effective Core Potentials                     
  Marius Retegan         : Local ZFS, SOC                                
  Christoph Riplinger    : Optimizer, TS searches, QM/MM, DLPNO-CCSD(T), (RO)-DLPNO pert. Triples 
  Michael Roemelt        : Original ROCIS implementation                 
  Masaaki Saitow         : Open-shell DLPNO-CCSD energy and density      
  Barbara Sandhoefer     : DKH picture change effects                    
  Kantharuban Sivalingam : CASSCF convergence/infrastructure, NEVPT2 and variants, FIC-MRCI 
  Bernardo de Souza      : ESD, SOC TD-DFT                               
  Georgi L. Stoychev     : AutoAux, RI-MP2 NMR, DLPNO-MP2 response, X2C  
  Van Anh Tran           : RI-MP2 g-tensors                              
  Willem Van den Heuvel  : Paramagnetic NMR                              
  Zikuan Wang            : NOTCH, Electric field optimization            
  Frank Wennmohs         : Technical directorship and infrastructure     
  Hang Xu                : AUTO-CI-Response properties                   
                                                                         
[FACCTs GmbH]                                                            
  Markus Bursch, Miquel Garcia-Rates, Christoph Riplinger, Bernardo de Souza, Georgi L. Stoychev 
                                                                 
  APM, Basis sets (HGBS, AHGBS, def-TZVP (Ac-Lr), def2-XVPD (La-Lu)), CI-OPT, improved COSX, DLPNO-Multilevel,           
  DOCKER, DRACO, updates on ESD, GOAT, IRC, LR-CPCM, MBIS, meta-GGA TD-DFT gradient, ML-optimized integration grids, 
  MM, NACMEs, nearIR, NEB, NEB-TS, NL-DFT gradient (VV10), 2- and 3-layer-ONIOM, interface openCOSMO-RS, QMMM,   
  Crystal-QMMM, SF, symmetry and pop. for TD-DFT, r2SCAN hybrids, SOLVATOR                                   
                                                                         
[Other institutions]                                                     
  V. Asgeirsson          : NEB                                           
  Christoph Bannwarth    : sTDA-DFT, sTD-DFT, PBEh-3c, B97-3c, D3        
  Sebastian Ehlert       : rSCAN, r2SCAN, r2SCAN-3c, D4, dhf basis sets  
  Marvin Friede          : D4 for Fr, Ra, Ac-Lr                          
  Lars Goerigk           : TD-DFT with DH, B97 family of functionals     
  Stefan Grimme          : VdW corrections, initial TS optimization, DFT functionals, gCP, sTDA/sTD-DF 
  Waldemar Hujo          : DFT-NL                                        
  H. Jonsson             : NEB                                           
  Holger Kruse           : gCP                                           
  Marcel Mueller         : wB97X-3c, vDZP basis set                      
  Hagen Neugebauer       : wr2SCAN                                       
  Tobias Risthaus        : range-separated hybrid DFT                    
  Lukas Wittmann         : regularized MP2, r2SCAN double-hybrids, wr2SCAN        
                                                                         
We gratefully acknowledge several colleagues who have allowed us to      
interface, adapt or use parts of their codes:                            
  Ed Valeev, F. Pavosevic, A. Kumar             : LibInt (2-el integral package), F12 methods 
  Garnet Chan, S. Sharma, J. Yang, R. Olivares  : DMRG                   
  Ulf Ekstrom                                   : XCFun DFT Library      
  Mihaly Kallay                                 : mrcc  (arbitrary order and MRCC methods)
  Frank Weinhold                                : gennbo (NPA and NBO analysis)           
  Simon Mueller                                 : openCOSMO-RS                            
  Christopher J. Cramer and Donald G. Truhlar   : smd solvation model                     
  S Lehtola, MJT Oliveira, MAL Marques          : LibXC Library                           
  Liviu Ungur et al                             : ANISO software                          


 Your calculation uses the libint2 library for the computation of 2-el integrals
 For citations please refer to: http://libint.valeyev.net

 Your ORCA version has been built with support for libXC version: 6.2.2
 For citations please refer to: https://libxc.gitlab.io

 This ORCA versions uses:
   CBLAS   interface :  Fast vector & matrix operations
   LAPACKE interface :  Fast linear algebra routines
   SCALAPACK package :  Parallel linear algebra routines
   Shared memory     :  Shared parallel matrices
   BLAS/LAPACK       :  OpenBLAS 0.3.27  USE64BITINT DYNAMIC_ARCH NO_AFFINITY SkylakeX SINGLE_THREADED
        Core in use  :  SkylakeX
   Copyright (c) 2011-2014, The OpenBLAS Project


NOTE: MaxCore=8000 MB was set to SCF,MP2,MDCI,CIPSI,MRCI and CIS
      => If you want to overwrite this, your respective input block should be placed after the MaxCore statement
Your calculation utilizes the atom-pairwise dispersion correction
with the Becke-Johnson damping scheme (D3BJ)


Your calculation utilizes the SMD solvation module
Please cite in your paper:
A.V. Marenich, C.J. Cramer, D.G. Truhlar J. Phys. Chem. B, 113, (2009), 6378 

Warning: RI is on but no J-basis has been assigned. Assigning Def2/J (nothing to worry about!)
================================================================================

----- Orbital basis set information -----
Your calculation utilizes the basis: def2-TZVP
   F. Weigend and R. Ahlrichs, Phys. Chem. Chem. Phys. 7, 3297 (2005).

----- AuxJ basis set information -----
Your calculation utilizes the auxiliary basis: def2/J
   F. Weigend, Phys. Chem. Chem. Phys. 8, 1057 (2006).

================================================================================
                                        WARNINGS
                       Please study these warnings very carefully!
================================================================================


================================================================================
                                       INPUT FILE
================================================================================
NAME = rf_mecn_freq_TP_D_B.inp
|  1> !TPSSh def2-TZVP freq d3 TightSCF SlowConv defgrid2
|  2>  
|  3> %pal
|  4> nprocs 20
|  5> end
|  6>  
|  7> %scf
|  8> MaxIter 1500
|  9> end
| 10>  
| 11> %maxcore 8000
| 12>  
| 13> !CPCM
| 14> %cpcm smd true
| 15> SMDsolvent "ACETONITRILE"
| 16> end
| 17>  
| 18> * xyz -1 1
| 19> 6        4.819689000      0.122433000     -0.410253000
| 20> 8        5.422011000     -0.749026000     -1.055706000
| 21> 8        5.044207000      1.334059000     -0.234009000
| 22> 6        3.519020000     -0.372095000      0.343233000
| 23> 6        2.221395000      0.292536000     -0.194186000
| 24> 6        0.891813000     -0.445273000      0.176639000
| 25> 6       -0.389097000      0.445759000      0.020841000
| 26> 6       -1.720318000     -0.378061000     -0.049208000
| 27> 6       -2.995743000      0.475133000      0.264966000
| 28> 6       -4.330226000     -0.161015000     -0.241619000
| 29> 9        3.345455000     -1.727181000      0.247294000
| 30> 9        3.610616000     -0.091076000      1.682746000
| 31> 9        2.132586000      1.563247000      0.267403000
| 32> 9        2.296524000      0.338124000     -1.551017000
| 33> 9        0.755135000     -1.533950000     -0.615203000
| 34> 9        0.955085000     -0.855187000      1.463421000
| 35> 9       -0.460282000      1.285473000      1.077691000
| 36> 9       -0.290787000      1.178631000     -1.109156000
| 37> 9       -1.665295000     -1.391443000      0.841499000
| 38> 9       -1.841689000     -0.900860000     -1.288759000
| 39> 9       -2.883307000      1.691891000     -0.310368000
| 40> 9       -3.094012000      0.633572000      1.599809000
| 41> 9       -4.415553000     -1.443160000      0.128982000
| 42> 9       -5.358594000      0.507380000      0.289730000
| 43> 9       -4.417226000     -0.086351000     -1.571226000
| 44> *
| 45> 
| 46>                          ****END OF INPUT****
================================================================================

                       ****************************
                       * Single Point Calculation *
                       ****************************

---------------------------------
CARTESIAN COORDINATES (ANGSTROEM)
---------------------------------
  C      4.819689    0.122433   -0.410253
  O      5.422011   -0.749026   -1.055706
  O      5.044207    1.334059   -0.234009
  C      3.519020   -0.372095    0.343233
  C      2.221395    0.292536   -0.194186
  C      0.891813   -0.445273    0.176639
  C     -0.389097    0.445759    0.020841
  C     -1.720318   -0.378061   -0.049208
  C     -2.995743    0.475133    0.264966
  C     -4.330226   -0.161015   -0.241619
  F      3.345455   -1.727181    0.247294
  F      3.610616   -0.091076    1.682746
  F      2.132586    1.563247    0.267403
  F      2.296524    0.338124   -1.551017
  F      0.755135   -1.533950   -0.615203
  F      0.955085   -0.855187    1.463421
  F     -0.460282    1.285473    1.077691
  F     -0.290787    1.178631   -1.109156
  F     -1.665295   -1.391443    0.841499
  F     -1.841689   -0.900860   -1.288759
  F     -2.883307    1.691891   -0.310368
  F     -3.094012    0.633572    1.599809
  F     -4.415553   -1.443160    0.128982
  F     -5.358594    0.507380    0.289730
  F     -4.417226   -0.086351   -1.571226

----------------------------
CARTESIAN COORDINATES (A.U.)
----------------------------
  NO LB      ZA    FRAG     MASS         X           Y           Z
   0 C     6.0000    0    12.011    9.107892    0.231365   -0.775266
   1 O     8.0000    0    15.999   10.246116   -1.415454   -1.994995
   2 O     8.0000    0    15.999    9.532170    2.521006   -0.442213
   3 C     6.0000    0    12.011    6.649984   -0.703158    0.648616
   4 C     6.0000    0    12.011    4.197828    0.552813   -0.366958
   5 C     6.0000    0    12.011    1.685282   -0.841444    0.333799
   6 C     6.0000    0    12.011   -0.735287    0.842362    0.039384
   7 C     6.0000    0    12.011   -3.250930   -0.714432   -0.092990
   8 C     6.0000    0    12.011   -5.661134    0.897871    0.500713
   9 C     6.0000    0    12.011   -8.182941   -0.304274   -0.456594
  10 F     9.0000    0    18.998    6.321994   -3.263899    0.467318
  11 F     9.0000    0    18.998    6.823075   -0.172109    3.179929
  12 F     9.0000    0    18.998    4.030003    2.954109    0.505318
  13 F     9.0000    0    18.998    4.339801    0.638962   -2.930997
  14 F     9.0000    0    18.998    1.426998   -2.898745   -1.162565
  15 F     9.0000    0    18.998    1.804849   -1.616069    2.765465
  16 F     9.0000    0    18.998   -0.869807    2.429192    2.036541
  17 F     9.0000    0    18.998   -0.549508    2.227290   -2.096001
  18 F     9.0000    0    18.998   -3.146951   -2.629446    1.590203
  19 F     9.0000    0    18.998   -3.480288   -1.702379   -2.435402
  20 F     9.0000    0    18.998   -5.448661    3.197211   -0.586511
  21 F     9.0000    0    18.998   -5.846835    1.197278    3.023201
  22 F     9.0000    0    18.998   -8.344186   -2.727177    0.243741
  23 F     9.0000    0    18.998  -10.126275    0.958809    0.547510
  24 F     9.0000    0    18.998   -8.347347   -0.163180   -2.969187

--------------------------------
INTERNAL COORDINATES (ANGSTROEM)
--------------------------------
 C      0   0   0     0.000000000000     0.00000000     0.00000000
 O      1   0   0     1.240500768067     0.00000000     0.00000000
 O      1   2   0     1.244792289394   132.05788828     0.00000000
 C      1   2   3     1.582415540413   115.29684420   180.14172471
 C      4   1   2     1.553828880008   112.83387102   244.38807848
 C      5   4   1     1.565139481270   115.20421711   162.01128732
 C      6   5   4     1.568101230765   113.73545286   162.10042485
 C      7   6   5     1.567078685211   113.55535048   161.98754043
 C      8   7   6     1.566318688689   113.35344924   161.12506402
 C      9   8   7     1.562740387082   114.11612561   160.92544103
 F      4   1   2     1.369520780544   112.33575558     5.51171449
 F      4   1   2     1.371734880633   110.24707040   123.78699302
 F      5   4   1     1.354864527886   109.75972769   283.88848687
 F      5   4   1     1.359673856094   108.26071904    41.78026920
 F      6   5   4     1.353112057066   109.05249301   283.27618954
 F      6   5   4     1.351976608120   109.18828866    41.70994312
 F      7   6   5     1.351709594743   108.56197963   282.71457099
 F      7   6   5     1.350429355610   109.39282022    41.21180077
 F      8   7   6     1.350307212564   109.29490924    40.55864152
 F      8   7   6     1.350754010041   108.71256161   282.20598250
 F      9   8   7     1.350611378679   109.72448419    40.30407399
 F      9   8   7     1.347800262550   108.78729155   281.39995637
 F     10   9   8     1.337356197561   110.78850637    49.00986063
 F     10   9   8     1.336646692006   108.93940703   168.50357576
 F     10   9   8     1.334540552904   110.84619671   287.86571006

---------------------------
INTERNAL COORDINATES (A.U.)
---------------------------
 C      0   0   0     0.000000000000     0.00000000     0.00000000
 O      1   0   0     2.344206720565     0.00000000     0.00000000
 O      1   2   0     2.352316520572   132.05788828     0.00000000
 C      1   2   3     2.990332001442   115.29684420   180.14172471
 C      4   1   2     2.936311042193   112.83387102   244.38807848
 C      5   4   1     2.957684980988   115.20421711   162.01128732
 C      6   5   4     2.963281876411   113.73545286   162.10042485
 C      7   6   5     2.961349545354   113.55535048   161.98754043
 C      8   7   6     2.959913360065   113.35344924   161.12506402
 C      9   8   7     2.953151350004   114.11612561   160.92544103
 F      4   1   2     2.588019209942   112.33575558     5.51171449
 F      4   1   2     2.592203252744   110.24707040   123.78699302
 F      5   4   1     2.560322906269   109.75972769   283.88848687
 F      5   4   1     2.569411219471   108.26071904    41.78026920
 F      6   5   4     2.557011216361   109.05249301   283.27618954
 F      6   5   4     2.554865528815   109.18828866    41.70994312
 F      7   6   5     2.554360946658   108.56197963   282.71457099
 F      7   6   5     2.551941645310   109.39282022    41.21180077
 F      8   7   6     2.551710828404   109.29490924    40.55864152
 F      8   7   6     2.552555153274   108.71256161   282.20598250
 F      9   8   7     2.552285619060   109.72448419    40.30407399
 F      9   8   7     2.546973379447   108.78729155   281.39995637
 F     10   9   8     2.527236956893   110.78850637    49.00986063
 F     10   9   8     2.525896185703   108.93940703   168.50357576
 F     10   9   8     2.521916159600   110.84619671   287.86571006

---------------------
BASIS SET INFORMATION
---------------------
There are 3 groups of distinct atoms

 Group   1 Type C   : 11s6p2d1f contracted to 5s3p2d1f pattern {62111/411/11/1}
 Group   2 Type O   : 11s6p2d1f contracted to 5s3p2d1f pattern {62111/411/11/1}
 Group   3 Type F   : 11s6p2d1f contracted to 5s3p2d1f pattern {62111/411/11/1}

Atom   0C    basis set group =>   1
Atom   1O    basis set group =>   2
Atom   2O    basis set group =>   2
Atom   3C    basis set group =>   1
Atom   4C    basis set group =>   1
Atom   5C    basis set group =>   1
Atom   6C    basis set group =>   1
Atom   7C    basis set group =>   1
Atom   8C    basis set group =>   1
Atom   9C    basis set group =>   1
Atom  10F    basis set group =>   3
Atom  11F    basis set group =>   3
Atom  12F    basis set group =>   3
Atom  13F    basis set group =>   3
Atom  14F    basis set group =>   3
Atom  15F    basis set group =>   3
Atom  16F    basis set group =>   3
Atom  17F    basis set group =>   3
Atom  18F    basis set group =>   3
Atom  19F    basis set group =>   3
Atom  20F    basis set group =>   3
Atom  21F    basis set group =>   3
Atom  22F    basis set group =>   3
Atom  23F    basis set group =>   3
Atom  24F    basis set group =>   3
---------------------------------
AUXILIARY/J BASIS SET INFORMATION
---------------------------------
There are 3 groups of distinct atoms

 Group   1 Type C   : 12s5p4d2f1g contracted to 6s4p3d1f1g pattern {711111/2111/211/2/1}
 Group   2 Type O   : 12s5p4d2f1g contracted to 6s4p3d1f1g pattern {711111/2111/211/2/1}
 Group   3 Type F   : 12s5p4d2f1g contracted to 6s4p3d1f1g pattern {711111/2111/211/2/1}

Atom   0C    basis set group =>   1
Atom   1O    basis set group =>   2
Atom   2O    basis set group =>   2
Atom   3C    basis set group =>   1
Atom   4C    basis set group =>   1
Atom   5C    basis set group =>   1
Atom   6C    basis set group =>   1
Atom   7C    basis set group =>   1
Atom   8C    basis set group =>   1
Atom   9C    basis set group =>   1
Atom  10F    basis set group =>   3
Atom  11F    basis set group =>   3
Atom  12F    basis set group =>   3
Atom  13F    basis set group =>   3
Atom  14F    basis set group =>   3
Atom  15F    basis set group =>   3
Atom  16F    basis set group =>   3
Atom  17F    basis set group =>   3
Atom  18F    basis set group =>   3
Atom  19F    basis set group =>   3
Atom  20F    basis set group =>   3
Atom  21F    basis set group =>   3
Atom  22F    basis set group =>   3
Atom  23F    basis set group =>   3
Atom  24F    basis set group =>   3


           ************************************************************
           *        Program running with 20 parallel MPI-processes    *
           *              working on a common directory               *
           ************************************************************
------------------------------------------------------------------------------
                             ORCA STARTUP CALCULATIONS
                           -- RI-GTO INTEGRALS CHOSEN --
------------------------------------------------------------------------------
------------------------------------------------------------------------------
                   ___                                                        
                  /   \      - P O W E R E D   B Y -                         
                 /     \                                                     
                 |  |  |   _    _      __       _____    __    __             
                 |  |  |  | |  | |    /  \     |  _  \  |  |  /  |          
                  \  \/   | |  | |   /    \    | | | |  |  | /  /          
                 / \  \   | |__| |  /  /\  \   | |_| |  |  |/  /          
                |  |  |   |  __  | /  /__\  \  |    /   |      \           
                |  |  |   | |  | | |   __   |  |    \   |  |\   \          
                \     /   | |  | | |  |  |  |  | |\  \  |  | \   \       
                 \___/    |_|  |_| |__|  |__|  |_| \__\ |__|  \__/        
                                                                              
                      - O R C A' S   B I G   F R I E N D -                    
                                      &                                       
                       - I N T E G R A L  F E E D E R -                       
                                                                              
 v1 FN, 2020, v2 2021, v3 2022-2024                                           
------------------------------------------------------------------------------


----------------------
SHARK INTEGRAL PACKAGE
----------------------

Number of atoms                             ...     25
Number of basis functions                   ...    775
Number of shells                            ...    275
Maximum angular momentum                    ...      3
Integral batch strategy                     ... SHARK/LIBINT Hybrid
RI-J (if used) integral strategy            ... SPLIT-RIJ (Revised 2003 algorithm where possible)
Printlevel                                  ...      1
Contraction scheme used                     ... SEGMENTED contraction
Prescreening option                         ... SCHWARTZ
   Thresh                                   ... 2.500e-11
   Tcut                                     ... 2.500e-12
   Tpresel                                  ... 2.500e-12 
Coulomb Range Separation                    ... NOT USED
Exchange Range Separation                   ... NOT USED
Multipole approximations                    ... NOT USED
Finite Nucleus Model                        ... NOT USED
CABS basis                                  ... NOT available
Auxiliary Coulomb fitting basis             ... AVAILABLE
   # of basis functions in Aux-J            ...   1225
   # of shells in Aux-J                     ...    375
   Maximum angular momentum in Aux-J        ...      4
Auxiliary J/K fitting basis                 ... NOT available
Auxiliary Correlation fitting basis         ... NOT available
Auxiliary 'external' fitting basis          ... NOT available

Checking pre-screening integrals            ... done (  0.0 sec) Dimension = 275
Check shell pair data                       ... done (  0.0 sec)
Shell pair information
Shell pair cut-off parameter TPreSel        ...   2.5e-12
Total number of shell pairs                 ...     37950
Shell pairs after pre-screening             ...     23389
Total number of primitive shell pairs       ...    125800
Primitive shell pairs kept                  ...     49649
          la=0 lb=0:   4368 shell pairs
          la=1 lb=0:   6365 shell pairs
          la=1 lb=1:   2229 shell pairs
          la=2 lb=0:   3474 shell pairs
          la=2 lb=1:   2579 shell pairs
          la=2 lb=2:    727 shell pairs
          la=3 lb=0:   1577 shell pairs
          la=3 lb=1:   1244 shell pairs
          la=3 lb=2:    667 shell pairs
          la=3 lb=3:    159 shell pairs

Calculating one electron integrals          ... done (  0.1 sec)
Calculating RI/J V-Matrix + Cholesky decomp.... done (  0.1 sec)
Calculating Nuclear repulsion               ... done (  0.0 sec) ENN=   2873.703617410314 Eh

Diagonalization of the overlap matrix:
Smallest eigenvalue                        ... 6.000e-05
Time for diagonalization                   ...    0.138 sec
Threshold for overlap eigenvalues          ... 1.000e-07
Number of eigenvalues below threshold      ... 0
Time for construction of square roots      ...    0.057 sec
Total time needed                          ...    0.203 sec

-------------------
DFT GRID GENERATION
-------------------

General Integration Accuracy     IntAcc      ... 4.388
Radial Grid Type                 RadialGrid  ... OptM3 with GC (2021)
Angular Grid (max. ang.)         AngularGrid ... 4 (Lebedev-302)
Angular grid pruning method      GridPruning ... 4 (adaptive)
Weight generation scheme         WeightScheme... mBecke (2022)
Basis function cutoff            BFCut       ... 1.0000e-11
Integration weight cutoff        WCut        ... 1.0000e-14
Partially contracted basis set               ... off
Rotationally invariant grid construction     ... off
Angular grids for H and He will be reduced by one unit

Total number of grid points                  ...   151445
Total number of batches                      ...     2378
Average number of points per batch           ...       63
Average number of grid points per atom       ...     6058

--------------------
COSX GRID GENERATION
--------------------

GRIDX 1
-------
General Integration Accuracy     IntAcc      ... 3.816
Radial Grid Type                 RadialGrid  ... OptM3 with GC (2021)
Angular Grid (max. ang.)         AngularGrid ... 1 (Lebedev-50)
Angular grid pruning method      GridPruning ... 4 (adaptive)
Weight generation scheme         WeightScheme... mBecke (2022)
Basis function cutoff            BFCut       ... 1.0000e-11
Integration weight cutoff        WCut        ... 1.0000e-14
Partially contracted basis set               ... on
Rotationally invariant grid construction     ... off
Angular grids for H and He will be reduced by one unit

Total number of grid points                  ...    19017
Total number of batches                      ...      159
Average number of points per batch           ...      119
Average number of grid points per atom       ...      761
UseSFitting                                  ... on

GRIDX 2
-------
General Integration Accuracy     IntAcc      ... 4.020
Radial Grid Type                 RadialGrid  ... OptM3 with GC (2021)
Angular Grid (max. ang.)         AngularGrid ... 2 (Lebedev-110)
Angular grid pruning method      GridPruning ... 4 (adaptive)
Weight generation scheme         WeightScheme... mBecke (2022)
Basis function cutoff            BFCut       ... 1.0000e-11
Integration weight cutoff        WCut        ... 1.0000e-14
Partially contracted basis set               ... on
Rotationally invariant grid construction     ... off
Angular grids for H and He will be reduced by one unit

Total number of grid points                  ...    45064
Total number of batches                      ...      366
Average number of points per batch           ...      123
Average number of grid points per atom       ...     1803
UseSFitting                                  ... on

GRIDX 3
-------
General Integration Accuracy     IntAcc      ... 4.338
Radial Grid Type                 RadialGrid  ... OptM3 with GC (2021)
Angular Grid (max. ang.)         AngularGrid ... 3 (Lebedev-194)
Angular grid pruning method      GridPruning ... 4 (adaptive)
Weight generation scheme         WeightScheme... mBecke (2022)
Basis function cutoff            BFCut       ... 1.0000e-11
Integration weight cutoff        WCut        ... 1.0000e-14
Partially contracted basis set               ... on
Rotationally invariant grid construction     ... off
Angular grids for H and He will be reduced by one unit

Total number of grid points                  ...    99854
Total number of batches                      ...      792
Average number of points per batch           ...      126
Average number of grid points per atom       ...     3994
UseSFitting                                  ... on
Initializing property integral containers    ... done (  0.0 sec)

SHARK setup successfully completed in   3.9 seconds

Maximum memory used throughout the entire STARTUP-calculation: 59.5 MB


           ************************************************************
           *        Program running with 20 parallel MPI-processes    *
           *              working on a common directory               *
           ************************************************************
-------------------------------------------------------------------------------
                                 ORCA GUESS
                   Start orbitals & Density for SCF / CASSCF
-------------------------------------------------------------------------------

------------
SCF SETTINGS
------------
Hamiltonian:
 Density Functional     Method          .... DFT(GTOs)
 Exchange Functional    Exchange        .... TPSS
 Correlation Functional Correlation     .... TPSS
 LDA part of GGA corr.  LDAOpt          .... PW91-LDA
 Gradients option       PostSCFGGA      .... off
 Hybrid DFT is turned on
   Fraction HF Exchange ScalHFX         ....  0.100000
   Scaling of DF-GGA-X  ScalDFX         ....  0.900000
   Scaling of DF-GGA-C  ScalDFC         ....  1.000000
   Scaling of DF-LDA-C  ScalLDAC        ....  1.000000
   Perturbative correction              ....  0.000000
   NL short-range parameter             ....  5.200000
 RI-approximation to the Coulomb term is turned on
   Number of AuxJ basis functions       .... 1225
   RIJ-COSX (HFX calculated with COS-X)).... on


General Settings:
 Integral files         IntName         .... rf_mecn_freq_TP_D_B
 Hartree-Fock type      HFTyp           .... RHF
 Total Charge           Charge          ....   -1
 Multiplicity           Mult            ....    1
 Number of Electrons    NEL             ....  200
 Basis Dimension        Dim             ....  775
 Nuclear Repulsion      ENuc            ....   2873.7036174103 Eh

Convergence Acceleration:
 AO-DIIS                CNVDIIS         .... on
   Start iteration      DIISMaxIt       ....     0
   Startup error        DIISStart       ....  0.200000
   # of expansion vecs  DIISMaxEq       ....     5
   Bias factor          DIISBfac        ....   1.050
   Max. coefficient     DIISMaxC        ....  10.000
 MO-DIIS                CNVKDIIS        .... off
 Trust-Rad. Augm. Hess. CNVTRAH         .... auto
   Auto Start mean grad. ratio tolernc. ....  1.125000
   Auto Start start iteration           ....    50
   Auto Start num. interpolation iter.  ....    10
   Max. Number of Micro iterations      ....    24
   Max. Number of Macro iterations      .... Maxiter - #DIIS iter
   Number of Davidson start vectors     ....     2
   Converg. threshold    (grad. norm)   ....   1.000e-05
   Grad. Scal. Fac. for Micro threshold ....   0.100
   Minimum threshold for Micro iter.    ....   1.000e-02
   NR start threshold (gradient norm)   ....   1.000e-04
   Initial trust radius                 ....   0.400
   Minimum AH scaling param. (alpha)    ....   1.000
   Maximum AH scaling param. (alpha)    .... 1000.000
   Quad. conv. algorithm                .... NR
   White noise on init. David. guess    .... on
   Maximum white noise                  ....   0.010
   Pseudo random numbers                .... off
   Inactive MOs                         .... canonical
   Orbital update algorithm             .... Taylor
   Preconditioner                       .... Diag
   Full preconditioner red. dimension   ....   250
 SOSCF                  CNVSOSCF        .... on
   Start iteration      SOSCFMaxIt      ....   150
   Startup grad/error   SOSCFStart      ....  0.001000
   Hessian update       SOSCFHessUp     .... L-BFGS
 Level Shifting         CNVShift        .... on
   Level shift para.    LevelShift      ....    0.2500
   Turn off err/grad.   ShiftErr        ....    0.0000
 Zerner damping         CNVZerner       .... off
 Static damping         CNVDamp         .... on
   Fraction old density DampFac         ....    0.8500
   Max. Damping (<1)    DampMax         ....    0.9800
   Min. Damping (>=0)   DampMin         ....    0.0000
   Turn off err/grad.   DampErr         ....    0.0300

SCF Procedure:
 Maximum # iterations   MaxIter         ....  1500
 SCF integral mode      SCFMode         .... Direct
   Integral package                     .... SHARK and LIBINT hybrid scheme
 Reset frequency        DirectResetFreq ....    20
 Integral Threshold     Thresh          ....  2.500e-11 Eh
 Primitive CutOff       TCut            ....  2.500e-12 Eh

Convergence Tolerance:
 Convergence Check Mode ConvCheckMode   .... Total+1el-Energy
 Convergence forced     ConvForced      .... 0
 Energy Change          TolE            ....  1.000e-08 Eh
 1-El. energy change                    ....  1.000e-05 Eh
 Orbital Gradient       TolG            ....  1.000e-05
 Orbital Rotation angle TolX            ....  1.000e-05
 DIIS Error             TolErr          ....  5.000e-07

------------------------------
INITIAL GUESS: MODEL POTENTIAL
------------------------------
Loading Hartree-Fock densities                     ... done
Calculating cut-offs                               ... done
Initializing the effective Hamiltonian             ... done
Setting up the integral package (SHARK)            ... done
Starting the Coulomb interaction                   ... done (   0.2 sec)
Making the grid                                    ... done (   0.5 sec)
Mapping shells                                     ... done
Starting the XC term evaluation                    ... done (   0.2 sec)
  promolecular density results
     # of electrons  =    198.999294358
     EX              =   -207.209299745
     EC              =     -7.000026170
     EX+EC           =   -214.209325915
Transforming the Hamiltonian                       ... done (   0.1 sec)
Diagonalizing the Hamiltonian                      ... done (   0.1 sec)
Back transforming the eigenvectors                 ... done (   0.0 sec)
Now organizing SCF variables                       ... done
                      ------------------
                      INITIAL GUESS DONE (   1.2 sec)
                      ------------------
             **** ENERGY FILE WAS UPDATED (rf_mecn_freq_TP_D_B.en.tmp) ****
Finished Guess after   2.0 sec
Maximum memory used throughout the entire GUESS-calculation: 48.6 MB


           ************************************************************
           *        Program running with 20 parallel MPI-processes    *
           *              working on a common directory               *
           ************************************************************

-------------------------------------------------------------------------------------------
                                      ORCA LEAN-SCF
                              memory conserving SCF solver
-------------------------------------------------------------------------------------------

--------------------
CPCM SOLVATION MODEL
--------------------
CPCM parameters:
  Epsilon                                         ...      35.6880
  Refrac                                          ...       1.3442
  Rsolv                                           ...       1.3000
  Surface type                                    ... GAUSSIAN VDW
  Discretization scheme                           ... Constant charge density
    Threshold for H atoms                         ...       5.0000 (charges/Ang^2)
    Threshold for non-H atoms                     ...       5.0000 (charges/Ang^2)
  Epsilon function type                           ...         CPCM
Solvent:                                          ... ACETONITRILE
SMD-CDS solvent descriptors:
  Soln                                            ...       1.3442
  Soln25                                          ...       1.3416
  Sola                                            ...       0.0700
  Solb                                            ...       0.3200
  Solg                                            ...      41.2500
  Solc                                            ...       0.0000
  Solh                                            ...       0.0000
Radii:
  Scheme                                          ... Element-dependent radii
  Radius for C  used is    3.4960 Bohr (=   1.8500 Ang.)
  Radius for O  used is    4.0969 Bohr (=   2.1680 Ang.)
  Radius for F  used is    3.2692 Bohr (=   1.7300 Ang.)
Calculating surface                               ...        done! (  0.0s)
Cavity surface points                             ...         2143
Cavity Volume                                     ...    2167.7129
Cavity Surface-area                               ...    1118.3037
Calculating surface distance matrix               ...        done! (  0.0s)
Performing Cholesky decomposition & store         ...        done! (  0.1s)
Overall time for CPCM initialization              ...                 0.1s

----------------------------------------D-I-I-S--------------------------------------------
Iteration    Energy (Eh)           Delta-E    RMSDP     MaxDP     DIISErr   Damp  Time(sec)
-------------------------------------------------------------------------------------------
               ***  Starting incremental Fock matrix formation  ***
    1    -1953.3987506977523481     0.00e+00  5.21e-04  7.58e-02  3.10e-01  0.850   6.7
Warning: op=0 Small HOMO/LUMO gap (   0.022) - skipping pre-diagonalization
         Will do a full diagonalization
    2    -1953.5465637962038272    -1.48e-01  7.09e-04  1.55e-01  2.14e-01  0.850   4.1
                               ***Turning on AO-DIIS***
    3    -1953.6247163482917131    -7.82e-02  3.64e-04  7.46e-02  1.28e-01  0.850   3.9
    4    -1953.6711025751533271    -4.64e-02  1.91e-04  2.96e-02  9.50e-02  0.850   3.7
    5    -1953.7039946318695911    -3.29e-02  1.13e-04  9.27e-03  7.82e-02  0.850   3.7
    6    -1953.7300330405046225    -2.60e-02  8.23e-05  6.50e-03  6.72e-02  0.850   3.5
    7    -1953.7517159675039693    -2.17e-02  7.07e-05  6.08e-03  5.81e-02  0.850   3.6
    8    -1953.7701037177089347    -1.84e-02  6.24e-05  5.36e-03  4.91e-02  0.850   3.4
    9    -1953.7854824856190135    -1.54e-02  5.36e-05  4.56e-03  4.07e-02  0.850   3.3
   10    -1953.7982460345606341    -1.28e-02  4.54e-05  3.85e-03  3.38e-02  0.850   3.4
   11    -1953.8088758124818014    -1.06e-02  3.82e-05  3.29e-03  2.83e-02  0.850   3.3
   12    -1953.8177774983819290    -8.90e-03  2.15e-04  1.88e-02  2.38e-02  0.000   3.3
   13    -1953.8663142097134369    -4.85e-02  1.50e-05  2.78e-03  2.08e-03  0.000   3.7
                              *** Initializing SOSCF ***
---------------------------------------S-O-S-C-F--------------------------------------
Iteration    Energy (Eh)           Delta-E    RMSDP     MaxDP     MaxGrad    Time(sec)
--------------------------------------------------------------------------------------
   14    -1953.8663306337252834    -1.64e-05  7.27e-06  1.43e-03  5.82e-04     3.5
               *** Restarting incremental Fock matrix formation ***
   15    -1953.8663251478533311     5.49e-06  5.99e-06  5.44e-04  5.42e-05     6.6
   16    -1953.8663245815328082     5.66e-07  2.30e-06  1.80e-04  1.69e-04     4.0
   17    -1953.8663254635653175    -8.82e-07  1.63e-06  2.16e-04  3.30e-05     3.6
   18    -1953.8663253946792793     6.89e-08  8.76e-07  1.02e-04  4.68e-05     3.5
   19    -1953.8663254754251284    -8.07e-08  3.41e-07  7.05e-05  2.09e-06     3.3
                  *** Gradient check signals convergence ***

               *****************************************************
               *                     SUCCESS                       *
               *           SCF CONVERGED AFTER  19 CYCLES          *
               *****************************************************

Recomputing exchange energy using gridx3       ... done (    8.468 sec)
Old exchange energy                            :    -20.911748272 Eh
New exchange energy                            :    -20.911765120 Eh
Exchange energy change after final integration :     -0.000016848 Eh
Total energy after final integration           :  -1953.866342323 Eh

SMD CDS free energy correction energy :                 3.27356     Kcal/mol
Total Energy after SMD CDS correction =             -1953.861125568 Eh
             **** ENERGY FILE WAS UPDATED (rf_mecn_freq_TP_D_B.en.tmp) ****

----------------
TOTAL SCF ENERGY
----------------

Total Energy       :      -1953.86112556790385 Eh          -53167.26420 eV

Components:
Nuclear Repulsion  :       2873.70361741031365 Eh           78197.45091 eV
Electronic Energy  :      -4827.48778250194573 Eh         -131362.62091 eV
One Electron Energy:      -8461.54905049581248 Eh         -230250.45537 eV
Two Electron Energy:       3634.06126799386675 Eh           98887.83446 eV
CPCM Dielectric    :         -0.08216038379310 Eh              -2.23570 eV
SMD CDS (Gcds)     :          0.00521675510784 Eh               0.14196 eV

Virial components:
Potential Energy   :      -3901.12879052309108 Eh         -106155.11121 eV
Kinetic Energy     :       1947.26766495518723 Eh           52987.84701 eV
Virial Ratio       :          2.00338600631612

DFT components:
N(Alpha)           :       99.999976248431 electrons
N(Beta)            :       99.999976248431 electrons
N(Total)           :      199.999952496861 electrons
E(X)               :     -190.034802088769 Eh       
E(C)               :       -7.049320628726 Eh       
E(XC)              :     -197.084122717495 Eh       

CPCM Solvation Model Properties:
Surface-charge          :          0.99024862504962
Corrected charge        :          1.00000000000000
Outlying charge corr.   :          0.00000518181756 Eh               0.00014 eV
Free-energy (cav+disp)  :          0.00521675510784 Eh               0.14196 eV

---------------
SCF CONVERGENCE
---------------

  Last Energy change         ...    8.0746e-08  Tolerance :   1.0000e-08
  Last MAX-Density change    ...    7.0496e-05  Tolerance :   1.0000e-07
  Last RMS-Density change    ...    3.4146e-07  Tolerance :   5.0000e-09
  Last DIIS Error            ...    5.8209e-04  Tolerance :   5.0000e-07
  Last Orbital Gradient      ...    2.0949e-06  Tolerance :   1.0000e-05
  Last Orbital Rotation      ...    3.4806e-06  Tolerance :   1.0000e-05


----------------
ORBITAL ENERGIES
----------------

  NO   OCC          E(Eh)            E(eV) 
   0   2.0000     -24.660514      -671.0467 
   1   2.0000     -24.659481      -671.0186 
   2   2.0000     -24.659331      -671.0145 
   3   2.0000     -24.658968      -671.0046 
   4   2.0000     -24.658922      -671.0034 
   5   2.0000     -24.658905      -671.0029 
   6   2.0000     -24.658195      -670.9836 
   7   2.0000     -24.656037      -670.9249 
   8   2.0000     -24.656011      -670.9242 
   9   2.0000     -24.650551      -670.7756 
  10   2.0000     -24.649792      -670.7549 
  11   2.0000     -24.638922      -670.4591 
  12   2.0000     -24.638771      -670.4550 
  13   2.0000     -24.614289      -669.7889 
  14   2.0000     -24.613905      -669.7784 
  15   2.0000     -18.988582      -516.7056 
  16   2.0000     -18.986784      -516.6567 
  17   2.0000     -10.395156      -282.8666 
  18   2.0000     -10.343535      -281.4619 
  19   2.0000     -10.343006      -281.4475 
  20   2.0000     -10.340099      -281.3684 
  21   2.0000     -10.332780      -281.1692 
  22   2.0000     -10.317071      -280.7418 
  23   2.0000     -10.279251      -279.7126 
  24   2.0000     -10.189800      -277.2786 
  25   2.0000      -1.321709       -35.9655 
  26   2.0000      -1.298555       -35.3355 
  27   2.0000      -1.283753       -34.9327 
  28   2.0000      -1.276334       -34.7308 
  29   2.0000      -1.272014       -34.6133 
  30   2.0000      -1.260014       -34.2867 
  31   2.0000      -1.237009       -33.6607 
  32   2.0000      -1.231736       -33.5172 
  33   2.0000      -1.231018       -33.4977 
  34   2.0000      -1.230163       -33.4744 
  35   2.0000      -1.223788       -33.3010 
  36   2.0000      -1.220499       -33.2115 
  37   2.0000      -1.215949       -33.0876 
  38   2.0000      -1.204058       -32.7641 
  39   2.0000      -1.175626       -31.9904 
  40   2.0000      -0.997014       -27.1301 
  41   2.0000      -0.915820       -24.9207 
  42   2.0000      -0.822881       -22.3917 
  43   2.0000      -0.800682       -21.7877 
  44   2.0000      -0.770925       -20.9779 
  45   2.0000      -0.732665       -19.9368 
  46   2.0000      -0.690188       -18.7810 
  47   2.0000      -0.661322       -17.9955 
  48   2.0000      -0.642697       -17.4887 
  49   2.0000      -0.622289       -16.9334 
  50   2.0000      -0.617560       -16.8047 
  51   2.0000      -0.609759       -16.5924 
  52   2.0000      -0.601009       -16.3543 
  53   2.0000      -0.596716       -16.2375 
  54   2.0000      -0.594975       -16.1901 
  55   2.0000      -0.582378       -15.8473 
  56   2.0000      -0.579174       -15.7601 
  57   2.0000      -0.574058       -15.6209 
  58   2.0000      -0.567610       -15.4455 
  59   2.0000      -0.556048       -15.1308 
  60   2.0000      -0.553071       -15.0498 
  61   2.0000      -0.547564       -14.9000 
  62   2.0000      -0.537648       -14.6301 
  63   2.0000      -0.521758       -14.1978 
  64   2.0000      -0.486385       -13.2352 
  65   2.0000      -0.482631       -13.1331 
  66   2.0000      -0.477220       -12.9858 
  67   2.0000      -0.473467       -12.8837 
  68   2.0000      -0.469755       -12.7827 
  69   2.0000      -0.466121       -12.6838 
  70   2.0000      -0.461597       -12.5607 
  71   2.0000      -0.455835       -12.4039 
  72   2.0000      -0.452100       -12.3023 
  73   2.0000      -0.449900       -12.2424 
  74   2.0000      -0.447622       -12.1804 
  75   2.0000      -0.441017       -12.0007 
  76   2.0000      -0.437991       -11.9183 
  77   2.0000      -0.433811       -11.8046 
  78   2.0000      -0.432040       -11.7564 
  79   2.0000      -0.427713       -11.6387 
  80   2.0000      -0.423218       -11.5164 
  81   2.0000      -0.422144       -11.4871 
  82   2.0000      -0.419246       -11.4083 
  83   2.0000      -0.415750       -11.3131 
  84   2.0000      -0.414432       -11.2773 
  85   2.0000      -0.411482       -11.1970 
  86   2.0000      -0.408820       -11.1246 
  87   2.0000      -0.405564       -11.0360 
  88   2.0000      -0.403002       -10.9662 
  89   2.0000      -0.398629       -10.8472 
  90   2.0000      -0.389287       -10.5930 
  91   2.0000      -0.382880       -10.4187 
  92   2.0000      -0.375744       -10.2245 
  93   2.0000      -0.373899       -10.1743 
  94   2.0000      -0.362998        -9.8777 
  95   2.0000      -0.348013        -9.4699 
  96   2.0000      -0.318433        -8.6650 
  97   2.0000      -0.232297        -6.3211 
  98   2.0000      -0.217834        -5.9276 
  99   2.0000      -0.215775        -5.8715 
 100   0.0000      -0.019185        -0.5220 
 101   0.0000      -0.006900        -0.1878 
 102   0.0000       0.013592         0.3699 
 103   0.0000       0.041459         1.1282 
 104   0.0000       0.042960         1.1690 
 105   0.0000       0.085783         2.3343 
 106   0.0000       0.088446         2.4067 
 107   0.0000       0.099390         2.7045 
 108   0.0000       0.112985         3.0745 
 109   0.0000       0.122706         3.3390 
 110   0.0000       0.124273         3.3816 
*Only the first 10 virtual orbitals were printed.

                    ********************************
                    * MULLIKEN POPULATION ANALYSIS *
                    ********************************

-----------------------
MULLIKEN ATOMIC CHARGES
-----------------------
   0 C :    0.166599
   1 O :   -0.477961
   2 O :   -0.491723
   3 C :    0.300357
   4 C :    0.279452
   5 C :    0.294827
   6 C :    0.292529
   7 C :    0.272739
   8 C :    0.294960
   9 C :    0.408254
  10 F :   -0.195408
  11 F :   -0.201096
  12 F :   -0.164638
  13 F :   -0.173380
  14 F :   -0.157003
  15 F :   -0.155226
  16 F :   -0.151150
  17 F :   -0.150287
  18 F :   -0.149238
  19 F :   -0.149528
  20 F :   -0.146842
  21 F :   -0.144080
  22 F :   -0.136066
  23 F :   -0.132889
  24 F :   -0.133201
Sum of atomic charges:   -1.0000000

--------------------------------
MULLIKEN REDUCED ORBITAL CHARGES
--------------------------------
  0 C s       :     3.035272  s :     3.035272
      pz      :     0.843292  p :     2.517548
      px      :     0.880814
      py      :     0.793442
      dz2     :     0.031940  d :     0.256470
      dxz     :     0.022114
      dyz     :     0.064604
      dx2y2   :     0.062840
      dxy     :     0.074972
      f0      :     0.002295  f :     0.024112
      f+1     :     0.001722
      f-1     :     0.002899
      f+2     :     0.004806
      f-2     :     0.002343
      f+3     :     0.005064
      f-3     :     0.004982

  1 O s       :     3.788644  s :     3.788644
      pz      :     1.488088  p :     4.660266
      px      :     1.601920
      py      :     1.570258
      dz2     :     0.005540  d :     0.027287
      dxz     :     0.003680
      dyz     :     0.006372
      dx2y2   :     0.005160
      dxy     :     0.006535
      f0      :     0.000123  f :     0.001764
      f+1     :     0.000136
      f-1     :     0.000352
      f+2     :     0.000252
      f-2     :     0.000336
      f+3     :     0.000276
      f-3     :     0.000289

  2 O s       :     3.789797  s :     3.789797
      pz      :     1.606001  p :     4.673108
      px      :     1.698663
      py      :     1.368445
      dz2     :     0.002908  d :     0.027077
      dxz     :     0.000683
      dyz     :     0.007931
      dx2y2   :     0.008368
      dxy     :     0.007186
      f0      :     0.000191  f :     0.001741
      f+1     :     0.000029
      f-1     :     0.000251
      f+2     :     0.000305
      f-2     :     0.000087
      f+3     :     0.000429
      f-3     :     0.000448

  3 C s       :     3.122659  s :     3.122659
      pz      :     0.667387  p :     2.287238
      px      :     0.976093
      py      :     0.643758
      dz2     :     0.046511  d :     0.263196
      dxz     :     0.051836
      dyz     :     0.068147
      dx2y2   :     0.041824
      dxy     :     0.054877
      f0      :     0.005142  f :     0.026550
      f+1     :     0.004554
      f-1     :     0.004818
      f+2     :     0.003321
      f-2     :     0.001470
      f+3     :     0.004547
      f-3     :     0.002698

  4 C s       :     3.131401  s :     3.131401
      pz      :     0.628146  p :     2.268487
      px      :     0.949790
      py      :     0.690551
      dz2     :     0.057733  d :     0.292621
      dxz     :     0.059769
      dyz     :     0.072407
      dx2y2   :     0.041479
      dxy     :     0.061232
      f0      :     0.003743  f :     0.028039
      f+1     :     0.005191
      f-1     :     0.007901
      f+2     :     0.002393
      f-2     :     0.002022
      f+3     :     0.004271
      f-3     :     0.002518

  5 C s       :     3.131945  s :     3.131945
      pz      :     0.599621  p :     2.245545
      px      :     0.926799
      py      :     0.719124
      dz2     :     0.073447  d :     0.299376
      dxz     :     0.063475
      dyz     :     0.063754
      dx2y2   :     0.037336
      dxy     :     0.061364
      f0      :     0.004466  f :     0.028307
      f+1     :     0.004642
      f-1     :     0.007015
      f+2     :     0.003012
      f-2     :     0.003913
      f+3     :     0.002943
      f-3     :     0.002317

  6 C s       :     3.130133  s :     3.130133
      pz      :     0.588229  p :     2.246028
      px      :     0.926811
      py      :     0.730988
      dz2     :     0.083271  d :     0.302861
      dxz     :     0.064504
      dyz     :     0.056548
      dx2y2   :     0.035982
      dxy     :     0.062556
      f0      :     0.006281  f :     0.028449
      f+1     :     0.004067
      f-1     :     0.004388
      f+2     :     0.004195
      f-2     :     0.005291
      f+3     :     0.002230
      f-3     :     0.001998

  7 C s       :     3.133017  s :     3.133017
      pz      :     0.596695  p :     2.262869
      px      :     0.938574
      py      :     0.727600
      dz2     :     0.078932  d :     0.302908
      dxz     :     0.064272
      dyz     :     0.061196
      dx2y2   :     0.035924
      dxy     :     0.062586
      f0      :     0.005279  f :     0.028468
      f+1     :     0.004292
      f-1     :     0.005958
      f+2     :     0.003524
      f-2     :     0.004684
      f+3     :     0.002596
      f-3     :     0.002136

  8 C s       :     3.102945  s :     3.102945
      pz      :     0.627100  p :     2.276741
      px      :     0.942419
      py      :     0.707222
      dz2     :     0.062002  d :     0.296844
      dxz     :     0.063456
      dyz     :     0.073288
      dx2y2   :     0.036911
      dxy     :     0.061186
      f0      :     0.003622  f :     0.028509
      f+1     :     0.005099
      f-1     :     0.008448
      f+2     :     0.002456
      f-2     :     0.002595
      f+3     :     0.003777
      f-3     :     0.002513

  9 C s       :     3.020874  s :     3.020874
      pz      :     0.664953  p :     2.167671
      px      :     0.826778
      py      :     0.675941
      dz2     :     0.068068  d :     0.362777
      dxz     :     0.071078
      dyz     :     0.088694
      dx2y2   :     0.065938
      dxy     :     0.068999
      f0      :     0.004428  f :     0.040425
      f+1     :     0.008013
      f-1     :     0.009215
      f+2     :     0.004472
      f-2     :     0.003264
      f+3     :     0.007474
      f-3     :     0.003559

 10 F s       :     3.912118  s :     3.912118
      pz      :     1.895150  p :     5.267981
      px      :     1.903079
      py      :     1.469752
      dz2     :     0.002049  d :     0.014654
      dxz     :     0.000224
      dyz     :     0.002902
      dx2y2   :     0.005731
      dxy     :     0.003748
      f0      :     0.000052  f :     0.000655
      f+1     :     0.000013
      f-1     :     0.000131
      f+2     :     0.000089
      f-2     :     0.000009
      f+3     :     0.000156
      f-3     :     0.000206

 11 F s       :     3.913099  s :     3.913099
      pz      :     1.475921  p :     5.272940
      px      :     1.913763
      py      :     1.883256
      dz2     :     0.007138  d :     0.014407
      dxz     :     0.003474
      dyz     :     0.003210
      dx2y2   :     0.000307
      dxy     :     0.000277
      f0      :     0.000292  f :     0.000649
      f+1     :     0.000143
      f-1     :     0.000170
      f+2     :     0.000023
      f-2     :     0.000018
      f+3     :     0.000001
      f-3     :     0.000002

 12 F s       :     3.915183  s :     3.915183
      pz      :     1.839832  p :     5.233133
      px      :     1.903344
      py      :     1.489957
      dz2     :     0.002017  d :     0.015624
      dxz     :     0.000486
      dyz     :     0.004370
      dx2y2   :     0.005279
      dxy     :     0.003472
      f0      :     0.000075  f :     0.000699
      f+1     :     0.000005
      f-1     :     0.000117
      f+2     :     0.000163
      f-2     :     0.000041
      f+3     :     0.000127
      f-3     :     0.000170

 13 F s       :     3.917802  s :     3.917802
      pz      :     1.444296  p :     5.239542
      px      :     1.906263
      py      :     1.888982
      dz2     :     0.008192  d :     0.015350
      dxz     :     0.003686
      dyz     :     0.003093
      dx2y2   :     0.000208
      dxy     :     0.000172
      f0      :     0.000364  f :     0.000685
      f+1     :     0.000160
      f-1     :     0.000146
      f+2     :     0.000007
      f-2     :     0.000007
      f+3     :     0.000001
      f-3     :     0.000001

 14 F s       :     3.917354  s :     3.917354
      pz      :     1.737129  p :     5.223133
      px      :     1.898349
      py      :     1.587655
      dz2     :     0.002291  d :     0.015812
      dxz     :     0.001326
      dyz     :     0.005952
      dx2y2   :     0.003476
      dxy     :     0.002768
      f0      :     0.000078  f :     0.000703
      f+1     :     0.000009
      f-1     :     0.000161
      f+2     :     0.000200
      f-2     :     0.000098
      f+3     :     0.000075
      f-3     :     0.000083

 15 F s       :     3.916844  s :     3.916844
      pz      :     1.478985  p :     5.221796
      px      :     1.902136
      py      :     1.840674
      dz2     :     0.007075  d :     0.015878
      dxz     :     0.003413
      dyz     :     0.004336
      dx2y2   :     0.000465
      dxy     :     0.000590
      f0      :     0.000275  f :     0.000708
      f+1     :     0.000125
      f-1     :     0.000222
      f+2     :     0.000036
      f-2     :     0.000045
      f+3     :     0.000003
      f-3     :     0.000002

 16 F s       :     3.918059  s :     3.918059
      pz      :     1.612595  p :     5.216427
      px      :     1.900046
      py      :     1.703786
      dz2     :     0.003845  d :     0.015957
      dxz     :     0.002282
      dyz     :     0.006264
      dx2y2   :     0.001822
      dxy     :     0.001743
      f0      :     0.000103  f :     0.000708
      f+1     :     0.000041
      f-1     :     0.000256
      f+2     :     0.000150
      f-2     :     0.000104
      f+3     :     0.000028
      f-3     :     0.000026

 17 F s       :     3.917817  s :     3.917817
      pz      :     1.571328  p :     5.215737
      px      :     1.899048
      py      :     1.745362
      dz2     :     0.004667  d :     0.016021
      dxz     :     0.002671
      dyz     :     0.005916
      dx2y2   :     0.001351
      dxy     :     0.001416
      f0      :     0.000133  f :     0.000712
      f+1     :     0.000063
      f-1     :     0.000269
      f+2     :     0.000117
      f-2     :     0.000097
      f+3     :     0.000017
      f-3     :     0.000016

 18 F s       :     3.918528  s :     3.918528
      pz      :     1.692273  p :     5.213925
      px      :     1.900251
      py      :     1.621401
      dz2     :     0.002705  d :     0.016073
      dxz     :     0.001638
      dyz     :     0.006378
      dx2y2   :     0.002938
      dxy     :     0.002414
      f0      :     0.000080  f :     0.000712
      f+1     :     0.000014
      f-1     :     0.000199
      f+2     :     0.000199
      f-2     :     0.000103
      f+3     :     0.000056
      f-3     :     0.000061

 19 F s       :     3.918617  s :     3.918617
      pz      :     1.505096  p :     5.214154
      px      :     1.897117
      py      :     1.811941
      dz2     :     0.006287  d :     0.016047
      dxz     :     0.003279
      dyz     :     0.004930
      dx2y2   :     0.000707
      dxy     :     0.000843
      f0      :     0.000218  f :     0.000710
      f+1     :     0.000108
      f-1     :     0.000247
      f+2     :     0.000059
      f-2     :     0.000067
      f+3     :     0.000006
      f-3     :     0.000005

 20 F s       :     3.917965  s :     3.917965
      pz      :     1.807182  p :     5.212173
      px      :     1.895317
      py      :     1.509674
      dz2     :     0.002037  d :     0.015994
      dxz     :     0.000720
      dyz     :     0.005060
      dx2y2   :     0.004806
      dxy     :     0.003371
      f0      :     0.000080  f :     0.000711
      f+1     :     0.000004
      f-1     :     0.000123
      f+2     :     0.000186
      f-2     :     0.000062
      f+3     :     0.000113
      f-3     :     0.000141

 21 F s       :     3.915552  s :     3.915552
      pz      :     1.437837  p :     5.211663
      px      :     1.897509
      py      :     1.876318
      dz2     :     0.008349  d :     0.016139
      dxz     :     0.003839
      dyz     :     0.003506
      dx2y2   :     0.000210
      dxy     :     0.000235
      f0      :     0.000365  f :     0.000726
      f+1     :     0.000166
      f-1     :     0.000168
      f+2     :     0.000010
      f-2     :     0.000015
      f+3     :     0.000001
      f-3     :     0.000001

 22 F s       :     3.912889  s :     3.912889
      pz      :     1.851749  p :     5.206248
      px      :     1.886675
      py      :     1.467823
      dz2     :     0.002197  d :     0.016171
      dxz     :     0.000358
      dyz     :     0.004259
      dx2y2   :     0.005893
      dxy     :     0.003465
      f0      :     0.000078  f :     0.000759
      f+1     :     0.000008
      f-1     :     0.000137
      f+2     :     0.000155
      f-2     :     0.000031
      f+3     :     0.000141
      f-3     :     0.000209

 23 F s       :     3.911225  s :     3.911225
      pz      :     1.819236  p :     5.204666
      px      :     1.609162
      py      :     1.776268
      dz2     :     0.002156  d :     0.016230
      dxz     :     0.003774
      dyz     :     0.001948
      dx2y2   :     0.003536
      dxy     :     0.004816
      f0      :     0.000087  f :     0.000769
      f+1     :     0.000097
      f-1     :     0.000042
      f+2     :     0.000076
      f-2     :     0.000176
      f+3     :     0.000123
      f-3     :     0.000169

 24 F s       :     3.911327  s :     3.911327
      pz      :     1.435664  p :     5.204764
      px      :     1.885931
      py      :     1.883168
      dz2     :     0.008835  d :     0.016336
      dxz     :     0.003733
      dyz     :     0.003412
      dx2y2   :     0.000197
      dxy     :     0.000159
      f0      :     0.000405  f :     0.000773
      f+1     :     0.000175
      f-1     :     0.000171
      f+2     :     0.000012
      f-2     :     0.000008
      f+3     :     0.000001
      f-3     :     0.000001



                     *******************************
                     * LOEWDIN POPULATION ANALYSIS *
                     *******************************

----------------------
LOEWDIN ATOMIC CHARGES
----------------------
   0 C :   -0.691502
   1 O :   -0.047430
   2 O :   -0.053700
   3 C :   -0.439043
   4 C :   -0.456947
   5 C :   -0.458538
   6 C :   -0.459295
   7 C :   -0.460544
   8 C :   -0.466701
   9 C :   -0.667953
  10 F :    0.163309
  11 F :    0.155582
  12 F :    0.210528
  13 F :    0.203411
  14 F :    0.217136
  15 F :    0.219190
  16 F :    0.223220
  17 F :    0.225019
  18 F :    0.226571
  19 F :    0.225378
  20 F :    0.224879
  21 F :    0.226336
  22 F :    0.226041
  23 F :    0.226763
  24 F :    0.228289

-------------------------------
LOEWDIN REDUCED ORBITAL CHARGES
-------------------------------
  0 C s       :     2.776347  s :     2.776347
      pz      :     0.855510  p :     2.734711
      px      :     0.892133
      py      :     0.987068
      dz2     :     0.121818  d :     1.030515
      dxz     :     0.105441
      dyz     :     0.249320
      dx2y2   :     0.278938
      dxy     :     0.274997
      f0      :     0.015139  f :     0.149930
      f+1     :     0.010041
      f-1     :     0.016774
      f+2     :     0.027628
      f-2     :     0.016733
      f+3     :     0.030891
      f-3     :     0.032723

  1 O s       :     3.429942  s :     3.429942
      pz      :     1.449761  p :     4.550114
      px      :     1.534287
      py      :     1.566066
      dz2     :     0.008685  d :     0.061878
      dxz     :     0.010027
      dyz     :     0.015683
      dx2y2   :     0.012441
      dxy     :     0.015042
      f0      :     0.000464  f :     0.005496
      f+1     :     0.000331
      f-1     :     0.000810
      f+2     :     0.000879
      f-2     :     0.001309
      f+3     :     0.000887
      f-3     :     0.000817

  2 O s       :     3.429474  s :     3.429474
      pz      :     1.501571  p :     4.556823
      px      :     1.570826
      py      :     1.484426
      dz2     :     0.007965  d :     0.061950
      dxz     :     0.000942
      dyz     :     0.014890
      dx2y2   :     0.021205
      dxy     :     0.016948
      f0      :     0.000508  f :     0.005453
      f+1     :     0.000107
      f-1     :     0.000932
      f+2     :     0.000830
      f-2     :     0.000180
      f+3     :     0.001445
      f-3     :     0.001452

  3 C s       :     2.789495  s :     2.789495
      pz      :     0.795106  p :     2.598052
      px      :     1.034366
      py      :     0.768580
      dz2     :     0.207114  d :     0.882752
      dxz     :     0.158046
      dyz     :     0.181326
      dx2y2   :     0.175854
      dxy     :     0.160411
      f0      :     0.035947  f :     0.168745
      f+1     :     0.024152
      f-1     :     0.033951
      f+2     :     0.018404
      f-2     :     0.010639
      f+3     :     0.024664
      f-3     :     0.020987

  4 C s       :     2.766846  s :     2.766846
      pz      :     0.765865  p :     2.596404
      px      :     1.016506
      py      :     0.814032
      dz2     :     0.234750  d :     0.917752
      dxz     :     0.148976
      dyz     :     0.197040
      dx2y2   :     0.161422
      dxy     :     0.175564
      f0      :     0.033515  f :     0.175945
      f+1     :     0.028196
      f-1     :     0.040986
      f+2     :     0.019804
      f-2     :     0.012984
      f+3     :     0.022304
      f-3     :     0.018155

  5 C s       :     2.765011  s :     2.765011
      pz      :     0.745273  p :     2.595534
      px      :     1.008646
      py      :     0.841614
      dz2     :     0.241012  d :     0.920566
      dxz     :     0.142950
      dyz     :     0.221187
      dx2y2   :     0.126561
      dxy     :     0.188856
      f0      :     0.031572  f :     0.177427
      f+1     :     0.026677
      f-1     :     0.042094
      f+2     :     0.025916
      f-2     :     0.021952
      f+3     :     0.015369
      f-3     :     0.013847

  6 C s       :     2.763828  s :     2.763828
      pz      :     0.734889  p :     2.595126
      px      :     1.006361
      py      :     0.853876
      dz2     :     0.241684  d :     0.922347
      dxz     :     0.137871
      dyz     :     0.236705
      dx2y2   :     0.111536
      dxy     :     0.194551
      f0      :     0.032656  f :     0.177994
      f+1     :     0.024557
      f-1     :     0.038583
      f+2     :     0.031487
      f-2     :     0.028049
      f+3     :     0.011617
      f-3     :     0.011046

  7 C s       :     2.763415  s :     2.763415
      pz      :     0.741100  p :     2.594995
      px      :     1.006580
      py      :     0.847315
      dz2     :     0.241190  d :     0.923887
      dxz     :     0.141073
      dyz     :     0.230176
      dx2y2   :     0.118384
      dxy     :     0.193064
      f0      :     0.031981  f :     0.178247
      f+1     :     0.025502
      f-1     :     0.040817
      f+2     :     0.028671
      f-2     :     0.025346
      f+3     :     0.013554
      f-3     :     0.012376

  8 C s       :     2.766870  s :     2.766870
      pz      :     0.764722  p :     2.598547
      px      :     1.009068
      py      :     0.824757
      dz2     :     0.235957  d :     0.922846
      dxz     :     0.153829
      dyz     :     0.208070
      dx2y2   :     0.140441
      dxy     :     0.184548
      f0      :     0.032451  f :     0.178438
      f+1     :     0.028379
      f-1     :     0.043497
      f+2     :     0.021778
      f-2     :     0.015975
      f+3     :     0.019635
      f-3     :     0.016724

  9 C s       :     2.761595  s :     2.761595
      pz      :     0.795931  p :     2.506196
      px      :     0.906442
      py      :     0.803823
      dz2     :     0.270998  d :     1.144699
      dxz     :     0.200252
      dyz     :     0.226878
      dx2y2   :     0.228266
      dxy     :     0.218305
      f0      :     0.038821  f :     0.255463
      f+1     :     0.041927
      f-1     :     0.049612
      f+2     :     0.030893
      f-2     :     0.026757
      f+3     :     0.038459
      f-3     :     0.028995

 10 F s       :     3.612013  s :     3.612013
      pz      :     1.825444  p :     5.194040
      px      :     1.831696
      py      :     1.536900
      dz2     :     0.003932  d :     0.029226
      dxz     :     0.000353
      dyz     :     0.005193
      dx2y2   :     0.011425
      dxy     :     0.008324
      f0      :     0.000114  f :     0.001411
      f+1     :     0.000032
      f-1     :     0.000247
      f+2     :     0.000193
      f-2     :     0.000018
      f+3     :     0.000415
      f-3     :     0.000392

 11 F s       :     3.615252  s :     3.615252
      pz      :     1.539269  p :     5.198824
      px      :     1.839592
      py      :     1.819963
      dz2     :     0.014232  d :     0.028950
      dxz     :     0.007911
      dyz     :     0.005729
      dx2y2   :     0.000532
      dxy     :     0.000547
      f0      :     0.000560  f :     0.001392
      f+1     :     0.000395
      f-1     :     0.000331
      f+2     :     0.000058
      f-2     :     0.000043
      f+3     :     0.000002
      f-3     :     0.000003

 12 F s       :     3.599912  s :     3.599912
      pz      :     1.785325  p :     5.157578
      px      :     1.823143
      py      :     1.549110
      dz2     :     0.003874  d :     0.030476
      dxz     :     0.001000
      dyz     :     0.007830
      dx2y2   :     0.010404
      dxy     :     0.007368
      f0      :     0.000133  f :     0.001506
      f+1     :     0.000014
      f-1     :     0.000278
      f+2     :     0.000310
      f-2     :     0.000100
      f+3     :     0.000350
      f-3     :     0.000322

 13 F s       :     3.602830  s :     3.602830
      pz      :     1.522289  p :     5.162304
      px      :     1.824815
      py      :     1.815200
      dz2     :     0.016111  d :     0.029981
      dxz     :     0.007982
      dyz     :     0.005402
      dx2y2   :     0.000252
      dxy     :     0.000233
      f0      :     0.000678  f :     0.001475
      f+1     :     0.000438
      f-1     :     0.000332
      f+2     :     0.000008
      f-2     :     0.000015
      f+3     :     0.000001
      f-3     :     0.000002

 14 F s       :     3.599048  s :     3.599048
      pz      :     1.720016  p :     5.151461
      px      :     1.819259
      py      :     1.612186
      dz2     :     0.004059  d :     0.030831
      dxz     :     0.002844
      dyz     :     0.011479
      dx2y2   :     0.006760
      dxy     :     0.005688
      f0      :     0.000165  f :     0.001524
      f+1     :     0.000018
      f-1     :     0.000339
      f+2     :     0.000384
      f-2     :     0.000251
      f+3     :     0.000205
      f-3     :     0.000161

 15 F s       :     3.598303  s :     3.598303
      pz      :     1.549642  p :     5.150060
      px      :     1.821732
      py      :     1.778686
      dz2     :     0.013590  d :     0.030915
      dxz     :     0.007324
      dyz     :     0.008268
      dx2y2   :     0.000652
      dxy     :     0.001082
      f0      :     0.000540  f :     0.001532
      f+1     :     0.000333
      f-1     :     0.000458
      f+2     :     0.000063
      f-2     :     0.000126
      f+3     :     0.000007
      f-3     :     0.000004

 16 F s       :     3.597987  s :     3.597987
      pz      :     1.639019  p :     5.146205
      px      :     1.819581
      py      :     1.687605
      dz2     :     0.006893  d :     0.031052
      dxz     :     0.004895
      dyz     :     0.012478
      dx2y2   :     0.003290
      dxy     :     0.003496
      f0      :     0.000247  f :     0.001537
      f+1     :     0.000103
      f-1     :     0.000480
      f+2     :     0.000295
      f-2     :     0.000284
      f+3     :     0.000080
      f-3     :     0.000048

 17 F s       :     3.597454  s :     3.597454
      pz      :     1.611799  p :     5.144852
      px      :     1.818515
      py      :     1.714538
      dz2     :     0.008526  d :     0.031131
      dxz     :     0.005708
      dyz     :     0.011763
      dx2y2   :     0.002349
      dxy     :     0.002785
      f0      :     0.000305  f :     0.001543
      f+1     :     0.000160
      f-1     :     0.000506
      f+2     :     0.000232
      f-2     :     0.000263
      f+3     :     0.000049
      f-3     :     0.000028

 18 F s       :     3.597453  s :     3.597453
      pz      :     1.690829  p :     5.143258
      px      :     1.818664
      py      :     1.633764
      dz2     :     0.004720  d :     0.031171
      dxz     :     0.003473
      dyz     :     0.012516
      dx2y2   :     0.005547
      dxy     :     0.004914
      f0      :     0.000185  f :     0.001546
      f+1     :     0.000032
      f-1     :     0.000397
      f+2     :     0.000384
      f-2     :     0.000277
      f+3     :     0.000158
      f-3     :     0.000113

 19 F s       :     3.598027  s :     3.598027
      pz      :     1.567892  p :     5.143922
      px      :     1.817253
      py      :     1.758778
      dz2     :     0.011944  d :     0.031130
      dxz     :     0.006933
      dyz     :     0.009576
      dx2y2   :     0.001092
      dxy     :     0.001585
      f0      :     0.000453  f :     0.001542
      f+1     :     0.000278
      f-1     :     0.000491
      f+2     :     0.000115
      f-2     :     0.000182
      f+3     :     0.000015
      f-3     :     0.000009

 20 F s       :     3.598814  s :     3.598814
      pz      :     1.764402  p :     5.143714
      px      :     1.817252
      py      :     1.562060
      dz2     :     0.003751  d :     0.031048
      dxz     :     0.001464
      dyz     :     0.009340
      dx2y2   :     0.009469
      dxy     :     0.007025
      f0      :     0.000147  f :     0.001544
      f+1     :     0.000009
      f-1     :     0.000290
      f+2     :     0.000356
      f-2     :     0.000155
      f+3     :     0.000315
      f-3     :     0.000273

 21 F s       :     3.597848  s :     3.597848
      pz      :     1.521147  p :     5.142943
      px      :     1.819302
      py      :     1.802494
      dz2     :     0.016410  d :     0.031303
      dxz     :     0.008085
      dyz     :     0.006175
      dx2y2   :     0.000278
      dxy     :     0.000355
      f0      :     0.000695  f :     0.001570
      f+1     :     0.000441
      f-1     :     0.000377
      f+2     :     0.000011
      f-2     :     0.000042
      f+3     :     0.000002
      f-3     :     0.000002

 22 F s       :     3.600812  s :     3.600812
      pz      :     1.790090  p :     5.140658
      px      :     1.806253
      py      :     1.544314
      dz2     :     0.004284  d :     0.030864
      dxz     :     0.000514
      dyz     :     0.007621
      dx2y2   :     0.011876
      dxy     :     0.006571
      f0      :     0.000149  f :     0.001625
      f+1     :     0.000019
      f-1     :     0.000309
      f+2     :     0.000321
      f-2     :     0.000060
      f+3     :     0.000354
      f-3     :     0.000414

 23 F s       :     3.600899  s :     3.600899
[...]
 11:     68.20   0.000135    0.68  0.000616  ( 0.004403 -0.023818  0.005376)
 12:     71.24   0.000182    0.92  0.000796  (-0.011917  0.020832 -0.014844)
 13:     73.75   0.000299    1.51  0.001265  (-0.013970  0.016451 -0.028270)
 14:    114.08   0.000811    4.10  0.002220  (-0.038950  0.005483 -0.025931)
 15:    129.55   0.000325    1.64  0.000782  ( 0.026745  0.002657 -0.007725)
 16:    157.40   0.000444    2.24  0.000880  ( 0.023713 -0.012781  0.012434)
 17:    182.97   0.003045   15.39  0.005193  ( 0.001677  0.000620 -0.072038)
 18:    194.32   0.000243    1.23  0.000390  ( 0.011376  0.006021  0.014974)
 19:    196.81   0.000074    0.37  0.000118  ( 0.009074 -0.003330  0.004907)
 20:    202.87   0.000627    3.17  0.000964  ( 0.000380  0.031038 -0.000509)
 21:    225.42   0.000042    0.21  0.000058  (-0.000449  0.001967  0.007372)
 22:    238.38   0.000018    0.09  0.000024  ( 0.004489  0.000101  0.001960)
 23:    244.09   0.000142    0.72  0.000182  (-0.006211  0.002071  0.011787)
 24:    249.69   0.000002    0.01  0.000003  (-0.001093  0.000159  0.001351)
 25:    253.29   0.000209    1.06  0.000258  ( 0.005365 -0.001716  0.015036)
 26:    278.09   0.001429    7.22  0.001604  ( 0.038059 -0.011691 -0.004285)
 27:    297.73   0.000040    0.20  0.000042  ( 0.002638 -0.000209 -0.005921)
 28:    307.05   0.000155    0.78  0.000157  (-0.007868  0.009758  0.000175)
 29:    327.36   0.000136    0.69  0.000129  (-0.008950  0.002586 -0.006522)
 30:    338.57   0.000571    2.88  0.000526  (-0.015837  0.000449 -0.016588)
 31:    352.47   0.000187    0.94  0.000166  (-0.008056 -0.000202 -0.010028)
 32:    355.59   0.000033    0.17  0.000029  ( 0.005183  0.000608 -0.001375)
 33:    361.70   0.000102    0.51  0.000088  ( 0.009100 -0.001982 -0.000919)
 34:    361.93   0.000421    2.13  0.000363  ( 0.019044  0.000620  0.000341)
 35:    370.60   0.000086    0.44  0.000072  ( 0.008512 -0.000125 -0.000130)
 36:    402.78   0.000198    1.00  0.000153  (-0.008089 -0.009288  0.001320)
 37:    452.48   0.000861    4.35  0.000594  ( 0.017980 -0.006675  0.015037)
 38:    493.54   0.008831   44.63  0.005584  ( 0.074474 -0.005140  0.003278)
 39:    515.87   0.007612   38.47  0.004605  ( 0.061703 -0.026866 -0.008698)
 40:    529.35   0.006029   30.47  0.003554  (-0.053354  0.014849 -0.022066)
 41:    544.85   0.010198   51.53  0.005841  ( 0.058781  0.048239 -0.007643)
 42:    547.91   0.005405   27.31  0.003078  (-0.054112  0.003687 -0.011683)
 43:    567.54   0.001323    6.69  0.000727  (-0.010354  0.008539  0.023395)
 44:    586.99   0.003434   17.35  0.001825  (-0.042181  0.001413 -0.006655)
 45:    603.98   0.000258    1.30  0.000133  ( 0.004979 -0.010092  0.002599)
 46:    635.10   0.026222  132.52  0.012885  (-0.112648 -0.007805 -0.011584)
 47:    650.30   0.022433  113.37  0.010765  ( 0.103227 -0.001126 -0.010396)
 48:    676.66   0.000046    0.23  0.000021  (-0.003796 -0.002104  0.001487)
 49:    711.78   0.000261    1.32  0.000114  (-0.003407  0.002280  0.009878)
 50:    718.37   0.003208   16.21  0.001394  (-0.036728  0.006294 -0.002263)
 51:    759.90   0.000665    3.36  0.000273  (-0.002094  0.015018  0.006563)
 52:    781.97   0.020171  101.93  0.008050  ( 0.065895  0.027714 -0.054216)
 53:    859.87   0.003550   17.94  0.001288  ( 0.035445 -0.000796 -0.005601)
 54:    987.64   0.009930   50.18  0.003138  (-0.051080  0.011617 -0.019836)
 55:   1071.84   0.047785  241.49  0.013913  ( 0.024945  0.093246  0.067789)
 56:   1078.89   0.016291   82.33  0.004712  (-0.028058 -0.014889  0.060854)
 57:   1100.79   0.031619  159.79  0.008964  ( 0.017944 -0.034262  0.086417)
 58:   1106.21   0.004887   24.70  0.001379  (-0.013130  0.023156 -0.025883)
 59:   1118.61   0.025031  126.50  0.006983  ( 0.025038  0.073807 -0.030147)
 60:   1126.83   0.121740  615.23  0.033715  ( 0.008964  0.175519  0.053175)
 61:   1137.02   0.020290  102.54  0.005569  (-0.000681  0.067393  0.032038)
 62:   1139.68   0.039412  199.17  0.010792  ( 0.014143  0.035185  0.096714)
 63:   1146.42   0.119622  604.52  0.032562  ( 0.009253 -0.034345  0.176909)
 64:   1153.16   0.078128  394.83  0.021143  (-0.037250  0.139923 -0.013297)
 65:   1158.79   0.069770  352.59  0.018789  (-0.027396  0.019674  0.132859)
 66:   1173.89   0.084048  424.74  0.022343  ( 0.019796  0.056778 -0.136848)
 67:   1183.24   0.007209   36.43  0.001901  ( 0.000879  0.006905  0.043043)
 68:   1209.29   0.011908   60.18  0.003073  (-0.038255  0.010159  0.038810)
 69:   1239.47   0.003573   18.06  0.000900  ( 0.014095 -0.020984 -0.016146)
 70:   1259.41   0.004945   24.99  0.001225  (-0.024220  0.021579  0.013152)
 71:   1277.92   0.005894   29.79  0.001439  ( 0.019239 -0.024187  0.022006)
 72:   1328.75   0.051397  259.74  0.012071  (-0.107223 -0.018957  0.014655)
 73:   1360.48   0.021400  108.15  0.004909  (-0.062962 -0.017588  0.025204)
 74:   1724.87   0.156919  793.00  0.028390  (-0.030060  0.153989  0.061429)

* The epsilon (eps) is given for a Dirac delta lineshape.
** The dipole moment derivative (T) already includes vibrational overlap.

The first frequency considered to be a vibration is 6
The total number of vibrations considered is 69


--------------------------
THERMOCHEMISTRY AT 298.15K
--------------------------

Temperature         ...   298.15 K
Pressure            ...     1.00 atm
Total Mass          ...   413.06 AMU
Quasi RRHO          ...     True
Cut-Off Frequency   ...     1.00 cm^-1

Throughout the following assumptions are being made:
  (1) The electronic state is orbitally nondegenerate
  (2) There are no thermally accessible electronically excited states
  (3) Hindered rotations indicated by low frequency modes are not
      treated as such but are treated as vibrations and this may
      cause some error
  (4) All equations used are the standard statistical mechanics
      equations for an ideal gas
  (5) All vibrations are strictly harmonic

freq.      27.87  E(vib)   ...       0.55 
freq.      34.75  E(vib)   ...       0.54 
freq.      40.39  E(vib)   ...       0.54 
freq.      51.66  E(vib)   ...       0.52 
freq.      55.81  E(vib)   ...       0.52 
freq.      68.20  E(vib)   ...       0.50 
freq.      71.24  E(vib)   ...       0.50 
freq.      73.75  E(vib)   ...       0.49 
freq.     114.08  E(vib)   ...       0.44 
freq.     129.55  E(vib)   ...       0.43 
freq.     157.40  E(vib)   ...       0.40 
freq.     182.97  E(vib)   ...       0.37 
freq.     194.32  E(vib)   ...       0.36 
freq.     196.81  E(vib)   ...       0.36 
freq.     202.87  E(vib)   ...       0.35 
freq.     225.42  E(vib)   ...       0.33 
freq.     238.38  E(vib)   ...       0.32 
freq.     244.09  E(vib)   ...       0.31 
freq.     249.69  E(vib)   ...       0.31 
freq.     253.29  E(vib)   ...       0.30 
freq.     278.09  E(vib)   ...       0.28 
freq.     297.73  E(vib)   ...       0.27 
freq.     307.05  E(vib)   ...       0.26 
freq.     327.36  E(vib)   ...       0.24 
freq.     338.57  E(vib)   ...       0.23 
freq.     352.47  E(vib)   ...       0.23 
freq.     355.59  E(vib)   ...       0.22 
freq.     361.70  E(vib)   ...       0.22 
freq.     361.93  E(vib)   ...       0.22 
freq.     370.60  E(vib)   ...       0.21 
freq.     402.78  E(vib)   ...       0.19 
freq.     452.48  E(vib)   ...       0.16 
freq.     493.54  E(vib)   ...       0.14 
freq.     515.87  E(vib)   ...       0.13 
freq.     529.35  E(vib)   ...       0.13 
freq.     544.85  E(vib)   ...       0.12 
freq.     547.91  E(vib)   ...       0.12 
freq.     567.54  E(vib)   ...       0.11 
freq.     586.99  E(vib)   ...       0.10 
freq.     603.98  E(vib)   ...       0.10 
freq.     635.10  E(vib)   ...       0.09 
freq.     650.30  E(vib)   ...       0.08 
freq.     676.66  E(vib)   ...       0.08 
freq.     711.78  E(vib)   ...       0.07 
freq.     718.37  E(vib)   ...       0.07 
freq.     759.90  E(vib)   ...       0.06 
freq.     781.97  E(vib)   ...       0.05 
freq.     859.87  E(vib)   ...       0.04 
freq.     987.64  E(vib)   ...       0.02 
freq.    1071.84  E(vib)   ...       0.02 
freq.    1078.89  E(vib)   ...       0.02 
freq.    1100.79  E(vib)   ...       0.02 
freq.    1106.21  E(vib)   ...       0.02 
freq.    1118.61  E(vib)   ...       0.01 
freq.    1126.83  E(vib)   ...       0.01 
freq.    1137.02  E(vib)   ...       0.01 
freq.    1139.68  E(vib)   ...       0.01 
freq.    1146.42  E(vib)   ...       0.01 
freq.    1153.16  E(vib)   ...       0.01 
freq.    1158.79  E(vib)   ...       0.01 
freq.    1173.89  E(vib)   ...       0.01 
freq.    1183.24  E(vib)   ...       0.01 
freq.    1209.29  E(vib)   ...       0.01 
freq.    1239.47  E(vib)   ...       0.01 
freq.    1259.41  E(vib)   ...       0.01 
freq.    1277.92  E(vib)   ...       0.01 
freq.    1328.75  E(vib)   ...       0.01 
freq.    1360.48  E(vib)   ...       0.01 
freq.    1724.87  E(vib)   ...       0.00 

------------
INNER ENERGY
------------

The inner energy is: U= E(el) + E(ZPE) + E(vib) + E(rot) + E(trans)
    E(el)   - is the total energy from the electronic structure calculation
              = E(kin-el) + E(nuc-el) + E(el-el) + E(nuc-nuc)
    E(ZPE)  - the the zero temperature vibrational energy from the frequency calculation
    E(vib)  - the the finite temperature correction to E(ZPE) due to population
              of excited vibrational states
    E(rot)  - is the rotational thermal energy
    E(trans)- is the translational thermal energy

Summary of contributions to the inner energy U:
Electronic energy                ...  -1953.89167629 Eh
Zero point energy                ...      0.09633471 Eh      60.45 kcal/mol
Thermal vibrational correction   ...      0.02056909 Eh      12.91 kcal/mol
Thermal rotational correction    ...      0.00141627 Eh       0.89 kcal/mol
Thermal translational correction ...      0.00141627 Eh       0.89 kcal/mol
-----------------------------------------------------------------------
Total thermal energy                  -1953.77193995 Eh


Summary of corrections to the electronic energy:
(perhaps to be used in another calculation)
Total thermal correction                  0.02340163 Eh      14.68 kcal/mol
Non-thermal (ZPE) correction              0.09633471 Eh      60.45 kcal/mol
-----------------------------------------------------------------------
Total correction                          0.11973634 Eh      75.14 kcal/mol


--------
ENTHALPY
--------

The enthalpy is H = U + kB*T
                kB is Boltzmann's constant
Total thermal energy              ...  -1953.77193995 Eh 
Thermal Enthalpy correction       ...      0.00094421 Eh       0.59 kcal/mol
-----------------------------------------------------------------------
Total Enthalpy                    ...  -1953.77099574 Eh


Note: Only C1 symmetry has been detected, increase convergence thresholds 
      if your molecule has a higher symmetry. Symmetry factor of 1.0 is   
      used for the rotational entropy correction. 
 

Note: Rotational entropy computed according to Herzberg 
Infrared and Raman Spectra, Chapter V,1, Van Nostrand Reinhold, 1945 
Point Group:  C1, Symmetry Number:   1  
Rotational constants in cm-1:     0.021228     0.003720     0.003667 

Vibrational entropy computed according to the QRRHO of S. Grimme
Chem.Eur.J. 2012 18 9955 using a reference frequency of 100.0 cm-1


-------
ENTROPY
-------

The entropy contributions are T*S = T*(S(el)+S(vib)+S(rot)+S(trans))
     S(el)   - electronic entropy
     S(vib)  - vibrational entropy
     S(rot)  - rotational entropy
     S(trans)- translational entropy
The entropies will be listed as multiplied by the temperature to get
units of energy

Electronic entropy                ...      0.00000000 Eh      0.00 kcal/mol
Vibrational entropy               ...      0.03670928 Eh     23.04 kcal/mol
Rotational entropy                ...      0.01661812 Eh     10.43 kcal/mol
Translational entropy             ...      0.02088010 Eh     13.10 kcal/mol
-----------------------------------------------------------------------
Final entropy term                ...      0.07420749 Eh     46.57 kcal/mol

In case the symmetry of your molecule has not been determined correctly
or in case you have a reason to use a different symmetry number we print 
out the resulting rotational entropy values for sn=1,12:

 non-linear molecules -----------------------------------
|  sn= 1 | S(rot)=       0.01661812 Eh     10.43 kcal/mol|
|  sn= 2 | S(rot)=       0.01596366 Eh     10.02 kcal/mol|
|  sn= 3 | S(rot)=       0.01558083 Eh      9.78 kcal/mol|
|  sn= 4 | S(rot)=       0.01530921 Eh      9.61 kcal/mol|
|  sn= 5 | S(rot)=       0.01509852 Eh      9.47 kcal/mol|
|  sn= 6 | S(rot)=       0.01492637 Eh      9.37 kcal/mol|
|  sn= 7 | S(rot)=       0.01478083 Eh      9.28 kcal/mol|
|  sn= 8 | S(rot)=       0.01465475 Eh      9.20 kcal/mol|
|  sn= 9 | S(rot)=       0.01454354 Eh      9.13 kcal/mol|
|  sn=10 | S(rot)=       0.01444406 Eh      9.06 kcal/mol|
|  sn=11 | S(rot)=       0.01435407 Eh      9.01 kcal/mol|
|  sn=12 | S(rot)=       0.01427192 Eh      8.96 kcal/mol|
 linear molecules ---------------------------------------
|  Dinfh | S(rot)=       0.01062123 Eh      6.66 kcal/mol|
|  Cinfv | S(rot)=       0.01127568 Eh      7.08 kcal/mol|
 --------------------------------------------------------


-------------------
GIBBS FREE ENERGY
-------------------

The Gibbs free energy is G = H - T*S

Total enthalpy                    ...  -1953.77099574 Eh 
Total entropy correction          ...     -0.07420749 Eh    -46.57 kcal/mol
-----------------------------------------------------------------------
Final Gibbs free energy         ...  -1953.84520324 Eh

For completeness - the Gibbs free energy minus the electronic energy
G-E(el)                           ...      0.04647305 Eh     29.16 kcal/mol


Maximum memory used throughout the entire PROP-calculation: 324.9 MB

--------------------------------
SUGGESTED CITATIONS FOR THIS RUN
--------------------------------

Below you find a list of papers that are relevant to this ORCA run
We neither can nor want to force you to cite these papers, but we appreciate if you do
You receive ORCA, which is the product of decades of hard work by many enthusiastic individuals, for free
The only thing we kindly ask in return is that you cite our papers,
We deeply appreciate it, if you show your appreciation for ORCA by not just citing the generic ORCA reference.

Please note that relegating all ORCA citations to the supporting information does *not* help us.
SI sections are not indexed - citations you put there will not count into any citation statistics
But we need these citations in order to attract the funding resources that allow us to do what we are doing

Therefore, if you are a happy ORCA user, please consider citing a few of the papers listed below in the main body of your paper

In addition to the list printed below, the program has created the file rf_mecn_freq_TP_D_B.bibtex that contains the list in bibtex format
You can import this file easily into all common literature databanks and citation aid programs


List of essential papers. We consider these as the minimum necessary citations

  1. Neese,F.
     Software update: the ORCA program system, version 5.0
     WIRES Comput. Molec. Sci., 2022 12(1)e1606
     doi.org/10.1002/wcms.1606

List of papers to cite with high priority. The work reported in these papers was absolutely
necessary for this run to complete.
Our perspective: the developers of density functionals and basis sets usually get cited in chemistry papers
Good! But without the algorithms to do something with them, the functionals or basis sets would not do anything.
Hence, in our opinion, the algorithm design and method developments papers are equally worthy of getting cited

  1. Neese,F.
     An improvement of the resolution of the identity approximation for the formation of the Coulomb matrix
     J. Comp. Chem., 2003 24(14)1740-1747
     doi.org/10.1002/jcc.10318
  2. Neese,F.; Wennmohs,F.; Hansen,A.; Becker,U.
     Efficient, approximate and parallel Hartree-Fock and hybrid DFT calculations. A 'chain-of-spheres' algorithm for the Hartree-Fock exchange
     Chem. Phys., 2009 356(1-3)98-109
     doi.org/10.1016/j.chemphys.2008.10.036
  3. Bykov,D.; Petrenko,T.; Izsak,R.; Kossmann,S.; Becker,U.; Valeev,E.; Neese,F.
     Efficient implementation of the analytic second derivatives of Hartree-Fock and hybrid DFT energies: a detailed analysis of different approximations
     Molec. Phys., 2015 113 1961-1977
     doi.org/10.1080/00268976.2015.1025114
  4. Garcia-Rates,M.; Neese,F.
     Efficient implementation of the analytical second derivatives of hartree-fock and hybrid DFT energies within the framework of the conductor-like polarizable continuum model
     J. Comput. Chem., 2019 40 1816-1828
     doi.org/10.1002/jcc.25833
  5. Garcia-Rates,M.; Neese,F.
     Effect of the Solute Cavity on the Solvation Energy and its Derivatives within the Framework of the Gaussian Charge Scheme
     J. Comput. Chem., 2020 41 922-939
     doi.org/10.1002/jcc.26139
  6. Helmich-Paris,B.; de Souza,B.; Neese,F.; Izsák,R.
     An improved chain of spheres for exchange algorithm
     J. Chem. Phys., 2021 155 104109
     doi.org/doi: 10.1063/5.0058766.
  7. Neese,F.
     The SHARK Integral Generation and Digestion System
     J. Comp. Chem., 2022  1-16
     doi.org/10.1002/jcc.26942
  8. Grimme,S.; Antony,J.; Ehrlich,S.; Krieg,H.
     A consistent and accurate ab initio parametrization of density functional dispersion correction (DFT-D) for the 94 elements H-Pu
     J. Chem. Phys., 2010 132 154104
     doi.org/10.1063/1.3382344
  9. Grimme,S.; Ehrlich,S.; Goerigk,L.
     Effect of the damping function in dispersion corrected density functional theory
     J. Comput. Chem., 2011 32(7)1456-1465
     doi.org/10.1002/jcc.21759

List of suggested additional citations. These are papers that are important in the 'surrounding' of 
of this run, or papers that preceded the highly important papers. If you like your results we are grateful for a citation.

  1. Izsak,R.; Neese,F.
     An overlap fitted chain of spheres exchange method
     J. Chem. Phys., 2011 135 144105
     doi.org/10.1063/1.3646921
  2. Izsak,R.; Hansen,A.; Neese,F.
     The resolution of identity and chain of spheres approximations for the LPNO-CCSD singles Fock term
     Molec. Phys., 2012 110 2413-2417
     doi.org/10.1080/00268976.2012.687466
  3. Neese,F.
     The ORCA program system
     WIRES Comput. Molec. Sci., 2012 2(1)73-78
     doi.org/10.1002/wcms.81
  4. Izsak,R.; Neese,F.; Klopper,W.
     Robust fitting techniques in the chain of spheres approximation to the Fock exchange: The role of the complementary space
     J. Chem. Phys., 2013 139 
     doi.org/10.1063/1.4819264
  5. Neese,F.
     Software update: the ORCA program system, version 4.0
     WIRES Comput. Molec. Sci., 2018 8(1)1-6
     doi.org/10.1002/wcms.1327
  6. Neese,F.; Wennmohs,F.; Becker,U.; Riplinger,C.
     The ORCA quantum chemistry program package
     J. Chem. Phys., 2020 152 Art. No. L224108
     doi.org/10.1063/5.0004608

List of optional additional citations

  1. Neese,F.
     Approximate second-order SCF convergence for spin unrestricted wavefunctions
     Chem. Phys. Lett., 2000 325(1-3)93-98
     doi.org/10.1016/s0009-2614(00)00662-x

Timings for individual modules:

Sum of individual times          ...      960.056 sec (=  16.001 min)
Startup calculation              ...        4.587 sec (=   0.076 min)   0.5 %
SCF iterations                   ...       87.316 sec (=   1.455 min)   9.1 %
Property integrals               ...      264.204 sec (=   4.403 min)  27.5 %
SCF Response                     ...      361.745 sec (=   6.029 min)  37.7 %
Property calculations            ...      242.203 sec (=   4.037 min)  25.2 %
                             ****ORCA TERMINATED NORMALLY****
TOTAL RUN TIME: 0 days 0 hours 16 minutes 0 seconds 855 msec
