
                                 *****************
                                 * O   R   C   A *
                                 *****************

                                            #,                                       
                                            ###                                      
                                            ####                                     
                                            #####                                    
                                            ######                                   
                                           ########,                                 
                                     ,,################,,,,,                         
                               ,,#################################,,                 
                          ,,##########################################,,             
                       ,#########################################, ''#####,          
                    ,#############################################,,   '####,        
                  ,##################################################,,,,####,       
                ,###########''''           ''''###############################       
              ,#####''   ,,,,##########,,,,          '''####'''          '####       
            ,##' ,,,,###########################,,,                        '##       
           ' ,,###''''                  '''############,,,                           
         ,,##''                                '''############,,,,        ,,,,,,###''
      ,#''                                            '''#######################'''  
     '                                                          ''''####''''         
             ,#######,   #######,   ,#######,      ##                                
            ,#'     '#,  ##    ##  ,#'     '#,    #''#        ,####,   ,####,        
            ##       ##  ##   ,#'  ##            #'  '#       #'       #'  '#        
            ##       ##  #######   ##           ,######,      #####,   #    #        
            '#,     ,#'  ##    ##  '#,     ,#' ,#      #,     #,   #   #,  ,#        
             '#######'   ##     ##  '#######'  #'      '#     '####' # '####'        



                #########################################################
                #                        -***-                          #
                #          Department of theory and spectroscopy        #
                #                                                       #
                #                      Frank Neese                      #
                #                                                       #
                #     Directorship, Architecture, Infrastructure        #
                #                    SHARK, DRIVERS                     #
                #        Core code/Algorithms in most modules           #
                #                                                       #
                #        Max Planck Institute fuer Kohlenforschung      #
                #                Kaiser Wilhelm Platz 1                 #
                #                 D-45470 Muelheim/Ruhr                 #
                #                      Germany                          #
                #                                                       #
                #                  All rights reserved                  #
                #                        -***-                          #
                #########################################################


                         Program Version 6.0.1  -  RELEASE   -


 With contributions from (in alphabetic order):
[Max-Planck-Institut fuer Kohlenforschung]                               
  Daniel Aravena         : Magnetic Suceptibility                        
  Michael Atanasov       : Ab Initio Ligand Field Theory (pilot matlab implementation)
  Alexander A. Auer      : GIAO ZORA, VPT2 properties, NMR spectrum      
  Ute Becker             : All parallelization in ORCA, NUMFREQ, NUMCALC 
  Giovanni Bistoni       : ED, misc. LED, open-shell LED, HFLD           
  Martin Brehm           : Molecular dynamics                            
  Dmytro Bykov           : pre 5.0 version of the SCF Hessian            
  Marcos Casanova-Páez   : Triplet and SCS-CIS(D). UHF-(DLPNO)-IP/EA/STEOM-CCSD. UHF-CVS-IP/STEOM-CCSD   
  Vijay G. Chilkuri      : MRCI spin determinant printing, contributions to CSF-ICE 
  Pauline Colinet        : FMM embedding                                 
  Dipayan Datta          : RHF DLPNO-CCSD density                        
  Achintya Kumar Dutta   : EOM-CC, STEOM-CC                              
  Nicolas Foglia         : Exact transition moments, OPA infrastructure, MCD improvements    
  Dmitry Ganyushin       : Spin-Orbit,Spin-Spin,Magnetic field MRCI      
  Miquel Garcia-Rates    : C-PCM and meta-GGA Hessian, CCSD/C-PCM, Gaussian charge scheme 
  Tiago L. C. Gouveia    : GS-ROHF, GS-ROCIS                             
  Yang Guo               : DLPNO-NEVPT2, F12-NEVPT2, CIM, IAO-localization        
  Andreas Hansen         : Spin unrestricted coupled pair/coupled cluster methods 
  Ingolf Harden          : AUTO-CI MPn and infrastructure                
  Benjamin Helmich-Paris : MC-RPA, TRAH-(SCF,CASSCF), AVAS, COSX integrals, SCF dyn. polar. 
  Lee Huntington         : MR-EOM, pCC                                   
  Robert Izsak           : Overlap fitted RIJCOSX, COSX-SCS-MP3, EOM     
  Riya Kayal             : Wick's Theorem for AUTO-CI, AUTO-CI UHF-CCSDT 
  Emily Kempfer          : AUTO-CI, RHF CISDT and CCSDT                  
  Christian Kollmar      : KDIIS, OOCD, Brueckner-CCSD(T), CCSD density, CASPT2, CASPT2-K, improved NEVPT2 
  Axel Koslowski         : Symmetry handling                             
  Simone Kossmann        : meta-GGA functionals, TD-DFT gradient, OOMP2, (MP2 Hessian; deprecated post 5.0) 
  Lucas Lang             : DCDCAS                                        
  Marvin Lechner         : AUTO-CI (C++ implementation), FIC-MRCC        
  Spencer Leger          : CASSCF response                               
  Dagmar Lenk            : GEPOL surface, SMD, ORCA-2-JSON               
  Dimitrios Liakos       : Extrapolation schemes; Compound Job, initial MDCI parallelization 
  Dimitrios Manganas     : Further ROCIS development; embedding schemes. LFT, Crystal Embedding 
  Dimitrios Pantazis     : SARC Basis sets                               
  Anastasios Papadopoulos: AUTO-CI, single reference methods and gradients 
  Taras Petrenko         : pre 6.0 DFT Hessian and TD-DFT gradient, (ASA, deprecated), ECA, 1-Electron XAS/XES, NRVS 
  Peter Pinski           : DLPNO-MP2, DLPNO-MP2 Gradient                 
  Christoph Reimann      : Effective Core Potentials                     
  Marius Retegan         : Local ZFS, SOC                                
  Christoph Riplinger    : Optimizer, TS searches, QM/MM, DLPNO-CCSD(T), (RO)-DLPNO pert. Triples 
  Michael Roemelt        : Original ROCIS implementation                 
  Masaaki Saitow         : Open-shell DLPNO-CCSD energy and density      
  Barbara Sandhoefer     : DKH picture change effects                    
  Kantharuban Sivalingam : CASSCF convergence/infrastructure, NEVPT2 and variants, FIC-MRCI 
  Bernardo de Souza      : ESD, SOC TD-DFT                               
  Georgi L. Stoychev     : AutoAux, RI-MP2 NMR, DLPNO-MP2 response, X2C  
  Van Anh Tran           : RI-MP2 g-tensors                              
  Willem Van den Heuvel  : Paramagnetic NMR                              
  Zikuan Wang            : NOTCH, Electric field optimization            
  Frank Wennmohs         : Technical directorship and infrastructure     
  Hang Xu                : AUTO-CI-Response properties                   
                                                                         
[FACCTs GmbH]                                                            
  Markus Bursch, Miquel Garcia-Rates, Christoph Riplinger, Bernardo de Souza, Georgi L. Stoychev 
                                                                 
  APM, Basis sets (HGBS, AHGBS, def-TZVP (Ac-Lr), def2-XVPD (La-Lu)), CI-OPT, improved COSX, DLPNO-Multilevel,           
  DOCKER, DRACO, updates on ESD, GOAT, IRC, LR-CPCM, MBIS, meta-GGA TD-DFT gradient, ML-optimized integration grids, 
  MM, NACMEs, nearIR, NEB, NEB-TS, NL-DFT gradient (VV10), 2- and 3-layer-ONIOM, interface openCOSMO-RS, QMMM,   
  Crystal-QMMM, SF, symmetry and pop. for TD-DFT, r2SCAN hybrids, SOLVATOR                                   
                                                                         
[Other institutions]                                                     
  V. Asgeirsson          : NEB                                           
  Christoph Bannwarth    : sTDA-DFT, sTD-DFT, PBEh-3c, B97-3c, D3        
  Sebastian Ehlert       : rSCAN, r2SCAN, r2SCAN-3c, D4, dhf basis sets  
  Marvin Friede          : D4 for Fr, Ra, Ac-Lr                          
  Lars Goerigk           : TD-DFT with DH, B97 family of functionals     
  Stefan Grimme          : VdW corrections, initial TS optimization, DFT functionals, gCP, sTDA/sTD-DF 
  Waldemar Hujo          : DFT-NL                                        
  H. Jonsson             : NEB                                           
  Holger Kruse           : gCP                                           
  Marcel Mueller         : wB97X-3c, vDZP basis set                      
  Hagen Neugebauer       : wr2SCAN                                       
  Tobias Risthaus        : range-separated hybrid DFT                    
  Lukas Wittmann         : regularized MP2, r2SCAN double-hybrids, wr2SCAN        
                                                                         
We gratefully acknowledge several colleagues who have allowed us to      
interface, adapt or use parts of their codes:                            
  Ed Valeev, F. Pavosevic, A. Kumar             : LibInt (2-el integral package), F12 methods 
  Garnet Chan, S. Sharma, J. Yang, R. Olivares  : DMRG                   
  Ulf Ekstrom                                   : XCFun DFT Library      
  Mihaly Kallay                                 : mrcc  (arbitrary order and MRCC methods)
  Frank Weinhold                                : gennbo (NPA and NBO analysis)           
  Simon Mueller                                 : openCOSMO-RS                            
  Christopher J. Cramer and Donald G. Truhlar   : smd solvation model                     
  S Lehtola, MJT Oliveira, MAL Marques          : LibXC Library                           
  Liviu Ungur et al                             : ANISO software                          


 Your calculation uses the libint2 library for the computation of 2-el integrals
 For citations please refer to: http://libint.valeyev.net

 Your ORCA version has been built with support for libXC version: 6.2.2
 For citations please refer to: https://libxc.gitlab.io

 This ORCA versions uses:
   CBLAS   interface :  Fast vector & matrix operations
   LAPACKE interface :  Fast linear algebra routines
   SCALAPACK package :  Parallel linear algebra routines
   Shared memory     :  Shared parallel matrices
   BLAS/LAPACK       :  OpenBLAS 0.3.27  USE64BITINT DYNAMIC_ARCH NO_AFFINITY SkylakeX SINGLE_THREADED
        Core in use  :  SkylakeX
   Copyright (c) 2011-2014, The OpenBLAS Project


NOTE: MaxCore=8000 MB was set to SCF,MP2,MDCI,CIPSI,MRCI and CIS
      => If you want to overwrite this, your respective input block should be placed after the MaxCore statement
Your calculation utilizes the atom-pairwise dispersion correction
with the Becke-Johnson damping scheme (D3BJ)


Your calculation utilizes the SMD solvation module
Please cite in your paper:
A.V. Marenich, C.J. Cramer, D.G. Truhlar J. Phys. Chem. B, 113, (2009), 6378 

Warning: RI is on but no J-basis has been assigned. Assigning Def2/J (nothing to worry about!)
================================================================================

----- Orbital basis set information -----
Your calculation utilizes the basis: def2-TZVP
   F. Weigend and R. Ahlrichs, Phys. Chem. Chem. Phys. 7, 3297 (2005).

----- AuxJ basis set information -----
Your calculation utilizes the auxiliary basis: def2/J
   F. Weigend, Phys. Chem. Chem. Phys. 8, 1057 (2006).

================================================================================
                                        WARNINGS
                       Please study these warnings very carefully!
================================================================================



WARNING: SCAN, rSCAN, or r2SCAN functional requested.
  ===> : libXC variant has now been activated.



WARNING: your system is open-shell and RHF/RKS was chosen
  ===> : WILL SWITCH to UHF/UKS


WARNING: Geometry Optimization
  ===> : Switching off AutoStart
         For restart on a previous wavefunction, please use MOREAD

================================================================================
                                       INPUT FILE
================================================================================
NAME = rf_mecn_opt_r2s_C5_P_B.inp
|  1> !r2scanh def2-TZVP opt d3 TightSCF SlowConv defgrid2
|  2>  
|  3> %pal
|  4> nprocs 20
|  5> end
|  6>  
|  7> %scf
|  8> MaxIter 1500
|  9> end
| 10>  
| 11> %maxcore 8000
| 12>  
| 13> !CPCM
| 14> %cpcm smd true
| 15> SMDsolvent "ACETONITRILE"
| 16> end
| 17>  
| 18> * xyz 0 2
| 19> 6        4.790427000     -0.033865800     -0.529943200
| 20> 8        5.449345000     -1.206924000     -0.894594600
| 21> 8        4.978223000      1.323071000     -0.737377200
| 22> 6        3.506687600     -0.338741600      0.376153800
| 23> 6        2.222300000      0.400524800     -0.110681600
| 24> 6        0.900506800     -0.386389800      0.175703000
| 25> 6       -0.395261200      0.487294000      0.065549000
| 26> 6       -1.705693600     -0.364773800     -0.068373600
| 27> 6       -3.005136200      0.445344800      0.258164000
| 28> 6       -4.319880200     -0.214526000     -0.270540800
| 29> 9        3.211587400     -1.692050400      0.412735200
| 30> 9        3.741061800      0.055285800      1.689948800
| 31> 9        2.125696800      1.616867800      0.483236600
| 32> 9        2.314152400      0.589704000     -1.455769200
| 33> 9        0.794028800     -1.413561400     -0.700839000
| 34> 9        0.958350600     -0.884509000      1.435093400
| 35> 9       -0.299075000      1.289512600     -1.020910800
| 36> 9       -1.641790400     -1.418189000      0.779523800
| 37> 9       -1.792381400     -0.831391600     -1.336863600
| 38> 9       -2.918792200      1.679227200     -0.295171200
| 39> 9       -3.119771000      0.573779800      1.598579800
| 40> 9       -4.383115600     -1.504377600      0.089127600
| 41> 9       -5.365669800      0.430528600      0.260394200
| 42> 9       -4.396020400     -0.128550600     -1.602941800
| 43> 1        5.903122371     -2.014774547     -1.145719253
| 44> *
| 45> 
| 46>                          ****END OF INPUT****
================================================================================

                       *****************************
                       * Geometry Optimization Run *
                       *****************************

Geometry optimization settings:
Update method            Update   .... BFGS
Choice of coordinates    CoordSys .... (2022) Redundant Internals
Initial Hessian          InHess   .... Almloef's Model
Max. no of cycles        MaxIter  .... 75

Convergence Tolerances:
Energy Change            TolE     ....  5.0000e-06 Eh
Max. Gradient            TolMAXG  ....  3.0000e-04 Eh/bohr
RMS Gradient             TolRMSG  ....  1.0000e-04 Eh/bohr
Max. Displacement        TolMAXD  ....  4.0000e-03 bohr
RMS Displacement         TolRMSD  ....  2.0000e-03 bohr
Strict Convergence                .... False

------------------------------------------------------------------------------
                        ORCA OPTIMIZATION COORDINATE SETUP
------------------------------------------------------------------------------

The optimization will be done in redundant internal coordinates (2022)
Making redundant internal coordinates   ...  (2022 redundants) done
Evaluating the initial hessian          ...  (Almloef) done
Evaluating the coordinates              ...  done
Calculating the B-matrix                .... done
Calculating the G-matrix                .... done
Diagonalizing the G-matrix              .... done
Small eigenvalue found = 4.627e-03
Small eigenvalue found = 1.286e-02
Small eigenvalue found = 2.876e-02
The first mode is                       ....   39
The number of degrees of freedom        ....   69

    -----------------------------------------------------------------
                    Redundant Internal Coordinates


    -----------------------------------------------------------------
         Definition                    Initial Value    Approx d2E/dq
    -----------------------------------------------------------------
      1. B(O   1,C   0)                  1.3940         0.551454   
      2. B(O   2,C   0)                  1.3855         0.568952   
      3. B(C   3,C   0)                  1.6006         0.288221   
      4. B(C   4,C   3)                  1.5599         0.334759   
      5. B(C   5,C   4)                  1.5647         0.328824   
      6. B(C   6,C   5)                  1.5667         0.326486   
      7. B(C   7,C   6)                  1.5688         0.323927   
      8. B(C   8,C   7)                  1.5657         0.327637   
      9. B(C   9,C   8)                  1.5632         0.330714   
     10. B(F  10,C   3)                  1.3856         0.528443   
     11. B(F  11,C   3)                  1.3915         0.517117   
     12. B(F  12,C   4)                  1.3570         0.586881   
     13. B(F  13,C   4)                  1.3614         0.577499   
     14. B(F  14,C   5)                  1.3545         0.592326   
     15. B(F  15,C   5)                  1.3556         0.590092   
     16. B(F  16,C   6)                  1.3540         0.593567   
     17. B(F  17,C   7)                  1.3538         0.593973   
     18. B(F  18,C   7)                  1.3544         0.592672   
     19. B(F  19,C   8)                  1.3550         0.591238   
     20. B(F  20,C   8)                  1.3514         0.599114   
     21. B(F  21,C   9)                  1.3406         0.623533   
     22. B(F  22,C   9)                  1.3385         0.628179   
     23. B(F  23,C   9)                  1.3373         0.630929   
     24. B(H  24,O   1)                  0.9600         0.519956   
     25. A(O   1,C   0,O   2)          136.1318         0.413163   
     26. A(O   1,C   0,C   3)          111.5249         0.369222   
     27. A(O   2,C   0,C   3)          112.3347         0.371210   
     28. L(C   0,O   1,H  24,C   3, 2) 180.0000         0.362759   
     29. L(C   0,O   1,H  24,C   3, 1) 180.0000         0.362759   
     30. A(F  10,C   3,F  11)          106.7094         0.399684   
     31. A(C   4,C   3,F  11)          107.4072         0.373095   
     32. A(C   0,C   3,F  11)          110.2099         0.363632   
     33. A(C   4,C   3,F  10)          107.2033         0.374492   
     34. A(C   0,C   3,F  10)          111.8265         0.364982   
     35. A(C   0,C   3,C   4)          113.1687         0.341363   
     36. A(C   3,C   4,F  12)          110.2926         0.381351   
     37. A(F  12,C   4,F  13)          108.2194         0.415201   
     38. A(C   3,C   4,C   5)          113.5839         0.349005   
     39. A(C   5,C   4,F  13)          107.9208         0.379109   
     40. A(C   3,C   4,F  13)          108.5818         0.380286   
     41. A(C   5,C   4,F  12)          108.0911         0.380169   
     42. A(C   4,C   5,C   6)          113.9128         0.347536   
     43. A(F  14,C   5,F  15)          109.0206         0.417483   
     44. A(C   6,C   5,F  15)          107.7906         0.380059   
     45. A(C   4,C   5,F  15)          108.5900         0.380529   
     46. A(C   6,C   5,F  14)          108.2026         0.380308   
     47. A(C   4,C   5,F  14)          109.2282         0.380779   
     48. A(C   5,C   6,C   7)          113.2023         0.346660   
     49. A(C   7,C   6,F  16)          108.2186         0.379927   
     50. A(C   5,C   6,F  16)          109.1523         0.380446   
     51. A(C   8,C   7,F  18)          108.6915         0.380579   
     52. A(C   6,C   7,F  18)          108.6955         0.379828   
     53. A(C   8,C   7,F  17)          108.1296         0.380723   
     54. A(F  17,C   7,F  18)          108.7561         0.418014   
     55. A(C   6,C   7,F  17)          109.2524         0.379972   
     56. A(C   6,C   7,C   8)          113.2298         0.346865   
     57. A(F  19,C   8,F  20)          108.8987         0.418476   
     58. A(C   7,C   8,C   9)          114.1471         0.348078   
     59. A(C   9,C   8,F  20)          107.7127         0.381912   
     60. A(C   7,C   8,F  20)          109.0521         0.381293   
     61. A(C   9,C   8,F  19)          107.4499         0.381036   
     62. A(C   7,C   8,F  19)          109.4572         0.380419   
     63. A(F  22,C   9,F  23)          108.6464         0.426961   
     64. A(F  21,C   9,F  23)          109.0552         0.426394   
     65. A(C   8,C   9,F  23)          110.9604         0.385362   
     66. A(F  21,C   9,F  22)          108.6877         0.426061   
     67. A(C   8,C   9,F  22)          108.6349         0.385069   
     68. A(C   8,C   9,F  21)          110.7995         0.384572   
     69. D(F  10,C   3,C   0,O   1)     -9.8890         0.006601   
     70. D(F  11,C   3,C   0,O   1)    108.6317         0.006601   
     71. D(F  10,C   3,C   0,O   2)    171.0025         0.006601   
     72. D(F  11,C   3,C   0,O   2)    -70.4768         0.006601   
     73. D(C   4,C   3,C   0,O   1)   -131.0839         0.006601   
     74. D(C   4,C   3,C   0,O   2)     49.8076         0.006601   
     75. D(C   5,C   4,C   3,C   0)    148.6429         0.009100   
     76. D(F  12,C   4,C   3,F  11)     32.0233         0.009100   
     77. D(F  12,C   4,C   3,F  10)    146.3851         0.009100   
     78. D(F  12,C   4,C   3,C   0)    -89.8453         0.009100   
     79. D(C   5,C   4,C   3,F  11)    -89.4885         0.009100   
     80. D(C   5,C   4,C   3,F  10)     24.8733         0.009100   
     81. D(C   6,C   5,C   4,F  13)    -75.6292         0.008811   
     82. D(C   6,C   5,C   4,F  12)     41.2001         0.008811   
     83. D(C   6,C   5,C   4,C   3)    163.9326         0.008811   
     84. D(F  14,C   5,C   4,F  13)     45.4721         0.008811   
     85. D(F  14,C   5,C   4,F  12)    162.3014         0.008811   
     86. D(F  14,C   5,C   4,C   3)    -74.9661         0.008811   
     87. D(F  16,C   6,C   5,C   4)     42.3872         0.008172   
     88. D(C   7,C   6,C   5,F  15)    -76.4529         0.008172   
     89. D(C   7,C   6,C   5,F  14)     41.3107         0.008172   
     90. D(F  16,C   6,C   5,F  14)    -79.2837         0.008172   
     91. D(C   7,C   6,C   5,C   4)    162.9815         0.008172   
     92. D(F  18,C   7,C   6,C   5)    -76.7446         0.008059   
     93. D(F  17,C   7,C   6,F  16)    162.9167         0.008059   
     94. D(F  17,C   7,C   6,C   5)     41.7939         0.008059   
     95. D(C   8,C   7,C   6,F  16)    -76.5134         0.008059   
     96. D(C   8,C   7,C   6,C   5)    162.3638         0.008059   
     97. D(C   9,C   8,C   7,F  18)     41.5227         0.008755   
     98. D(C   9,C   8,C   7,F  17)    -76.3785         0.008755   
     99. D(C   9,C   8,C   7,C   6)    162.4166         0.008755   
    100. D(F  19,C   8,C   7,F  18)    -78.9355         0.008755   
    101. D(F  19,C   8,C   7,F  17)    163.1633         0.008755   
    102. D(F  19,C   8,C   7,C   6)     41.9584         0.008755   
    103. D(F  22,C   9,C   8,F  20)     48.1091         0.008903   
    104. D(F  22,C   9,C   8,F  19)    -69.0724         0.008903   
    105. D(F  22,C   9,C   8,C   7)    169.3552         0.008903   
    106. D(F  21,C   9,C   8,F  20)    -71.2185         0.008903   
    107. D(F  21,C   9,C   8,F  19)    171.5999         0.008903   
    108. D(F  21,C   9,C   8,C   7)     50.0276         0.008903   
    -----------------------------------------------------------------

Number of atoms                         .... 25
Number of degrees of freedom            .... 108


         *************************************************************
         *                GEOMETRY OPTIMIZATION CYCLE   1            *
         *************************************************************
---------------------------------
CARTESIAN COORDINATES (ANGSTROEM)
---------------------------------
  C      4.790427   -0.033866   -0.529943
  O      5.449345   -1.206924   -0.894595
  O      4.978223    1.323071   -0.737377
  C      3.506688   -0.338742    0.376154
  C      2.222300    0.400525   -0.110682
  C      0.900507   -0.386390    0.175703
  C     -0.395261    0.487294    0.065549
  C     -1.705694   -0.364774   -0.068374
  C     -3.005136    0.445345    0.258164
  C     -4.319880   -0.214526   -0.270541
  F      3.211587   -1.692050    0.412735
  F      3.741062    0.055286    1.689949
  F      2.125697    1.616868    0.483237
  F      2.314152    0.589704   -1.455769
  F      0.794029   -1.413561   -0.700839
  F      0.958351   -0.884509    1.435093
  F     -0.299075    1.289513   -1.020911
  F     -1.641790   -1.418189    0.779524
  F     -1.792381   -0.831392   -1.336864
  F     -2.918792    1.679227   -0.295171
  F     -3.119771    0.573780    1.598580
  F     -4.383116   -1.504378    0.089128
  F     -5.365670    0.430529    0.260394
  F     -4.396020   -0.128551   -1.602942
  H      5.903122   -2.014775   -1.145719

----------------------------
CARTESIAN COORDINATES (A.U.)
----------------------------
  NO LB      ZA    FRAG     MASS         X           Y           Z
   0 C     6.0000    0    12.011    9.052595   -0.063997   -1.001448
   1 O     8.0000    0    15.999   10.297770   -2.280756   -1.690539
   2 O     8.0000    0    15.999    9.407478    2.500242   -1.393441
   3 C     6.0000    0    12.011    6.626679   -0.640129    0.710828
   4 C     6.0000    0    12.011    4.199538    0.756882   -0.209158
   5 C     6.0000    0    12.011    1.701711   -0.730171    0.332031
   6 C     6.0000    0    12.011   -0.746935    0.920852    0.123870
   7 C     6.0000    0    12.011   -3.223294   -0.689323   -0.129207
   8 C     6.0000    0    12.011   -5.678884    0.841580    0.487859
   9 C     6.0000    0    12.011   -8.163391   -0.405395   -0.511248
  10 F     9.0000    0    18.998    6.069021   -3.197512    0.779956
  11 F     9.0000    0    18.998    7.069582    0.104475    3.193540
  12 F     9.0000    0    18.998    4.016985    3.055437    0.913185
  13 F     9.0000    0    18.998    4.373114    1.114379   -2.751005
  14 F     9.0000    0    18.998    1.500497   -2.671244   -1.324394
  15 F     9.0000    0    18.998    1.811020   -1.671480    2.711934
  16 F     9.0000    0    18.998   -0.565170    2.436826   -1.929242
  17 F     9.0000    0    18.998   -3.102534   -2.679989    1.473086
  18 F     9.0000    0    18.998   -3.387110   -1.571102   -2.526306
  19 F     9.0000    0    18.998   -5.515718    3.173280   -0.557793
  20 F     9.0000    0    18.998   -5.895513    1.084287    3.020878
  21 F     9.0000    0    18.998   -8.282888   -2.842862    0.168427
  22 F     9.0000    0    18.998  -10.139646    0.813581    0.492074
  23 F     9.0000    0    18.998   -8.307275   -0.242925   -3.029121
  24 H     1.0000    0     1.008   11.155285   -3.807372   -2.165096

--------------------------------
INTERNAL COORDINATES (ANGSTROEM)
--------------------------------
 C      0   0   0     0.000000000000     0.00000000     0.00000000
 O      1   0   0     1.393990356793     0.00000000     0.00000000
 O      1   2   0     1.385486802956   136.13177198     0.00000000
 C      1   2   3     1.600608594862   111.52489317   181.18992567
 C      4   1   2     1.559863783763   113.16872737   228.91614990
 C      5   4   1     1.564732561934   113.58394786   148.64287440
 C      6   5   4     1.566675459667   113.91280616   163.93256239
 C      7   6   5     1.568817348692   113.20226571   162.98152714
 C      8   7   6     1.565717094808   113.22984595   162.36375422
 C      9   8   7     1.563173062643   114.14707705   162.41661495
 F      4   1   2     1.385592665621   111.82651119   350.11101305
 F      4   1   2     1.391490625050   110.20991618   108.63170802
 F      5   4   1     1.357041377479   110.29260564   270.15468021
 F      5   4   1     1.361428031433   108.58179722    28.57841973
 F      6   5   4     1.354527570075   109.22822656   285.03385927
 F      6   5   4     1.355556277776   108.59004089    43.81583148
 F      7   6   5     1.353957667090   109.15230848    42.38718856
 F      8   7   6     1.353771473879   109.25240264    41.79387651
 F      8   7   6     1.354368423305   108.69554158   283.25540020
 F      9   8   7     1.355028009646   109.45719767    41.95842364
 F      9   8   7     1.351425618925   109.05210362   282.91820052
 F     10   9   8     1.340551089588   110.79953142    50.02756898
 F     10   9   8     1.338530275591   108.63493714   169.35523750
 F     10   9   8     1.337341214598   110.96044107   288.72891896
 H      2   1   3     0.960000000033   180.00000000     0.00000000

---------------------------
INTERNAL COORDINATES (A.U.)
---------------------------
 C      0   0   0     0.000000000000     0.00000000     0.00000000
 O      1   0   0     2.634260007667     0.00000000     0.00000000
 O      1   2   0     2.618190619750   136.13177198     0.00000000
 C      1   2   3     3.024711891890   111.52489317   181.18992567
 C      4   1   2     2.947715357535   113.16872737   228.91614990
 C      5   4   1     2.956916014884   113.58394786   148.64287440
 C      6   5   4     2.960587559506   113.91280616   163.93256239
 C      7   6   5     2.964635143173   113.20226571   162.98152714
 C      8   7   6     2.958776512386   113.22984595   162.36375422
 C      9   8   7     2.953968988318   114.14707705   162.41661495
 F      4   1   2     2.618390671194   111.82651119   350.11101305
 F      4   1   2     2.629536199263   110.20991618   108.63170802
 F      5   4   1     2.564436555835   110.29260564   270.15468021
 F      5   4   1     2.572726130452   108.58179722    28.57841973
 F      6   5   4     2.559686148288   109.22822656   285.03385927
 F      6   5   4     2.561630124115   108.59004089    43.81583148
 F      7   6   5     2.558609187723   109.15230848    42.38718856
 F      8   7   6     2.558257333546   109.25240264    41.79387651
 F      8   7   6     2.559385404477   108.69554158   283.25540020
 F      9   8   7     2.560631842023   109.45719767    41.95842364
 F      9   8   7     2.553824310132   109.05210362   282.91820052
 F     10   9   8     2.533274427850   110.79953142    50.02756898
 F     10   9   8     2.529455642830   108.63493714   169.35523750
 F     10   9   8     2.527208643196   110.96044107   288.72891896
 H      2   1   3     1.814137088628   180.00000000     0.00000000

---------------------
BASIS SET INFORMATION
---------------------
There are 4 groups of distinct atoms

 Group   1 Type C   : 11s6p2d1f contracted to 5s3p2d1f pattern {62111/411/11/1}
 Group   2 Type O   : 11s6p2d1f contracted to 5s3p2d1f pattern {62111/411/11/1}
 Group   3 Type F   : 11s6p2d1f contracted to 5s3p2d1f pattern {62111/411/11/1}
 Group   4 Type H   : 5s1p contracted to 3s1p pattern {311/1}

Atom   0C    basis set group =>   1
Atom   1O    basis set group =>   2
Atom   2O    basis set group =>   2
Atom   3C    basis set group =>   1
Atom   4C    basis set group =>   1
Atom   5C    basis set group =>   1
Atom   6C    basis set group =>   1
Atom   7C    basis set group =>   1
Atom   8C    basis set group =>   1
Atom   9C    basis set group =>   1
Atom  10F    basis set group =>   3
Atom  11F    basis set group =>   3
Atom  12F    basis set group =>   3
Atom  13F    basis set group =>   3
Atom  14F    basis set group =>   3
Atom  15F    basis set group =>   3
Atom  16F    basis set group =>   3
Atom  17F    basis set group =>   3
Atom  18F    basis set group =>   3
Atom  19F    basis set group =>   3
Atom  20F    basis set group =>   3
Atom  21F    basis set group =>   3
Atom  22F    basis set group =>   3
Atom  23F    basis set group =>   3
Atom  24H    basis set group =>   4
---------------------------------
AUXILIARY/J BASIS SET INFORMATION
---------------------------------
There are 4 groups of distinct atoms

 Group   1 Type C   : 12s5p4d2f1g contracted to 6s4p3d1f1g pattern {711111/2111/211/2/1}
 Group   2 Type O   : 12s5p4d2f1g contracted to 6s4p3d1f1g pattern {711111/2111/211/2/1}
 Group   3 Type F   : 12s5p4d2f1g contracted to 6s4p3d1f1g pattern {711111/2111/211/2/1}
 Group   4 Type H   : 5s2p1d contracted to 3s1p1d pattern {311/2/1}

Atom   0C    basis set group =>   1
Atom   1O    basis set group =>   2
Atom   2O    basis set group =>   2
Atom   3C    basis set group =>   1
Atom   4C    basis set group =>   1
Atom   5C    basis set group =>   1
Atom   6C    basis set group =>   1
Atom   7C    basis set group =>   1
Atom   8C    basis set group =>   1
Atom   9C    basis set group =>   1
Atom  10F    basis set group =>   3
Atom  11F    basis set group =>   3
Atom  12F    basis set group =>   3
Atom  13F    basis set group =>   3
Atom  14F    basis set group =>   3
Atom  15F    basis set group =>   3
Atom  16F    basis set group =>   3
Atom  17F    basis set group =>   3
Atom  18F    basis set group =>   3
Atom  19F    basis set group =>   3
Atom  20F    basis set group =>   3
Atom  21F    basis set group =>   3
Atom  22F    basis set group =>   3
Atom  23F    basis set group =>   3
Atom  24H    basis set group =>   4


           ************************************************************
           *        Program running with 20 parallel MPI-processes    *
           *              working on a common directory               *
           ************************************************************
------------------------------------------------------------------------------
                             ORCA STARTUP CALCULATIONS
                           -- RI-GTO INTEGRALS CHOSEN --
------------------------------------------------------------------------------
------------------------------------------------------------------------------
                   ___                                                        
                  /   \      - P O W E R E D   B Y -                         
                 /     \                                                     
                 |  |  |   _    _      __       _____    __    __             
                 |  |  |  | |  | |    /  \     |  _  \  |  |  /  |          
                  \  \/   | |  | |   /    \    | | | |  |  | /  /          
                 / \  \   | |__| |  /  /\  \   | |_| |  |  |/  /          
                |  |  |   |  __  | /  /__\  \  |    /   |      \           
                |  |  |   | |  | | |   __   |  |    \   |  |\   \          
                \     /   | |  | | |  |  |  |  | |\  \  |  | \   \       
                 \___/    |_|  |_| |__|  |__|  |_| \__\ |__|  \__/        
                                                                              
                      - O R C A' S   B I G   F R I E N D -                    
                                      &                                       
                       - I N T E G R A L  F E E D E R -                       
                                                                              
 v1 FN, 2020, v2 2021, v3 2022-2024                                           
------------------------------------------------------------------------------


----------------------
SHARK INTEGRAL PACKAGE
----------------------

Number of atoms                             ...     25
Number of basis functions                   ...    750
Number of shells                            ...    268
Maximum angular momentum                    ...      3
Integral batch strategy                     ... SHARK/LIBINT Hybrid
RI-J (if used) integral strategy            ... SPLIT-RIJ (Revised 2003 algorithm where possible)
Printlevel                                  ...      1
Contraction scheme used                     ... SEGMENTED contraction
Prescreening option                         ... SCHWARTZ
   Thresh                                   ... 2.500e-11
   Tcut                                     ... 2.500e-12
   Tpresel                                  ... 2.500e-12 
Coulomb Range Separation                    ... NOT USED
Exchange Range Separation                   ... NOT USED
Multipole approximations                    ... NOT USED
Finite Nucleus Model                        ... NOT USED
CABS basis                                  ... NOT available
Auxiliary Coulomb fitting basis             ... AVAILABLE
   # of basis functions in Aux-J            ...   1187
   # of shells in Aux-J                     ...    365
   Maximum angular momentum in Aux-J        ...      4
Auxiliary J/K fitting basis                 ... NOT available
Auxiliary Correlation fitting basis         ... NOT available
Auxiliary 'external' fitting basis          ... NOT available

Checking pre-screening integrals            ... done (  0.0 sec) Dimension = 268
Check shell pair data                       ... done (  0.0 sec)
Shell pair information
Shell pair cut-off parameter TPreSel        ...   2.5e-12
Total number of shell pairs                 ...     36046
Shell pairs after pre-screening             ...     21880
Total number of primitive shell pairs       ...    118872
Primitive shell pairs kept                  ...     46445
          la=0 lb=0:   4176 shell pairs
          la=1 lb=0:   5973 shell pairs
          la=1 lb=1:   2067 shell pairs
          la=2 lb=0:   3244 shell pairs
          la=2 lb=1:   2375 shell pairs
          la=2 lb=2:    671 shell pairs
          la=3 lb=0:   1475 shell pairs
          la=3 lb=1:   1140 shell pairs
          la=3 lb=2:    611 shell pairs
          la=3 lb=3:    148 shell pairs

Calculating one electron integrals          ... done (  0.0 sec)
Calculating RI/J V-Matrix + Cholesky decomp.... done (  0.1 sec)
Calculating Nuclear repulsion               ... done (  0.0 sec) ENN=   2610.863627261027 Eh

Diagonalization of the overlap matrix:
Smallest eigenvalue                        ... 6.750e-05
Time for diagonalization                   ...    0.111 sec
Threshold for overlap eigenvalues          ... 1.000e-07
Number of eigenvalues below threshold      ... 0
Time for construction of square roots      ...    0.046 sec
Total time needed                          ...    0.163 sec

-------------------
DFT GRID GENERATION
-------------------

General Integration Accuracy     IntAcc      ... 4.388
Radial Grid Type                 RadialGrid  ... OptM3 with GC (2021)
Angular Grid (max. ang.)         AngularGrid ... 4 (Lebedev-302)
Angular grid pruning method      GridPruning ... 4 (adaptive)
Weight generation scheme         WeightScheme... mBecke (2022)
Basis function cutoff            BFCut       ... 1.0000e-11
Integration weight cutoff        WCut        ... 1.0000e-14
Partially contracted basis set               ... off
Rotationally invariant grid construction     ... off
Angular grids for H and He will be reduced by one unit

Total number of grid points                  ...   148757
Total number of batches                      ...     2334
Average number of points per batch           ...       63
Average number of grid points per atom       ...     5950

--------------------
COSX GRID GENERATION
--------------------

GRIDX 1
-------
General Integration Accuracy     IntAcc      ... 3.816
Radial Grid Type                 RadialGrid  ... OptM3 with GC (2021)
Angular Grid (max. ang.)         AngularGrid ... 1 (Lebedev-50)
Angular grid pruning method      GridPruning ... 4 (adaptive)
Weight generation scheme         WeightScheme... mBecke (2022)
Basis function cutoff            BFCut       ... 1.0000e-11
Integration weight cutoff        WCut        ... 1.0000e-14
Partially contracted basis set               ... on
Rotationally invariant grid construction     ... off
Angular grids for H and He will be reduced by one unit

Total number of grid points                  ...    18718
Total number of batches                      ...      158
Average number of points per batch           ...      118
Average number of grid points per atom       ...      749
UseSFitting                                  ... on

GRIDX 2
-------
General Integration Accuracy     IntAcc      ... 4.020
Radial Grid Type                 RadialGrid  ... OptM3 with GC (2021)
Angular Grid (max. ang.)         AngularGrid ... 2 (Lebedev-110)
Angular grid pruning method      GridPruning ... 4 (adaptive)
Weight generation scheme         WeightScheme... mBecke (2022)
Basis function cutoff            BFCut       ... 1.0000e-11
Integration weight cutoff        WCut        ... 1.0000e-14
Partially contracted basis set               ... on
Rotationally invariant grid construction     ... off
Angular grids for H and He will be reduced by one unit

Total number of grid points                  ...    44130
Total number of batches                      ...      360
Average number of points per batch           ...      122
Average number of grid points per atom       ...     1765
UseSFitting                                  ... on

GRIDX 3
-------
General Integration Accuracy     IntAcc      ... 4.338
Radial Grid Type                 RadialGrid  ... OptM3 with GC (2021)
Angular Grid (max. ang.)         AngularGrid ... 3 (Lebedev-194)
Angular grid pruning method      GridPruning ... 4 (adaptive)
Weight generation scheme         WeightScheme... mBecke (2022)
Basis function cutoff            BFCut       ... 1.0000e-11
Integration weight cutoff        WCut        ... 1.0000e-14
Partially contracted basis set               ... on
Rotationally invariant grid construction     ... off
Angular grids for H and He will be reduced by one unit

Total number of grid points                  ...    97719
Total number of batches                      ...      772
Average number of points per batch           ...      126
Average number of grid points per atom       ...     3909
UseSFitting                                  ... on
Initializing property integral containers    ... done (  0.0 sec)

SHARK setup successfully completed in   3.2 seconds

Maximum memory used throughout the entire STARTUP-calculation: 56.7 MB


           ************************************************************
           *        Program running with 20 parallel MPI-processes    *
           *              working on a common directory               *
           ************************************************************
-------------------------------------------------------------------------------
                                 ORCA GUESS
                   Start orbitals & Density for SCF / CASSCF
-------------------------------------------------------------------------------

------------
SCF SETTINGS
------------
Hamiltonian:
 Density Functional     Method          .... DFT(GTOs)
  Functional kind                       .... Exchange
  Functional name                       .... Re-regularized SCAN exchange by Furness et al
  Functional family                     .... MGGA
  Functional refs                              
    [ 0] J. W. Furness, A. D. Kaplan, J. Ning, J. P. Perdew, and J. Sun.,  J. Phys. Chem. Lett. 11, 8208-8215 (2020), doi: 10.1021/acs.jpclett.0c02405
    [ 1] J. W. Furness, A. D. Kaplan, J. Ning, J. P. Perdew, and J. Sun.,  J. Phys. Chem. Lett. 11, 9248-9248 (2020), doi: 10.1021/acs.jpclett.0c03077
  Functional external parameters        .... 6
    Parameter  0 _c1        =  6.670000e-01 : c1 parameter        
    Parameter  1 _c2        =  8.000000e-01 : c2 parameter        
    Parameter  2 _d         =  1.240000e+00 : d parameter         
    Parameter  3 _k1        =  6.500000e-02 : k1 parameter        
    Parameter  4 _eta       =  1.000000e-03 : eta parameter       
    Parameter  5 _dp2       =  3.610000e-01 : dp2 parameter       
  Functional kind                       .... Correlation
  Functional name                       .... Re-regularized SCAN correlation by Furness et al
  Functional family                     .... MGGA
  Functional refs                              
    [ 0] J. W. Furness, A. D. Kaplan, J. Ning, J. P. Perdew, and J. Sun.,  J. Phys. Chem. Lett. 11, 8208-8215 (2020), doi: 10.1021/acs.jpclett.0c02405
    [ 1] J. W. Furness, A. D. Kaplan, J. Ning, J. P. Perdew, and J. Sun.,  J. Phys. Chem. Lett. 11, 9248-9248 (2020), doi: 10.1021/acs.jpclett.0c03077
  Functional external parameters        .... 1
    Parameter  0 _eta       =  1.000000e-03 : Regularization parameter
 Gradients option       PostSCFGGA      .... off
 Hybrid DFT is turned on
   Fraction HF Exchange ScalHFX         ....  0.100000
   Scaling of DF-GGA-X  ScalDFX         ....  0.900000
   Scaling of DF-GGA-C  ScalDFC         ....  1.000000
   Scaling of DF-LDA-C  ScalLDAC        ....  1.000000
   Perturbative correction              ....  0.000000
   NL short-range parameter             .... 11.900000
 RI-approximation to the Coulomb term is turned on
   Number of AuxJ basis functions       .... 1187
   RIJ-COSX (HFX calculated with COS-X)).... on


General Settings:
 Integral files         IntName         .... rf_mecn_opt_r2s_C5_P_B
 Hartree-Fock type      HFTyp           .... UHF
 Total Charge           Charge          ....    0
 Multiplicity           Mult            ....    2
 Number of Electrons    NEL             ....  191
 Basis Dimension        Dim             ....  750
 Nuclear Repulsion      ENuc            ....   2610.8636272610 Eh

Convergence Acceleration:
 AO-DIIS                CNVDIIS         .... on
   Start iteration      DIISMaxIt       ....     0
   Startup error        DIISStart       ....  0.200000
   # of expansion vecs  DIISMaxEq       ....     5
   Bias factor          DIISBfac        ....   1.050
   Max. coefficient     DIISMaxC        ....  10.000
 MO-DIIS                CNVKDIIS        .... off
 Trust-Rad. Augm. Hess. CNVTRAH         .... auto
   Auto Start mean grad. ratio tolernc. ....  1.125000
   Auto Start start iteration           ....    50
   Auto Start num. interpolation iter.  ....    10
   Max. Number of Micro iterations      ....    24
   Max. Number of Macro iterations      .... Maxiter - #DIIS iter
   Number of Davidson start vectors     ....     2
   Converg. threshold    (grad. norm)   ....   1.000e-05
   Grad. Scal. Fac. for Micro threshold ....   0.100
   Minimum threshold for Micro iter.    ....   1.000e-02
   NR start threshold (gradient norm)   ....   1.000e-04
   Initial trust radius                 ....   0.400
   Minimum AH scaling param. (alpha)    ....   1.000
   Maximum AH scaling param. (alpha)    .... 1000.000
   Quad. conv. algorithm                .... NR
   White noise on init. David. guess    .... on
   Maximum white noise                  ....   0.010
   Pseudo random numbers                .... off
   Inactive MOs                         .... canonical
   Orbital update algorithm             .... Taylor
   Preconditioner                       .... Diag
   Full preconditioner red. dimension   ....   250
 SOSCF                  CNVSOSCF        .... on
   Start iteration      SOSCFMaxIt      ....   150
   Startup grad/error   SOSCFStart      ....  0.001000
   Hessian update       SOSCFHessUp     .... L-BFGS
 Level Shifting         CNVShift        .... on
   Level shift para.    LevelShift      ....    0.2500
   Turn off err/grad.   ShiftErr        ....    0.0000
 Zerner damping         CNVZerner       .... off
 Static damping         CNVDamp         .... on
   Fraction old density DampFac         ....    0.8500
   Max. Damping (<1)    DampMax         ....    0.9800
   Min. Damping (>=0)   DampMin         ....    0.0000
   Turn off err/grad.   DampErr         ....    0.0300

SCF Procedure:
 Maximum # iterations   MaxIter         ....  1500
 SCF integral mode      SCFMode         .... Direct
   Integral package                     .... SHARK and LIBINT hybrid scheme
 Reset frequency        DirectResetFreq ....    20
 Integral Threshold     Thresh          ....  2.500e-11 Eh
 Primitive CutOff       TCut            ....  2.500e-12 Eh

Convergence Tolerance:
 Convergence Check Mode ConvCheckMode   .... Total+1el-Energy
 Convergence forced     ConvForced      .... 0
 Energy Change          TolE            ....  1.000e-08 Eh
 1-El. energy change                    ....  1.000e-05 Eh
 Orbital Gradient       TolG            ....  1.000e-05
 Orbital Rotation angle TolX            ....  1.000e-05
 DIIS Error             TolErr          ....  5.000e-07

------------------------------
INITIAL GUESS: MODEL POTENTIAL
------------------------------
Loading Hartree-Fock densities                     ... done
Calculating cut-offs                               ... done
Initializing the effective Hamiltonian             ... done
Setting up the integral package (SHARK)            ... done
Starting the Coulomb interaction                   ... done (   0.2 sec)
Making the grid                                    ... done (   0.4 sec)
Mapping shells                                     ... done
Starting the XC term evaluation                    ... done (   0.2 sec)
  promolecular density results
     # of electrons  =    190.999588269
     EX              =   -197.375237853
     EC              =     -6.682716716
     EX+EC           =   -204.057954569
Transforming the Hamiltonian                       ... done (   0.1 sec)
Diagonalizing the Hamiltonian                      ... done (   0.1 sec)
Back transforming the eigenvectors                 ... done (   0.0 sec)
Now organizing SCF variables                       ... done
                      ------------------
                      INITIAL GUESS DONE (   1.1 sec)
                      ------------------
             **** ENERGY FILE WAS UPDATED (rf_mecn_opt_r2s_C5_P_B.en.tmp) ****
Finished Guess after   1.8 sec
Maximum memory used throughout the entire GUESS-calculation: 45.6 MB


           ************************************************************
           *        Program running with 20 parallel MPI-processes    *
           *              working on a common directory               *
           ************************************************************

-------------------------------------------------------------------------------------------
                                      ORCA LEAN-SCF
                              memory conserving SCF solver
-------------------------------------------------------------------------------------------

--------------------
CPCM SOLVATION MODEL
--------------------
CPCM parameters:
  Epsilon                                         ...      35.6880
  Refrac                                          ...       1.3442
  Rsolv                                           ...       1.3000
  Surface type                                    ... GAUSSIAN VDW
  Discretization scheme                           ... Constant charge density
    Threshold for H atoms                         ...       5.0000 (charges/Ang^2)
    Threshold for non-H atoms                     ...       5.0000 (charges/Ang^2)
  Epsilon function type                           ...         CPCM
Solvent:                                          ... ACETONITRILE
SMD-CDS solvent descriptors:
  Soln                                            ...       1.3442
  Soln25                                          ...       1.3416
  Sola                                            ...       0.0700
  Solb                                            ...       0.3200
  Solg                                            ...      41.2500
  Solc                                            ...       0.0000
  Solh                                            ...       0.0000
Radii:
  Scheme                                          ... Element-dependent radii
  Radius for C  used is    3.4960 Bohr (=   1.8500 Ang.)
  Radius for O  used is    4.0969 Bohr (=   2.1680 Ang.)
  Radius for F  used is    3.2692 Bohr (=   1.7300 Ang.)
  Radius for H  used is    2.2677 Bohr (=   1.2000 Ang.)
Calculating surface                               ...        done! (  0.0s)
Cavity surface points                             ...         2172
Cavity Volume                                     ...    2133.8459
Cavity Surface-area                               ...    1120.6189
Calculating surface distance matrix               ...        done! (  0.1s)
Performing Cholesky decomposition & store         ...        done! (  0.1s)
Overall time for CPCM initialization              ...                 0.1s

----------------------------------------D-I-I-S--------------------------------------------
Iteration    Energy (Eh)           Delta-E    RMSDP     MaxDP     DIISErr   Damp  Time(sec)
-------------------------------------------------------------------------------------------
               ***  Starting incremental Fock matrix formation  ***
    1    -1853.0196311173758659     0.00e+00  2.08e-04  1.61e-02  1.44e-01  0.850   6.8
Warning: op=1 Small HOMO/LUMO gap (   0.044) - skipping pre-diagonalization
         Will do a full diagonalization
    2    -1853.1565394909630413    -1.37e-01  1.96e-04  1.47e-02  8.93e-02  0.850   5.4
                               ***Turning on AO-DIIS***
    3    -1853.2252542664127759    -6.87e-02  8.87e-05  4.54e-03  5.20e-02  0.850   4.7
    4    -1853.2660742989846767    -4.08e-02  5.90e-05  4.94e-03  3.85e-02  0.850   4.7
    5    -1853.2951050710971685    -2.90e-02  4.87e-05  5.18e-03  3.06e-02  0.850   4.5
    6    -1853.3183018105191877    -2.32e-02  4.33e-05  5.03e-03  2.73e-02  0.850   4.3
    7    -1853.3378660555245006    -1.96e-02  2.68e-04  3.18e-02  2.32e-02  0.000   4.3
    8    -1853.4421099270084596    -1.04e-01  5.58e-05  7.90e-03  1.34e-02  0.000   4.6
    9    -1853.4422613767901566    -1.51e-04  2.00e-05  2.64e-03  1.24e-02  0.000   4.1
   10    -1853.4432127145637423    -9.51e-04  9.09e-06  1.04e-03  3.34e-03  0.000   3.9
                              *** Initializing SOSCF ***
---------------------------------------S-O-S-C-F--------------------------------------
Iteration    Energy (Eh)           Delta-E    RMSDP     MaxDP     MaxGrad    Time(sec)
--------------------------------------------------------------------------------------
   11    -1853.4433063362739631    -9.36e-05  4.23e-06  6.12e-04  8.52e-04     4.4
               *** Restarting incremental Fock matrix formation ***
   12    -1853.4433263855726182    -2.00e-05  2.99e-06  2.70e-04  1.55e-04     7.5
   13    -1853.4433272490678064    -8.63e-07  2.00e-06  2.26e-04  2.23e-04     5.0
   14    -1853.4433284280039516    -1.18e-06  1.18e-06  1.29e-04  1.14e-04     4.6
   15    -1853.4433281550200263     2.73e-07  9.12e-07  7.89e-05  2.71e-04     4.3
   16    -1853.4433286558905820    -5.01e-07  5.31e-07  3.88e-05  3.82e-05     4.1
   17    -1853.4433286617022532    -5.81e-09  2.45e-07  1.80e-05  2.54e-05     4.2
                 **** Energy Check signals convergence ****

               *****************************************************
               *                     SUCCESS                       *
               *           SCF CONVERGED AFTER  17 CYCLES          *
               *****************************************************

Recomputing exchange energy using gridx3       ... done (    8.757 sec)
Old exchange energy                            :    -19.882602300 Eh
New exchange energy                            :    -19.882609916 Eh
Exchange energy change after final integration :     -0.000007617 Eh
Total energy after final integration           :  -1853.443336278 Eh

SMD CDS free energy correction energy :                 3.65834     Kcal/mol
Total Energy after SMD CDS correction =             -1853.437506340 Eh
             **** ENERGY FILE WAS UPDATED (rf_mecn_opt_r2s_C5_P_B.en.tmp) ****

----------------
TOTAL SCF ENERGY
----------------

Total Energy       :      -1853.43750633963373 Eh          -50434.59859 eV

Components:
Nuclear Repulsion  :       2610.86362726102743 Eh           71045.21117 eV
Electronic Energy  :      -4464.28951845790198 Eh         -121479.49370 eV
One Electron Energy:      -7773.55895127785152 Eh         -211529.29301 eV
Two Electron Energy:       3309.26943281994954 Eh           90049.79931 eV
CPCM Dielectric    :         -0.01743746482768 Eh              -0.47450 eV
SMD CDS (Gcds)     :          0.00582993876917 Eh               0.15864 eV

Virial components:
Potential Energy   :      -3699.15855407890786 Eh         -100659.22167 eV
Kinetic Energy     :       1845.72104773927413 Eh           50224.62308 eV
Virial Ratio       :          2.00418072850706

DFT components:
N(Alpha)           :       95.999985479502 electrons
N(Beta)            :       94.999974503879 electrons
N(Total)           :      190.999959983381 electrons
E(X)               :     -179.954385415210 Eh       
E(C)               :       -6.625405064025 Eh       
E(XC)              :     -186.579790479234 Eh       

CPCM Solvation Model Properties:
Surface-charge          :         -0.00850513880788
Corrected charge        :         -0.00000000000000
Outlying charge corr.   :          0.00000393214343 Eh               0.00011 eV
Free-energy (cav+disp)  :          0.00582993876917 Eh               0.15864 eV

---------------
SCF CONVERGENCE
---------------

  Last Energy change         ...    5.8117e-09  Tolerance :   1.0000e-08
  Last MAX-Density change    ...    1.7965e-05  Tolerance :   1.0000e-07
  Last RMS-Density change    ...    2.4519e-07  Tolerance :   5.0000e-09
  Last DIIS Error            ...    8.5154e-04  Tolerance :   5.0000e-07
  Last Orbital Gradient      ...    2.5375e-05  Tolerance :   1.0000e-05
  Last Orbital Rotation      ...    2.5468e-05  Tolerance :   1.0000e-05


----------------------
UHF SPIN CONTAMINATION
----------------------

Warning: in a DFT calculation there is little theoretical justification to 
         calculate <S**2> as in Hartree-Fock theory. We will do it anyways
         but you should keep in mind that the values have only limited relevance

Expectation value of <S**2>     :     0.755208
Ideal value S*(S+1) for S=0.5   :     0.750000
Deviation                       :     0.005208

----------------
ORBITAL ENERGIES
----------------
                 SPIN UP ORBITALS
  NO   OCC          E(Eh)            E(eV) 
   0   1.0000     -24.737452      -673.1403 
   1   1.0000     -24.733355      -673.0288 
   2   1.0000     -24.732370      -673.0020 
   3   1.0000     -24.731767      -672.9856 
   4   1.0000     -24.731431      -672.9764 
   5   1.0000     -24.731384      -672.9752 
   6   1.0000     -24.731364      -672.9746 
   7   1.0000     -24.730143      -672.9414 
   8   1.0000     -24.729890      -672.9345 
   9   1.0000     -24.728530      -672.8975 
  10   1.0000     -24.725672      -672.8197 
  11   1.0000     -24.724827      -672.7967 
  12   1.0000     -24.720902      -672.6899 
  13   1.0000     -24.720718      -672.6849 
  14   1.0000     -19.194277      -522.3028 
  15   1.0000     -19.160764      -521.3909 
  16   1.0000     -10.444368      -284.2057 
  17   1.0000     -10.393268      -282.8152 
  18   1.0000     -10.392424      -282.7922 
  19   1.0000     -10.390694      -282.7452 
  20   1.0000     -10.390609      -282.7428 
  21   1.0000     -10.388680      -282.6904 
  22   1.0000     -10.388665      -282.6900 
  23   1.0000     -10.330241      -281.1001 
  24   1.0000      -1.355018       -36.8719 
  25   1.0000      -1.327228       -36.1157 
  26   1.0000      -1.320721       -35.9387 
  27   1.0000      -1.309479       -35.6327 
  28   1.0000      -1.304307       -35.4920 
  29   1.0000      -1.290496       -35.1162 
  30   1.0000      -1.285796       -34.9883 
  31   1.0000      -1.268698       -34.5230 
  32   1.0000      -1.263847       -34.3910 
  33   1.0000      -1.259867       -34.2827 
  34   1.0000      -1.258514       -34.2459 
  35   1.0000      -1.253231       -34.1021 
  36   1.0000      -1.250116       -34.0174 
  37   1.0000      -1.236783       -33.6546 
  38   1.0000      -1.094734       -29.7892 
  39   1.0000      -1.006119       -27.3779 
  40   1.0000      -0.848230       -23.0815 
  41   1.0000      -0.830142       -22.5893 
  42   1.0000      -0.805736       -21.9252 
  43   1.0000      -0.767804       -20.8930 
  44   1.0000      -0.734017       -19.9736 
  45   1.0000      -0.703131       -19.1332 
  46   1.0000      -0.678010       -18.4496 
  47   1.0000      -0.663507       -18.0549 
  48   1.0000      -0.635412       -17.2904 
  49   1.0000      -0.628421       -17.1002 
  50   1.0000      -0.625407       -17.0182 
  51   1.0000      -0.618814       -16.8388 
  52   1.0000      -0.615000       -16.7350 
  53   1.0000      -0.610638       -16.6163 
  54   1.0000      -0.600804       -16.3487 
  55   1.0000      -0.598533       -16.2869 
  56   1.0000      -0.588960       -16.0264 
  57   1.0000      -0.584596       -15.9077 
  58   1.0000      -0.576448       -15.6859 
  59   1.0000      -0.569742       -15.5035 
  60   1.0000      -0.566497       -15.4152 
  61   1.0000      -0.559405       -15.2222 
  62   1.0000      -0.516566       -14.0565 
  63   1.0000      -0.498424       -13.5628 
  64   1.0000      -0.496438       -13.5088 
  65   1.0000      -0.494299       -13.4506 
  66   1.0000      -0.489974       -13.3329 
  67   1.0000      -0.487484       -13.2651 
  68   1.0000      -0.485288       -13.2053 
  69   1.0000      -0.481407       -13.0997 
  70   1.0000      -0.473495       -12.8845 
  71   1.0000      -0.469556       -12.7773 
  72   1.0000      -0.466948       -12.7063 
  73   1.0000      -0.464630       -12.6432 
  74   1.0000      -0.461351       -12.5540 
  75   1.0000      -0.457565       -12.4510 
  76   1.0000      -0.453345       -12.3361 
  77   1.0000      -0.448241       -12.1973 
  78   1.0000      -0.446183       -12.1413 
  79   1.0000      -0.445420       -12.1205 
  80   1.0000      -0.438088       -11.9210 
  81   1.0000      -0.436633       -11.8814 
  82   1.0000      -0.433985       -11.8093 
  83   1.0000      -0.431920       -11.7531 
  84   1.0000      -0.428395       -11.6572 
  85   1.0000      -0.427422       -11.6307 
  86   1.0000      -0.425579       -11.5806 
  87   1.0000      -0.422867       -11.5068 
  88   1.0000      -0.419031       -11.4024 
  89   1.0000      -0.404828       -11.0159 
  90   1.0000      -0.376558       -10.2467 
  91   1.0000      -0.353932        -9.6310 
  92   1.0000      -0.338568        -9.2129 
  93   1.0000      -0.335726        -9.1356 
  94   1.0000      -0.306998        -8.3538 
  95   1.0000      -0.301241        -8.1972 
  96   0.0000      -0.111360        -3.0303 
  97   0.0000      -0.031787        -0.8650 
  98   0.0000      -0.006516        -0.1773 
  99   0.0000       0.009368         0.2549 
 100   0.0000       0.017466         0.4753 
 101   0.0000       0.033863         0.9215 
 102   0.0000       0.064572         1.7571 
 103   0.0000       0.086882         2.3642 
 104   0.0000       0.101022         2.7490 
 105   0.0000       0.106042         2.8855 
 106   0.0000       0.115856         3.1526 

                 SPIN DOWN ORBITALS
  NO   OCC          E(Eh)            E(eV) 
   0   1.0000     -24.733353      -673.0287 
   1   1.0000     -24.732710      -673.0113 
   2   1.0000     -24.732366      -673.0019 
   3   1.0000     -24.731430      -672.9764 
   4   1.0000     -24.731362      -672.9746 
   5   1.0000     -24.731335      -672.9738 
   6   1.0000     -24.730483      -672.9507 
   7   1.0000     -24.729891      -672.9345 
   8   1.0000     -24.728481      -672.8962 
   9   1.0000     -24.728417      -672.8944 
  10   1.0000     -24.725667      -672.8196 
  11   1.0000     -24.724803      -672.7961 
  12   1.0000     -24.720905      -672.6900 
  13   1.0000     -24.720713      -672.6848 
  14   1.0000     -19.194280      -522.3029 
  15   1.0000     -19.160764      -521.3909 
  16   1.0000     -10.444384      -284.2061 
  17   1.0000     -10.393233      -282.8142 
  18   1.0000     -10.392434      -282.7925 
  19   1.0000     -10.390662      -282.7443 
  20   1.0000     -10.390614      -282.7430 
  21   1.0000     -10.388735      -282.6918 
  22   1.0000     -10.388618      -282.6887 
  23   1.0000     -10.312495      -280.6173 
  24   1.0000      -1.354989       -36.8711 
  25   1.0000      -1.325721       -36.0747 
  26   1.0000      -1.320187       -35.9241 
  27   1.0000      -1.308901       -35.6170 
  28   1.0000      -1.303375       -35.4666 
  29   1.0000      -1.290057       -35.1042 
  30   1.0000      -1.278397       -34.7870 
  31   1.0000      -1.268340       -34.5133 
  32   1.0000      -1.263843       -34.3909 
  33   1.0000      -1.258758       -34.2525 
  34   1.0000      -1.257824       -34.2271 
  35   1.0000      -1.252688       -34.0874 
  36   1.0000      -1.249273       -33.9945 
  37   1.0000      -1.236772       -33.6543 
  38   1.0000      -1.094739       -29.7894 
  39   1.0000      -1.006120       -27.3779 
  40   1.0000      -0.839608       -22.8469 
  41   1.0000      -0.829876       -22.5821 
  42   1.0000      -0.796482       -21.6734 
  43   1.0000      -0.766075       -20.8460 
  44   1.0000      -0.731429       -19.9032 
  45   1.0000      -0.700392       -19.0586 
  46   1.0000      -0.676277       -18.4024 
  47   1.0000      -0.659523       -17.9465 
  48   1.0000      -0.633978       -17.2514 
  49   1.0000      -0.626471       -17.0471 
  50   1.0000      -0.624947       -17.0057 
  51   1.0000      -0.617883       -16.8134 
  52   1.0000      -0.613752       -16.7010 
  53   1.0000      -0.609500       -16.5853 
  54   1.0000      -0.599330       -16.3086 
  55   1.0000      -0.596891       -16.2422 
  56   1.0000      -0.586971       -15.9723 
  57   1.0000      -0.583157       -15.8685 
  58   1.0000      -0.575787       -15.6680 
  59   1.0000      -0.565509       -15.3883 
  60   1.0000      -0.563891       -15.3443 
  61   1.0000      -0.558154       -15.1882 
  62   1.0000      -0.499371       -13.5886 
  63   1.0000      -0.496455       -13.5092 
  64   1.0000      -0.494699       -13.4614 
  65   1.0000      -0.492632       -13.4052 
  66   1.0000      -0.489252       -13.3132 
  67   1.0000      -0.485592       -13.2136 
  68   1.0000      -0.482020       -13.1164 
  69   1.0000      -0.479036       -13.0352 
  70   1.0000      -0.472808       -12.8658 
  71   1.0000      -0.468910       -12.7597 
  72   1.0000      -0.463722       -12.6185 
  73   1.0000      -0.462245       -12.5783 
  74   1.0000      -0.460572       -12.5328 
  75   1.0000      -0.454139       -12.3578 
  76   1.0000      -0.451613       -12.2890 
  77   1.0000      -0.446969       -12.1626 
  78   1.0000      -0.445050       -12.1104 
  79   1.0000      -0.442385       -12.0379 
  80   1.0000      -0.437685       -11.9100 
  81   1.0000      -0.435887       -11.8611 
  82   1.0000      -0.433413       -11.7938 
  83   1.0000      -0.431293       -11.7361 
  84   1.0000      -0.428100       -11.6492 
  85   1.0000      -0.427222       -11.6253 
  86   1.0000      -0.424168       -11.5422 
  87   1.0000      -0.422262       -11.4903 
  88   1.0000      -0.418265       -11.3816 
  89   1.0000      -0.402790       -10.9605 
  90   1.0000      -0.374689       -10.1958 
  91   1.0000      -0.352754        -9.5989 
  92   1.0000      -0.335837        -9.1386 
  93   1.0000      -0.335010        -9.1161 
  94   1.0000      -0.306455        -8.3391 
  95   0.0000      -0.138801        -3.7770 
  96   0.0000      -0.111283        -3.0282 
  97   0.0000      -0.029259        -0.7962 
  98   0.0000      -0.004802        -0.1307 
  99   0.0000       0.014215         0.3868 
 100   0.0000       0.020405         0.5553 
 101   0.0000       0.038795         1.0557 
 102   0.0000       0.071416         1.9433 
 103   0.0000       0.092494         2.5169 
 104   0.0000       0.103330         2.8118 
 105   0.0000       0.108301         2.9470 
*Only the first 10 virtual orbitals were printed.

                    ********************************
                    * MULLIKEN POPULATION ANALYSIS *
                    ********************************

--------------------------------------------
MULLIKEN ATOMIC CHARGES AND SPIN POPULATIONS
--------------------------------------------
   0 C :    0.382894   -0.000126
   1 O :   -0.456317   -0.000051
   2 O :   -0.394810   -0.000010
   3 C :    0.369355   -0.000517
   4 C :    0.328935   -0.005059
   5 C :    0.372294    0.002686
   6 C :    0.087023    0.865683
   7 C :    0.363454   -0.003127
   8 C :    0.342165    0.001154
   9 C :    0.470326   -0.000318
  10 F :   -0.177536    0.000082
  11 F :   -0.177196   -0.000048
  12 F :   -0.168902    0.000992
  13 F :   -0.173241    0.000195
  14 F :   -0.164101    0.030807
  15 F :   -0.174062   -0.000220
  16 F :   -0.155407    0.081893
  17 F :   -0.171920    0.000087
  18 F :   -0.163996    0.025127
  19 F :   -0.169044    0.000432
  20 F :   -0.167246    0.000204
  21 F :   -0.157859    0.000040
  22 F :   -0.155037    0.000050
  23 F :   -0.155570    0.000056
  24 H :    0.465800   -0.000012
Sum of atomic charges         :   -0.0000000
Sum of atomic spin populations:    1.0000000

-----------------------------------------------------
MULLIKEN REDUCED ORBITAL CHARGES AND SPIN POPULATIONS
-----------------------------------------------------
CHARGE
  0 C s       :     3.169168  s :     3.169168
      pz      :     0.775213  p :     2.218992
      px      :     0.790744
      py      :     0.653035
      dz2     :     0.015547  d :     0.210897
      dxz     :     0.014460
      dyz     :     0.059999
      dx2y2   :     0.053135
      dxy     :     0.067756
      f0      :     0.001820  f :     0.018048
      f+1     :     0.001148
      f-1     :     0.002317
      f+2     :     0.002603
      f-2     :     0.001967
      f+3     :     0.003815
      f-3     :     0.004378

  1 O s       :     3.684730  s :     3.684730
      pz      :     1.719012  p :     4.753872
      px      :     1.684609
      py      :     1.350251
      dz2     :     0.001738  d :     0.014829
      dxz     :     0.001258
      dyz     :     0.003215
      dx2y2   :     0.003297
      dxy     :     0.005321
      f0      :     0.000283  f :     0.002886
      f+1     :     0.000134
      f-1     :     0.000389
      f+2     :     0.000246
      f-2     :     0.000445
      f+3     :     0.000930
      f-3     :     0.000460

  2 O s       :     3.899099  s :     3.899099
      pz      :     1.540120  p :     4.469240
      px      :     1.691308
      py      :     1.237812
      dz2     :     0.003281  d :     0.025167
      dxz     :     0.000339
      dyz     :     0.006620
      dx2y2   :     0.009248
      dxy     :     0.005678
      f0      :     0.000119  f :     0.001303
      f+1     :     0.000015
      f-1     :     0.000231
      f+2     :     0.000222
      f-2     :     0.000031
      f+3     :     0.000293
      f-3     :     0.000393

  3 C s       :     3.107866  s :     3.107866
      pz      :     0.679298  p :     2.236985
      px      :     0.915506
      py      :     0.642181
      dz2     :     0.045678  d :     0.261077
      dxz     :     0.052421
      dyz     :     0.065793
      dx2y2   :     0.044231
      dxy     :     0.052955
      f0      :     0.005246  f :     0.024717
      f+1     :     0.003530
      f-1     :     0.003767
      f+2     :     0.003564
      f-2     :     0.001992
      f+3     :     0.003660
      f-3     :     0.002958

  4 C s       :     3.120140  s :     3.120140
      pz      :     0.607359  p :     2.244255
      px      :     0.934794
      py      :     0.702102
      dz2     :     0.061254  d :     0.279835
      dxz     :     0.058887
      dyz     :     0.068796
      dx2y2   :     0.032637
      dxy     :     0.058262
      f0      :     0.003474  f :     0.026835
      f+1     :     0.004825
      f-1     :     0.007874
      f+2     :     0.002108
      f-2     :     0.002606
      f+3     :     0.003497
      f-3     :     0.002451

  5 C s       :     3.132648  s :     3.132648
      pz      :     0.584087  p :     2.178613
      px      :     0.896100
      py      :     0.698426
      dz2     :     0.073425  d :     0.289273
      dxz     :     0.063575
      dyz     :     0.059773
      dx2y2   :     0.033430
      dxy     :     0.059069
      f0      :     0.004834  f :     0.027172
      f+1     :     0.004250
      f-1     :     0.005981
      f+2     :     0.003130
      f-2     :     0.004323
      f+3     :     0.002526
      f-3     :     0.002128

  6 C s       :     3.333898  s :     3.333898
      pz      :     0.750553  p :     2.418738
      px      :     0.910649
      py      :     0.757536
      dz2     :     0.038552  d :     0.145144
      dxz     :     0.028112
      dyz     :     0.022498
      dx2y2   :     0.021065
      dxy     :     0.034917
      f0      :     0.003154  f :     0.015197
      f+1     :     0.002384
      f-1     :     0.002006
      f+2     :     0.001762
      f-2     :     0.002797
      f+3     :     0.001609
      f-3     :     0.001485

  7 C s       :     3.114627  s :     3.114627
      pz      :     0.578545  p :     2.203443
      px      :     0.929567
      py      :     0.695331
      dz2     :     0.072811  d :     0.291370
      dxz     :     0.064000
      dyz     :     0.060942
      dx2y2   :     0.034683
      dxy     :     0.058934
      f0      :     0.004665  f :     0.027105
      f+1     :     0.004195
      f-1     :     0.006256
      f+2     :     0.002925
      f-2     :     0.004305
      f+3     :     0.002640
      f-3     :     0.002119

  8 C s       :     3.105125  s :     3.105125
      pz      :     0.613322  p :     2.244670
      px      :     0.941340
      py      :     0.690007
      dz2     :     0.058411  d :     0.281028
      dxz     :     0.059362
      dyz     :     0.071368
      dx2y2   :     0.033621
      dxy     :     0.058266
      f0      :     0.003465  f :     0.027011
      f+1     :     0.004878
      f-1     :     0.008086
      f+2     :     0.002074
      f-2     :     0.002349
      f+3     :     0.003752
      f-3     :     0.002407

  9 C s       :     3.032617  s :     3.032617
      pz      :     0.646154  p :     2.107412
      px      :     0.802629
      py      :     0.658629
      dz2     :     0.066536  d :     0.350373
      dxz     :     0.068140
      dyz     :     0.085121
      dx2y2   :     0.063489
      dxy     :     0.067087
      f0      :     0.004508  f :     0.039272
      f+1     :     0.007831
      f-1     :     0.008775
      f+2     :     0.004337
      f-2     :     0.003033
      f+3     :     0.007316
      f-3     :     0.003472

 10 F s       :     3.930625  s :     3.930625
      pz      :     1.893870  p :     5.230977
      px      :     1.882654
      py      :     1.454452
      dz2     :     0.002153  d :     0.015316
      dxz     :     0.000307
      dyz     :     0.002939
      dx2y2   :     0.005814
      dxy     :     0.004104
      f0      :     0.000049  f :     0.000618
      f+1     :     0.000015
      f-1     :     0.000122
      f+2     :     0.000071
      f-2     :     0.000019
      f+3     :     0.000166
      f-3     :     0.000176

 11 F s       :     3.931106  s :     3.931106
      pz      :     1.467833  p :     5.230692
      px      :     1.896717
      py      :     1.866142
      dz2     :     0.006664  d :     0.014793
      dxz     :     0.003501
      dyz     :     0.003717
      dx2y2   :     0.000456
      dxy     :     0.000455
      f0      :     0.000215  f :     0.000605
      f+1     :     0.000135
      f-1     :     0.000174
      f+2     :     0.000038
      f-2     :     0.000038
      f+3     :     0.000003
      f-3     :     0.000003

 12 F s       :     3.930081  s :     3.930081
      pz      :     1.807976  p :     5.221638
      px      :     1.899505
      py      :     1.514157
      dz2     :     0.002099  d :     0.016494
      dxz     :     0.000809
      dyz     :     0.005327
      dx2y2   :     0.004912
      dxy     :     0.003347
      f0      :     0.000076  f :     0.000688
      f+1     :     0.000004
      f-1     :     0.000121
      f+2     :     0.000181
      f-2     :     0.000065
      f+3     :     0.000109
      f-3     :     0.000132

 13 F s       :     3.931069  s :     3.931069
      pz      :     1.443573  p :     5.225125
      px      :     1.902383
      py      :     1.879169
      dz2     :     0.008432  d :     0.016372
      dxz     :     0.003804
      dyz     :     0.003577
      dx2y2   :     0.000272
      dxy     :     0.000287
      f0      :     0.000330  f :     0.000676
      f+1     :     0.000155
      f-1     :     0.000160
      f+2     :     0.000011
      f-2     :     0.000018
      f+3     :     0.000001
      f-3     :     0.000001

 14 F s       :     3.928701  s :     3.928701
      pz      :     1.705102  p :     5.218151
      px      :     1.894184
      py      :     1.618865
      dz2     :     0.002736  d :     0.016563
      dxz     :     0.001649
      dyz     :     0.006505
      dx2y2   :     0.003074
      dxy     :     0.002598
      f0      :     0.000078  f :     0.000686
      f+1     :     0.000014
      f-1     :     0.000184
      f+2     :     0.000187
      f-2     :     0.000105
      f+3     :     0.000059
      f-3     :     0.000060

 15 F s       :     3.928799  s :     3.928799
      pz      :     1.498017  p :     5.228053
      px      :     1.903871
      py      :     1.826165
      dz2     :     0.006875  d :     0.016525
      dxz     :     0.003309
      dyz     :     0.004902
      dx2y2   :     0.000617
      dxy     :     0.000821
      f0      :     0.000228  f :     0.000685
      f+1     :     0.000108
      f-1     :     0.000232
      f+2     :     0.000049
      f-2     :     0.000059
      f+3     :     0.000005
      f-3     :     0.000003

 16 F s       :     3.933571  s :     3.933571
      pz      :     1.576746  p :     5.204238
      px      :     1.904617
      py      :     1.722875
      dz2     :     0.004859  d :     0.016920
      dxz     :     0.002456
      dyz     :     0.006091
      dx2y2   :     0.001880
      dxy     :     0.001634
      f0      :     0.000116  f :     0.000677
      f+1     :     0.000045
      f-1     :     0.000234
      f+2     :     0.000138
      f-2     :     0.000099
      f+3     :     0.000024
      f-3     :     0.000023

 17 F s       :     3.929978  s :     3.929978
      pz      :     1.717270  p :     5.224532
      px      :     1.900160
      py      :     1.607102
      dz2     :     0.002596  d :     0.016718
      dxz     :     0.001551
      dyz     :     0.006555
      dx2y2   :     0.003337
      dxy     :     0.002678
      f0      :     0.000078  f :     0.000691
      f+1     :     0.000010
      f-1     :     0.000176
      f+2     :     0.000195
      f-2     :     0.000100
      f+3     :     0.000065
      f-3     :     0.000068

 18 F s       :     3.929623  s :     3.929623
[...]
      px      :     0.002962
      py      :     0.076806
      dz2     :     0.005202  d :     0.010590
      dxz     :     0.000103
      dyz     :     0.003388
      dx2y2   :     0.001455
      dxy     :     0.000443
      f0      :     0.000374  f :     0.000566
      f+1     :     0.000008
      f-1     :     0.000007
      f+2     :     0.000122
      f-2     :     0.000031
      f+3     :     0.000013
      f-3     :     0.000012

 17 F s       :     0.001119  s :     0.001119
      pz      :     0.006913  p :     0.009057
      px      :     0.000176
      py      :     0.001969
      dz2     :    -0.000042  d :    -0.000292
      dxz     :    -0.000020
      dyz     :    -0.000042
      dx2y2   :    -0.000051
      dxy     :    -0.000138
      f0      :    -0.000001  f :    -0.000015
      f+1     :     0.000001
      f-1     :    -0.000003
      f+2     :    -0.000001
      f-2     :    -0.000006
      f+3     :    -0.000004
      f-3     :    -0.000002

 18 F s       :     0.000783  s :     0.000783
      pz      :     0.003560  p :     0.008712
      px      :     0.004458
      py      :     0.000693
      dz2     :    -0.000103  d :    -0.000272
      dxz     :    -0.000075
      dyz     :    -0.000032
      dx2y2   :    -0.000074
      dxy     :     0.000013
      f0      :    -0.000007  f :    -0.000013
      f+1     :     0.000000
      f-1     :    -0.000000
      f+2     :    -0.000004
      f-2     :    -0.000002
      f+3     :    -0.000001
      f-3     :     0.000001

 19 F s       :     0.000104  s :     0.000104
      pz      :     0.000431  p :     0.000152
      px      :     0.000432
      py      :    -0.000711
      dz2     :     0.000027  d :     0.000212
      dxz     :     0.000046
      dyz     :     0.000021
      dx2y2   :     0.000117
      dxy     :     0.000001
      f0      :     0.000000  f :     0.000014
      f+1     :     0.000002
      f-1     :     0.000004
      f+2     :     0.000001
      f-2     :     0.000002
      f+3     :     0.000000
      f-3     :     0.000005

 20 F s       :     0.000127  s :     0.000127
      pz      :    -0.000357  p :     0.000386
      px      :     0.000036
      py      :     0.000707
      dz2     :     0.000029  d :     0.000233
      dxz     :     0.000031
      dyz     :     0.000052
      dx2y2   :     0.000044
      dxy     :     0.000077
      f0      :     0.000002  f :     0.000015
      f+1     :     0.000002
      f-1     :     0.000002
      f+2     :     0.000002
      f-2     :     0.000006
      f+3     :     0.000000
      f-3     :     0.000001

 21 F s       :    -0.000010  s :    -0.000010
      pz      :    -0.000006  p :    -0.000038
      px      :    -0.000056
      py      :     0.000025
      dz2     :    -0.000000  d :     0.000027
      dxz     :    -0.000005
      dyz     :     0.000003
      dx2y2   :     0.000001
      dxy     :     0.000029
      f0      :     0.000000  f :     0.000002
      f+1     :    -0.000000
      f-1     :    -0.000000
      f+2     :     0.000000
      f-2     :     0.000000
      f+3     :     0.000000
      f-3     :     0.000001

 22 F s       :     0.000159  s :     0.000159
      pz      :     0.000527  p :     0.002715
      px      :     0.001874
      py      :     0.000314
      dz2     :     0.000001  d :     0.000101
      dxz     :     0.000032
      dyz     :     0.000010
      dx2y2   :     0.000001
      dxy     :     0.000058
      f0      :     0.000000  f :     0.000005
      f+1     :     0.000000
      f-1     :     0.000000
      f+2     :    -0.000000
      f-2     :     0.000003
      f+3     :     0.000002
      f-3     :    -0.000000

 23 F s       :    -0.000010  s :    -0.000010
      pz      :    -0.000046  p :    -0.000007
      px      :    -0.000115
      py      :     0.000154
      dz2     :     0.000010  d :     0.000027
      dxz     :     0.000014
      dyz     :    -0.000001
      dx2y2   :     0.000003
      dxy     :     0.000001
      f0      :     0.000001  f :     0.000002
      f+1     :     0.000000
      f-1     :    -0.000000
      f+2     :     0.000001
      f-2     :    -0.000000
      f+3     :     0.000000
      f-3     :    -0.000000

 24 H s       :     0.000067  s :     0.000067
      pz      :     0.000003  p :     0.000000
      px      :    -0.000002
      py      :    -0.000001



                      *****************************
                      * MAYER POPULATION ANALYSIS *
                      *****************************

  NA   - Mulliken gross atomic population
  ZA   - Total nuclear charge
  QA   - Mulliken gross atomic charge
  VA   - Mayer's total valence
  BVA  - Mayer's bonded valence
  FA   - Mayer's free valence

  ATOM       NA         ZA         QA         VA         BVA        FA
  0 C      5.7169     6.0000     0.2831     4.3303     4.3303     0.0000
  1 O      8.3653     8.0000    -0.3653     2.1740     2.1740     0.0000
  2 O      8.3276     8.0000    -0.3276     2.1833     2.1833     0.0000
  3 C      5.5864     6.0000     0.4136     4.1079     4.1079     0.0000
  4 C      5.7122     6.0000     0.2878     4.1319     4.1317     0.0002
  5 C      5.6286     6.0000     0.3714     4.2478     4.2454     0.0024
  6 C      5.9032     6.0000     0.0968     3.9292     3.3175     0.6118
  7 C      5.6240     6.0000     0.3760     4.2333     4.2303     0.0030
  8 C      5.6827     6.0000     0.3173     4.1785     4.1775     0.0011
  9 C      5.5230     6.0000     0.4770     4.4686     4.4685     0.0000
 10 F      9.1740     9.0000    -0.1740     1.1398     1.1398     0.0000
 11 F      9.1713     9.0000    -0.1713     1.1438     1.1438     0.0000
 12 F      9.1706     9.0000    -0.1706     1.1528     1.1528     0.0000
 13 F      9.1707     9.0000    -0.1707     1.1501     1.1501     0.0000
 14 F      9.1709     9.0000    -0.1709     1.1346     1.1338     0.0009
 15 F      9.1733     9.0000    -0.1733     1.1382     1.1382     0.0000
 16 F      9.1433     9.0000    -0.1433     1.1976     1.1869     0.0107
 17 F      9.1678     9.0000    -0.1678     1.1458     1.1457     0.0001
 18 F      9.1687     9.0000    -0.1687     1.1475     1.1474     0.0001
 19 F      9.1703     9.0000    -0.1703     1.1495     1.1495     0.0000
 20 F      9.1696     9.0000    -0.1696     1.1525     1.1525     0.0000
 21 F      9.1569     9.0000    -0.1569     1.1624     1.1624     0.0000
 22 F      9.1560     9.0000    -0.1560     1.1603     1.1603     0.0000
 23 F      9.1559     9.0000    -0.1559     1.1637     1.1637     0.0000
 24 H      0.6110     1.0000     0.3890     0.8745     0.8745     0.0000

  Mayer bond orders larger than 0.100000
B(  0-C ,  1-O ) :   1.2941 B(  0-C ,  2-O ) :   2.0400 B(  0-C ,  3-C ) :   0.8796 
B(  1-O , 24-H ) :   0.8171 B(  3-C ,  4-C ) :   0.9373 B(  3-C , 10-F ) :   1.0835 
B(  3-C , 11-F ) :   1.0976 B(  4-C ,  5-C ) :   0.9167 B(  4-C , 12-F ) :   1.0739 
B(  4-C , 13-F ) :   1.0716 B(  5-C ,  6-C ) :   1.0487 B(  5-C , 14-F ) :   1.0767 
B(  5-C , 15-F ) :   1.0631 B(  6-C ,  7-C ) :   0.9943 B(  6-C , 16-F ) :   1.1101 
B(  7-C ,  8-C ) :   0.9266 B(  7-C , 17-F ) :   1.0930 B(  7-C , 18-F ) :   1.0786 
B(  8-C ,  9-C ) :   0.9466 B(  8-C , 19-F ) :   1.0685 B(  8-C , 20-F ) :   1.0748 
B(  9-C , 21-F ) :   1.1361 B(  9-C , 22-F ) :   1.1281 B(  9-C , 23-F ) :   1.1398 


-------
TIMINGS
-------

Total SCF time: 0 days 0 hours 0 min 38 sec 

Total time                  ....      38.406 sec
Sum of individual times     ....      37.304 sec  ( 97.1%)

SCF preparation             ....       1.374 sec  (  3.6%)
Fock matrix formation       ....      31.455 sec  ( 81.9%)
  Startup                   ....       0.141 sec  (  0.4% of F)
  Split-RI-J                ....       1.968 sec  (  6.3% of F)
  Chain of spheres X        ....      20.888 sec  ( 66.4% of F)
  XC integration            ....       6.466 sec  ( 20.6% of F)
    Basis function eval.    ....       0.403 sec  (  6.2% of XC)
    Density eval.           ....       1.903 sec  ( 29.4% of XC)
    XC-Functional eval.     ....       0.138 sec  (  2.1% of XC)
    XC-Potential eval.      ....       1.919 sec  ( 29.7% of XC)
  CPCM terms                ....       1.635 sec  (  5.2% of F)
Diagonalization             ....       0.000 sec  (  0.0%)
Density matrix formation    ....       0.422 sec  (  1.1%)
Total Energy calculation    ....       0.277 sec  (  0.7%)
Population analysis         ....       0.661 sec  (  1.7%)
Orbital Transformation      ....       0.421 sec  (  1.1%)
Orbital Orthonormalization  ....       0.000 sec  (  0.0%)
DIIS solution               ....       0.564 sec  (  1.5%)
SOSCF solution              ....       2.130 sec  (  5.5%)
Finished LeanSCF after  39.0 sec

Maximum memory used throughout the entire LEANSCF-calculation: 112.6 MB


-------------------------------------------------------------------------------
                          DFT DISPERSION CORRECTION                            
                                                                               
                              DFTD3 V3.1  Rev 1                                
                          USING Becke-Johnson damping                          
-------------------------------------------------------------------------------
The R2SCANh functional is recognized
Active option DFTDOPT                   ...         4   

molecular C6(AA) [au] = 6511.913707 


            DFT-D V3
 parameters
 s6 scaling factor         :     1.0000 
 a1 scaling factor         :     0.4709 
 s8 scaling factor         :     1.1236 
 a2 scaling factor         :     5.9157 
 ad hoc parameters k1-k3   :    16.0000     1.3333    -4.0000 

 Edisp/kcal,au: -5.307726953366  -0.008458400401 
 E6   /kcal   :  -3.873071527 
 E8   /kcal   :  -1.434655427 
 % E8         :  27.029563488 

-------------------------   ----------------
Dispersion correction           -0.008458400
-------------------------   ----------------


-------------------------   --------------------
FINAL SINGLE POINT ENERGY     -1853.569370410734
-------------------------   --------------------

                                *** OPTIMIZATION RUN DONE ***



           ************************************************************
           *        Program running with 20 parallel MPI-processes    *
           *              working on a common directory               *
           ************************************************************

------------------------------------------------------------------------------
                              ORCA PROPERTY CALCULATIONS
------------------------------------------------------------------------------

GBWName                                 ... rf_mecn_opt_r2s_C5_P_B.gbw
Number of atoms                         ...     25
Number of basis functions               ...    750
Max core memory                         ...   8000 MB

Electric properties:
Dipole moment                           ... YES
Quadrupole moment                       ...  NO
Static polarizability (Dipole/Dipole)   ...  NO
Static polarizability (Dipole/Quad.)    ...  NO
Static polarizability (Quad./Quad.)     ...  NO
Static polarizability (Velocity)        ...  NO

Atomic electric properties:
Dipole moment                           ...  NO
Quadrupole moment                       ...  NO
Static polarizability                   ...  NO

Choice of electric origin               ... Center of mass
Position of electric origin             ...    -0.013882    -0.325141    -0.152262

General magnetic properties:
Magnetizability                         ...  NO

EPR properties:
g-Tensor (aka g-matrix)                 ...  NO
Zero-Field splitting spin-orbit         ...  NO
Zero-field splitting spin-spin          ...  NO
Hyperfine couplings                     ...  NO (   0 nuclei)
Quadrupole couplings                    ...  NO (   0 nuclei)
Contact density                         ...  NO (   0 nuclei)

NMR properties:
Chemical shifts                         ...  NO (   0 nuclei)
Spin-rotation constants                 ...  NO (   0 nuclei)
Spin-spin couplings                     ...  NO (   0 nuclei,    0 pairs)

Choice of magnetic origin               ... GIAO
Position of magnetic origin             ...     0.000000     0.000000     0.000000

Properties with geometric perturbations:
SCF Hessian                             ...  NO
IR spectrum                             ...  NO
VCD spectrum                            ...  NO
X-ray spectroscopy properties:
SCF XES/XAS/RIXS spectra                ...  NO


-------------
DIPOLE MOMENT
-------------

Method             : SCF
Type of density    : Electron Density
Multiplicity       :   2
Irrep              :   0
Energy             : -1853.5609120103329133 Eh
Relativity type    : 
Basis              : AO
                                X                 Y                 Z
Electronic contribution:    -13.335880236      -2.059528799      -0.321226218
Nuclear contribution   :     14.366994754       1.879946989      -0.346411336
                        -----------------------------------------
Total Dipole Moment    :      1.031114517      -0.179581810      -0.667637554
                        -----------------------------------------
Magnitude (a.u.)       :      1.241445399
Magnitude (Debye)      :      3.155503432



--------------------
Rotational spectrum 
--------------------
 
Rotational constants in cm-1:             0.017563             0.004610             0.004385 
Rotational constants in MHz :           526.532459           138.200478           131.465999 

Dipole components along the rotational axes: 
x,y,z [a.u.] :     1.047091    -0.528836    -0.406348 
x,y,z [Debye]:     2.661495    -1.344195    -1.032854 

 

Dipole moment calculation done in   0.1 sec 

Maximum memory used throughout the entire PROP-calculation: 60.2 MB

--------------------------------
SUGGESTED CITATIONS FOR THIS RUN
--------------------------------

Below you find a list of papers that are relevant to this ORCA run
We neither can nor want to force you to cite these papers, but we appreciate if you do
You receive ORCA, which is the product of decades of hard work by many enthusiastic individuals, for free
The only thing we kindly ask in return is that you cite our papers,
We deeply appreciate it, if you show your appreciation for ORCA by not just citing the generic ORCA reference.

Please note that relegating all ORCA citations to the supporting information does *not* help us.
SI sections are not indexed - citations you put there will not count into any citation statistics
But we need these citations in order to attract the funding resources that allow us to do what we are doing

Therefore, if you are a happy ORCA user, please consider citing a few of the papers listed below in the main body of your paper

In addition to the list printed below, the program has created the file rf_mecn_opt_r2s_C5_P_B.bibtex that contains the list in bibtex format
You can import this file easily into all common literature databanks and citation aid programs


List of essential papers. We consider these as the minimum necessary citations

  1. Neese,F.
     Software update: the ORCA program system, version 5.0
     WIRES Comput. Molec. Sci., 2022 12(1)e1606
     doi.org/10.1002/wcms.1606

List of papers to cite with high priority. The work reported in these papers was absolutely
necessary for this run to complete.
Our perspective: the developers of density functionals and basis sets usually get cited in chemistry papers
Good! But without the algorithms to do something with them, the functionals or basis sets would not do anything.
Hence, in our opinion, the algorithm design and method developments papers are equally worthy of getting cited

  1. Neese,F.
     An improvement of the resolution of the identity approximation for the formation of the Coulomb matrix
     J. Comp. Chem., 2003 24(14)1740-1747
     doi.org/10.1002/jcc.10318
  2. Neese,F.; Wennmohs,F.; Hansen,A.; Becker,U.
     Efficient, approximate and parallel Hartree-Fock and hybrid DFT calculations. A 'chain-of-spheres' algorithm for the Hartree-Fock exchange
     Chem. Phys., 2009 356(1-3)98-109
     doi.org/10.1016/j.chemphys.2008.10.036
  3. Garcia-Rates,M.; Neese,F.
     Effect of the Solute Cavity on the Solvation Energy and its Derivatives within the Framework of the Gaussian Charge Scheme
     J. Comput. Chem., 2020 41 922-939
     doi.org/10.1002/jcc.26139
  4. Helmich-Paris,B.; de Souza,B.; Neese,F.; Izsák,R.
     An improved chain of spheres for exchange algorithm
     J. Chem. Phys., 2021 155 104109
     doi.org/doi: 10.1063/5.0058766.
  5. Neese,F.
     The SHARK Integral Generation and Digestion System
     J. Comp. Chem., 2022  1-16
     doi.org/10.1002/jcc.26942
  6. Lehtola,S.; Steigemann,C.; Oliveira,M.; Marques,M.
     Recent developments in Libxc - A comprehensive library of functionals for density functional theory
     Software X, 2018 7 
     doi.org/10.1016/j.softx.2017.11.002
  7. Grimme,S.; Antony,J.; Ehrlich,S.; Krieg,H.
     A consistent and accurate ab initio parametrization of density functional dispersion correction (DFT-D) for the 94 elements H-Pu
     J. Chem. Phys., 2010 132 154104
     doi.org/10.1063/1.3382344
  8. Grimme,S.; Ehrlich,S.; Goerigk,L.
     Effect of the damping function in dispersion corrected density functional theory
     J. Comput. Chem., 2011 32(7)1456-1465
     doi.org/10.1002/jcc.21759
  9. Bursch,M.; Neugebauer,H.; Ehlert,S.; Grimme,S.
     Dispersion corrected r2SCAN based global hybrid functionals: r2SCANh, r2SCAN0, and r2SCAN50
     J. Phys. Chem., 2022 156(13)134105
     doi.org/10.1063/5.0086040

List of suggested additional citations. These are papers that are important in the 'surrounding' of 
of this run, or papers that preceded the highly important papers. If you like your results we are grateful for a citation.

  1. Izsak,R.; Neese,F.
     An overlap fitted chain of spheres exchange method
     J. Chem. Phys., 2011 135 144105
     doi.org/10.1063/1.3646921
  2. Izsak,R.; Hansen,A.; Neese,F.
     The resolution of identity and chain of spheres approximations for the LPNO-CCSD singles Fock term
     Molec. Phys., 2012 110 2413-2417
     doi.org/10.1080/00268976.2012.687466
  3. Neese,F.
     The ORCA program system
     WIRES Comput. Molec. Sci., 2012 2(1)73-78
     doi.org/10.1002/wcms.81
  4. Izsak,R.; Neese,F.; Klopper,W.
     Robust fitting techniques in the chain of spheres approximation to the Fock exchange: The role of the complementary space
     J. Chem. Phys., 2013 139 
     doi.org/10.1063/1.4819264
  5. Neese,F.
     Software update: the ORCA program system, version 4.0
     WIRES Comput. Molec. Sci., 2018 8(1)1-6
     doi.org/10.1002/wcms.1327
  6. Neese,F.; Wennmohs,F.; Becker,U.; Riplinger,C.
     The ORCA quantum chemistry program package
     J. Chem. Phys., 2020 152 Art. No. L224108
     doi.org/10.1063/5.0004608
  7. Wittmann,L.; Neugebauer,H.; Grimme,S.; Bursch,M.
     Dispersion-corrected r2SCAN based double-hybrid functionals
     J. Chem. Phys., 2023 159(22)224103
     doi.org/10.1063/5.0174988

List of optional additional citations

  1. Neese,F.
     Approximate second-order SCF convergence for spin unrestricted wavefunctions
     Chem. Phys. Lett., 2000 325(1-3)93-98
     doi.org/10.1016/s0009-2614(00)00662-x

Timings for individual modules:

Sum of individual times          ...     5437.660 sec (=  90.628 min)
Startup calculation              ...      263.522 sec (=   4.392 min)   4.8 %
SCF iterations                   ...     3867.611 sec (=  64.460 min)  71.1 %
Property calculations            ...        0.944 sec (=   0.016 min)   0.0 %
SCF Gradient evaluation          ...     1304.294 sec (=  21.738 min)  24.0 %
Geometry relaxation              ...        1.289 sec (=   0.021 min)   0.0 %
                             ****ORCA TERMINATED NORMALLY****
TOTAL RUN TIME: 0 days 1 hours 31 minutes 23 seconds 270 msec
