
                                 *****************
                                 * O   R   C   A *
                                 *****************

                                            #,                                       
                                            ###                                      
                                            ####                                     
                                            #####                                    
                                            ######                                   
                                           ########,                                 
                                     ,,################,,,,,                         
                               ,,#################################,,                 
                          ,,##########################################,,             
                       ,#########################################, ''#####,          
                    ,#############################################,,   '####,        
                  ,##################################################,,,,####,       
                ,###########''''           ''''###############################       
              ,#####''   ,,,,##########,,,,          '''####'''          '####       
            ,##' ,,,,###########################,,,                        '##       
           ' ,,###''''                  '''############,,,                           
         ,,##''                                '''############,,,,        ,,,,,,###''
      ,#''                                            '''#######################'''  
     '                                                          ''''####''''         
             ,#######,   #######,   ,#######,      ##                                
            ,#'     '#,  ##    ##  ,#'     '#,    #''#        ,####,   ,####,        
            ##       ##  ##   ,#'  ##            #'  '#       #'       #'  '#        
            ##       ##  #######   ##           ,######,      #####,   #    #        
            '#,     ,#'  ##    ##  '#,     ,#' ,#      #,     #,   #   #,  ,#        
             '#######'   ##     ##  '#######'  #'      '#     '####' # '####'        



                #########################################################
                #                        -***-                          #
                #          Department of theory and spectroscopy        #
                #                                                       #
                #                      Frank Neese                      #
                #                                                       #
                #     Directorship, Architecture, Infrastructure        #
                #                    SHARK, DRIVERS                     #
                #        Core code/Algorithms in most modules           #
                #                                                       #
                #        Max Planck Institute fuer Kohlenforschung      #
                #                Kaiser Wilhelm Platz 1                 #
                #                 D-45470 Muelheim/Ruhr                 #
                #                      Germany                          #
                #                                                       #
                #                  All rights reserved                  #
                #                        -***-                          #
                #########################################################


                         Program Version 6.0.1  -  RELEASE   -


 With contributions from (in alphabetic order):
[Max-Planck-Institut fuer Kohlenforschung]                               
  Daniel Aravena         : Magnetic Suceptibility                        
  Michael Atanasov       : Ab Initio Ligand Field Theory (pilot matlab implementation)
  Alexander A. Auer      : GIAO ZORA, VPT2 properties, NMR spectrum      
  Ute Becker             : All parallelization in ORCA, NUMFREQ, NUMCALC 
  Giovanni Bistoni       : ED, misc. LED, open-shell LED, HFLD           
  Martin Brehm           : Molecular dynamics                            
  Dmytro Bykov           : pre 5.0 version of the SCF Hessian            
  Marcos Casanova-Páez   : Triplet and SCS-CIS(D). UHF-(DLPNO)-IP/EA/STEOM-CCSD. UHF-CVS-IP/STEOM-CCSD   
  Vijay G. Chilkuri      : MRCI spin determinant printing, contributions to CSF-ICE 
  Pauline Colinet        : FMM embedding                                 
  Dipayan Datta          : RHF DLPNO-CCSD density                        
  Achintya Kumar Dutta   : EOM-CC, STEOM-CC                              
  Nicolas Foglia         : Exact transition moments, OPA infrastructure, MCD improvements    
  Dmitry Ganyushin       : Spin-Orbit,Spin-Spin,Magnetic field MRCI      
  Miquel Garcia-Rates    : C-PCM and meta-GGA Hessian, CCSD/C-PCM, Gaussian charge scheme 
  Tiago L. C. Gouveia    : GS-ROHF, GS-ROCIS                             
  Yang Guo               : DLPNO-NEVPT2, F12-NEVPT2, CIM, IAO-localization        
  Andreas Hansen         : Spin unrestricted coupled pair/coupled cluster methods 
  Ingolf Harden          : AUTO-CI MPn and infrastructure                
  Benjamin Helmich-Paris : MC-RPA, TRAH-(SCF,CASSCF), AVAS, COSX integrals, SCF dyn. polar. 
  Lee Huntington         : MR-EOM, pCC                                   
  Robert Izsak           : Overlap fitted RIJCOSX, COSX-SCS-MP3, EOM     
  Riya Kayal             : Wick's Theorem for AUTO-CI, AUTO-CI UHF-CCSDT 
  Emily Kempfer          : AUTO-CI, RHF CISDT and CCSDT                  
  Christian Kollmar      : KDIIS, OOCD, Brueckner-CCSD(T), CCSD density, CASPT2, CASPT2-K, improved NEVPT2 
  Axel Koslowski         : Symmetry handling                             
  Simone Kossmann        : meta-GGA functionals, TD-DFT gradient, OOMP2, (MP2 Hessian; deprecated post 5.0) 
  Lucas Lang             : DCDCAS                                        
  Marvin Lechner         : AUTO-CI (C++ implementation), FIC-MRCC        
  Spencer Leger          : CASSCF response                               
  Dagmar Lenk            : GEPOL surface, SMD, ORCA-2-JSON               
  Dimitrios Liakos       : Extrapolation schemes; Compound Job, initial MDCI parallelization 
  Dimitrios Manganas     : Further ROCIS development; embedding schemes. LFT, Crystal Embedding 
  Dimitrios Pantazis     : SARC Basis sets                               
  Anastasios Papadopoulos: AUTO-CI, single reference methods and gradients 
  Taras Petrenko         : pre 6.0 DFT Hessian and TD-DFT gradient, (ASA, deprecated), ECA, 1-Electron XAS/XES, NRVS 
  Peter Pinski           : DLPNO-MP2, DLPNO-MP2 Gradient                 
  Christoph Reimann      : Effective Core Potentials                     
  Marius Retegan         : Local ZFS, SOC                                
  Christoph Riplinger    : Optimizer, TS searches, QM/MM, DLPNO-CCSD(T), (RO)-DLPNO pert. Triples 
  Michael Roemelt        : Original ROCIS implementation                 
  Masaaki Saitow         : Open-shell DLPNO-CCSD energy and density      
  Barbara Sandhoefer     : DKH picture change effects                    
  Kantharuban Sivalingam : CASSCF convergence/infrastructure, NEVPT2 and variants, FIC-MRCI 
  Bernardo de Souza      : ESD, SOC TD-DFT                               
  Georgi L. Stoychev     : AutoAux, RI-MP2 NMR, DLPNO-MP2 response, X2C  
  Van Anh Tran           : RI-MP2 g-tensors                              
  Willem Van den Heuvel  : Paramagnetic NMR                              
  Zikuan Wang            : NOTCH, Electric field optimization            
  Frank Wennmohs         : Technical directorship and infrastructure     
  Hang Xu                : AUTO-CI-Response properties                   
                                                                         
[FACCTs GmbH]                                                            
  Markus Bursch, Miquel Garcia-Rates, Christoph Riplinger, Bernardo de Souza, Georgi L. Stoychev 
                                                                 
  APM, Basis sets (HGBS, AHGBS, def-TZVP (Ac-Lr), def2-XVPD (La-Lu)), CI-OPT, improved COSX, DLPNO-Multilevel,           
  DOCKER, DRACO, updates on ESD, GOAT, IRC, LR-CPCM, MBIS, meta-GGA TD-DFT gradient, ML-optimized integration grids, 
  MM, NACMEs, nearIR, NEB, NEB-TS, NL-DFT gradient (VV10), 2- and 3-layer-ONIOM, interface openCOSMO-RS, QMMM,   
  Crystal-QMMM, SF, symmetry and pop. for TD-DFT, r2SCAN hybrids, SOLVATOR                                   
                                                                         
[Other institutions]                                                     
  V. Asgeirsson          : NEB                                           
  Christoph Bannwarth    : sTDA-DFT, sTD-DFT, PBEh-3c, B97-3c, D3        
  Sebastian Ehlert       : rSCAN, r2SCAN, r2SCAN-3c, D4, dhf basis sets  
  Marvin Friede          : D4 for Fr, Ra, Ac-Lr                          
  Lars Goerigk           : TD-DFT with DH, B97 family of functionals     
  Stefan Grimme          : VdW corrections, initial TS optimization, DFT functionals, gCP, sTDA/sTD-DF 
  Waldemar Hujo          : DFT-NL                                        
  H. Jonsson             : NEB                                           
  Holger Kruse           : gCP                                           
  Marcel Mueller         : wB97X-3c, vDZP basis set                      
  Hagen Neugebauer       : wr2SCAN                                       
  Tobias Risthaus        : range-separated hybrid DFT                    
  Lukas Wittmann         : regularized MP2, r2SCAN double-hybrids, wr2SCAN        
                                                                         
We gratefully acknowledge several colleagues who have allowed us to      
interface, adapt or use parts of their codes:                            
  Ed Valeev, F. Pavosevic, A. Kumar             : LibInt (2-el integral package), F12 methods 
  Garnet Chan, S. Sharma, J. Yang, R. Olivares  : DMRG                   
  Ulf Ekstrom                                   : XCFun DFT Library      
  Mihaly Kallay                                 : mrcc  (arbitrary order and MRCC methods)
  Frank Weinhold                                : gennbo (NPA and NBO analysis)           
  Simon Mueller                                 : openCOSMO-RS                            
  Christopher J. Cramer and Donald G. Truhlar   : smd solvation model                     
  S Lehtola, MJT Oliveira, MAL Marques          : LibXC Library                           
  Liviu Ungur et al                             : ANISO software                          


 Your calculation uses the libint2 library for the computation of 2-el integrals
 For citations please refer to: http://libint.valeyev.net

 Your ORCA version has been built with support for libXC version: 6.2.2
 For citations please refer to: https://libxc.gitlab.io

 This ORCA versions uses:
   CBLAS   interface :  Fast vector & matrix operations
   LAPACKE interface :  Fast linear algebra routines
   SCALAPACK package :  Parallel linear algebra routines
   Shared memory     :  Shared parallel matrices
   BLAS/LAPACK       :  OpenBLAS 0.3.27  USE64BITINT DYNAMIC_ARCH NO_AFFINITY SkylakeX SINGLE_THREADED
        Core in use  :  SkylakeX
   Copyright (c) 2011-2014, The OpenBLAS Project


NOTE: MaxCore=8000 MB was set to SCF,MP2,MDCI,CIPSI,MRCI and CIS
      => If you want to overwrite this, your respective input block should be placed after the MaxCore statement
Your calculation utilizes the atom-pairwise dispersion correction
with the Becke-Johnson damping scheme (D3BJ)


Your calculation utilizes the SMD solvation module
Please cite in your paper:
A.V. Marenich, C.J. Cramer, D.G. Truhlar J. Phys. Chem. B, 113, (2009), 6378 

Warning: RI is on but no J-basis has been assigned. Assigning Def2/J (nothing to worry about!)
================================================================================

----- Orbital basis set information -----
Your calculation utilizes the basis: def2-TZVP
   F. Weigend and R. Ahlrichs, Phys. Chem. Chem. Phys. 7, 3297 (2005).

----- AuxJ basis set information -----
Your calculation utilizes the auxiliary basis: def2/J
   F. Weigend, Phys. Chem. Chem. Phys. 8, 1057 (2006).

================================================================================
                                        WARNINGS
                       Please study these warnings very carefully!
================================================================================


WARNING: your system is open-shell and RHF/RKS was chosen
  ===> : WILL SWITCH to UHF/UKS


================================================================================
                                       INPUT FILE
================================================================================
NAME = rf_mecn_freq_TP_P_B.inp
|  1> !TPSSh def2-TZVP freq d3 TightSCF SlowConv defgrid2
|  2>  
|  3> %pal
|  4> nprocs 20
|  5> end
|  6>  
|  7> %scf
|  8> MaxIter 1500
|  9> end
| 10>  
| 11> %maxcore 8000
| 12>  
| 13> !CPCM
| 14> %cpcm smd true
| 15> SMDsolvent "ACETONITRILE"
| 16> end
| 17>  
| 18> * xyz -1 2
| 19> 6        4.875657000      0.076205000     -0.271273000
| 20> 8        5.265071000     -0.207387000     -1.438759000
| 21> 8        5.262338000      1.301339000      0.324235000
| 22> 1        5.776423000      1.744204000     -0.371072000
| 23> 6        3.593494000     -0.413055000      0.297990000
| 24> 6        2.244133000      0.219088000     -0.202147000
| 25> 6        0.886399000     -0.452572000      0.186412000
| 26> 6       -0.393504000      0.423787000     -0.021534000
| 27> 6       -1.739674000     -0.378091000     -0.028539000
| 28> 6       -3.006342000      0.508771000      0.208423000
| 29> 6       -4.357197000     -0.161683000     -0.199230000
| 30> 9        3.464227000     -1.768109000      0.024066000
| 31> 9        3.568254000     -0.254888000      1.676417000
| 32> 9        2.202429000      1.509604000      0.245673000
| 33> 9        2.282993000      0.250895000     -1.565559000
| 34> 9        0.741311000     -1.584227000     -0.551528000
| 35> 9        0.923612000     -0.800870000      1.498512000
| 36> 9       -0.451512000      1.344083000      0.970581000
| 37> 9       -0.297462000      1.074910000     -1.205716000
| 38> 9       -1.704296000     -1.317040000      0.945035000
| 39> 9       -1.866620000     -1.002511000     -1.221139000
| 40> 9       -2.896029000      1.655381000     -0.499780000
| 41> 9       -3.084133000      0.815741000      1.519722000
| 42> 9       -4.463073000     -1.383733000      0.333885000
| 43> 9       -5.366244000      0.590581000      0.254509000
| 44> 9       -4.465284000     -0.256681000     -1.526307000
| 45> *
| 46> 
| 47>                          ****END OF INPUT****
================================================================================

                       ****************************
                       * Single Point Calculation *
                       ****************************

---------------------------------
CARTESIAN COORDINATES (ANGSTROEM)
---------------------------------
  C      4.875657    0.076205   -0.271273
  O      5.265071   -0.207387   -1.438759
  O      5.262338    1.301339    0.324235
  H      5.776423    1.744204   -0.371072
  C      3.593494   -0.413055    0.297990
  C      2.244133    0.219088   -0.202147
  C      0.886399   -0.452572    0.186412
  C     -0.393504    0.423787   -0.021534
  C     -1.739674   -0.378091   -0.028539
  C     -3.006342    0.508771    0.208423
  C     -4.357197   -0.161683   -0.199230
  F      3.464227   -1.768109    0.024066
  F      3.568254   -0.254888    1.676417
  F      2.202429    1.509604    0.245673
  F      2.282993    0.250895   -1.565559
  F      0.741311   -1.584227   -0.551528
  F      0.923612   -0.800870    1.498512
  F     -0.451512    1.344083    0.970581
  F     -0.297462    1.074910   -1.205716
  F     -1.704296   -1.317040    0.945035
  F     -1.866620   -1.002511   -1.221139
  F     -2.896029    1.655381   -0.499780
  F     -3.084133    0.815741    1.519722
  F     -4.463073   -1.383733    0.333885
  F     -5.366244    0.590581    0.254509
  F     -4.465284   -0.256681   -1.526307

----------------------------
CARTESIAN COORDINATES (A.U.)
----------------------------
  NO LB      ZA    FRAG     MASS         X           Y           Z
   0 C     6.0000    0    12.011    9.213656    0.144007   -0.512632
   1 O     8.0000    0    15.999    9.949542   -0.391905   -2.718860
   2 O     8.0000    0    15.999    9.944378    2.459174    0.612715
   3 H     1.0000    0     1.008   10.915858    3.296068   -0.701224
   4 C     6.0000    0    12.011    6.790720   -0.780561    0.563119
   5 C     6.0000    0    12.011    4.240797    0.414016   -0.382002
   6 C     6.0000    0    12.011    1.675051   -0.855237    0.352268
   7 C     6.0000    0    12.011   -0.743615    0.800841   -0.040693
   8 C     6.0000    0    12.011   -3.287507   -0.714488   -0.053931
   9 C     6.0000    0    12.011   -5.681163    0.961438    0.393862
  10 C     6.0000    0    12.011   -8.233909   -0.305537   -0.376490
  11 F     9.0000    0    18.998    6.546440   -3.341242    0.045478
  12 F     9.0000    0    18.998    6.743023   -0.481669    3.167969
  13 F     9.0000    0    18.998    4.161988    2.852738    0.464255
  14 F     9.0000    0    18.998    4.314232    0.474123   -2.958478
  15 F     9.0000    0    18.998    1.400875   -2.993755   -1.042237
  16 F     9.0000    0    18.998    1.745374   -1.513425    2.831777
  17 F     9.0000    0    18.998   -0.853234    2.539949    1.834132
  18 F     9.0000    0    18.998   -0.562122    2.031286   -2.278473
  19 F     9.0000    0    18.998   -3.220653   -2.488845    1.785857
  20 F     9.0000    0    18.998   -3.527401   -1.894471   -2.307618
  21 F     9.0000    0    18.998   -5.472702    3.128217   -0.944447
  22 F     9.0000    0    18.998   -5.828167    1.541527    2.871858
  23 F     9.0000    0    18.998   -8.433986   -2.614876    0.630951
  24 F     9.0000    0    18.998  -10.140732    1.116036    0.480952
  25 F     9.0000    0    18.998   -8.438164   -0.485057   -2.884302

--------------------------------
INTERNAL COORDINATES (ANGSTROEM)
--------------------------------
 C      0   0   0     0.000000000000     0.00000000     0.00000000
 O      1   0   0     1.262969218174     0.00000000     0.00000000
 O      1   2   0     1.416017405183   119.92283330     0.00000000
 H      3   1   2     0.971526952636   103.76332353     2.43363574
 C      1   2   3     1.485724627695   123.11565651   150.52575497
 C      5   1   2     1.571787803598   119.11115579   286.26280056
 C      6   5   1     1.563824436066   119.57443358   168.95664936
 C      7   6   5     1.565055374486   115.88160676   164.52402580
 C      8   7   6     1.566917695927   114.62158412   163.13634310
 C      9   8   7     1.564328296334   113.88115886   162.06352961
 C     10   9   8     1.562209577986   114.66643529   163.02050694
 F      5   1   2     1.388494025187   109.03405746    45.90346656
 F      5   1   2     1.387701283352   111.02388268   164.51147029
 F      6   5   1     1.366643158353   107.56028093   291.54273159
 F      6   5   1     1.364336493169   107.63214931    47.50008397
 F      7   6   5     1.358767460005   108.38950657   285.90602118
 F      7   6   5     1.358051072005   109.05177422    43.61175208
 F      8   7   6     1.354474742808   108.55178516   284.35883473
 F      8   7   6     1.354796012696   109.10368280    42.37919612
 F      9   8   7     1.353042187428   109.23565431    41.50206923
 F      9   8   7     1.352150281336   108.71908235   283.31722673
 F     10   9   8     1.352196339027   109.59321544    42.26985875
 F     10   9   8     1.348994843571   108.84117798   283.49836258
 F     11  10   9     1.337470572798   110.88983817    50.29909287
 F     11  10   9     1.337892392544   108.80557155   169.67357032
 F     11  10   9     1.334856090933   111.09935918   288.97042712

---------------------------
INTERNAL COORDINATES (A.U.)
---------------------------
 C      0   0   0     0.000000000000     0.00000000     0.00000000
 O      1   0   0     2.386665937922     0.00000000     0.00000000
 O      1   2   0     2.675885096662   119.92283330     0.00000000
 H      3   1   2     1.835919872206   103.76332353     2.43363574
 C      1   2   3     2.807612656765   123.11565651   150.52575497
 C      5   1   2     2.970248489438   119.11115579   286.26280056
 C      6   5   1     2.955199905698   119.57443358   168.95664936
 C      7   6   5     2.957526042199   115.88160676   164.52402580
 C      8   7   6     2.961045319697   114.62158412   163.13634310
 C      9   8   7     2.956152063615   113.88115886   162.06352961
 C     10   9   8     2.952148266182   114.66643529   163.02050694
 F      5   1   2     2.623873446190   109.03405746    45.90346656
 F      5   1   2     2.622375381227   111.02388268   164.51147029
 F      6   5   1     2.582581292084   107.56028093   291.54273159
 F      6   5   1     2.578222326604   107.63214931    47.50008397
 F      7   6   5     2.567698379094   108.38950657   285.90602118
 F      7   6   5     2.566344601967   109.05177422    43.61175208
 F      8   7   6     2.559586319221   108.55178516   284.35883473
 F      8   7   6     2.560193431324   109.10368280    42.37919612
 F      9   8   7     2.556879181881   109.23565431    41.50206923
 F      9   8   7     2.555193723629   108.71908235   283.31722673
 F     10   9   8     2.555280760052   109.59321544    42.26985875
 F     10   9   8     2.549230810422   108.84117798   283.49836258
 F     11  10   9     2.527453094767   110.88983817    50.29909287
 F     11  10   9     2.528250218564   108.80557155   169.67357032
 F     11  10   9     2.522512440061   111.09935918   288.97042712

---------------------
BASIS SET INFORMATION
---------------------
There are 4 groups of distinct atoms

 Group   1 Type C   : 11s6p2d1f contracted to 5s3p2d1f pattern {62111/411/11/1}
 Group   2 Type O   : 11s6p2d1f contracted to 5s3p2d1f pattern {62111/411/11/1}
 Group   3 Type H   : 5s1p contracted to 3s1p pattern {311/1}
 Group   4 Type F   : 11s6p2d1f contracted to 5s3p2d1f pattern {62111/411/11/1}

Atom   0C    basis set group =>   1
Atom   1O    basis set group =>   2
Atom   2O    basis set group =>   2
Atom   3H    basis set group =>   3
Atom   4C    basis set group =>   1
Atom   5C    basis set group =>   1
Atom   6C    basis set group =>   1
Atom   7C    basis set group =>   1
Atom   8C    basis set group =>   1
Atom   9C    basis set group =>   1
Atom  10C    basis set group =>   1
Atom  11F    basis set group =>   4
Atom  12F    basis set group =>   4
Atom  13F    basis set group =>   4
Atom  14F    basis set group =>   4
Atom  15F    basis set group =>   4
Atom  16F    basis set group =>   4
Atom  17F    basis set group =>   4
Atom  18F    basis set group =>   4
Atom  19F    basis set group =>   4
Atom  20F    basis set group =>   4
Atom  21F    basis set group =>   4
Atom  22F    basis set group =>   4
Atom  23F    basis set group =>   4
Atom  24F    basis set group =>   4
Atom  25F    basis set group =>   4
---------------------------------
AUXILIARY/J BASIS SET INFORMATION
---------------------------------
There are 4 groups of distinct atoms

 Group   1 Type C   : 12s5p4d2f1g contracted to 6s4p3d1f1g pattern {711111/2111/211/2/1}
 Group   2 Type O   : 12s5p4d2f1g contracted to 6s4p3d1f1g pattern {711111/2111/211/2/1}
 Group   3 Type H   : 5s2p1d contracted to 3s1p1d pattern {311/2/1}
 Group   4 Type F   : 12s5p4d2f1g contracted to 6s4p3d1f1g pattern {711111/2111/211/2/1}

Atom   0C    basis set group =>   1
Atom   1O    basis set group =>   2
Atom   2O    basis set group =>   2
Atom   3H    basis set group =>   3
Atom   4C    basis set group =>   1
Atom   5C    basis set group =>   1
Atom   6C    basis set group =>   1
Atom   7C    basis set group =>   1
Atom   8C    basis set group =>   1
Atom   9C    basis set group =>   1
Atom  10C    basis set group =>   1
Atom  11F    basis set group =>   4
Atom  12F    basis set group =>   4
Atom  13F    basis set group =>   4
Atom  14F    basis set group =>   4
Atom  15F    basis set group =>   4
Atom  16F    basis set group =>   4
Atom  17F    basis set group =>   4
Atom  18F    basis set group =>   4
Atom  19F    basis set group =>   4
Atom  20F    basis set group =>   4
Atom  21F    basis set group =>   4
Atom  22F    basis set group =>   4
Atom  23F    basis set group =>   4
Atom  24F    basis set group =>   4
Atom  25F    basis set group =>   4


           ************************************************************
           *        Program running with 20 parallel MPI-processes    *
           *              working on a common directory               *
           ************************************************************
------------------------------------------------------------------------------
                             ORCA STARTUP CALCULATIONS
                           -- RI-GTO INTEGRALS CHOSEN --
------------------------------------------------------------------------------
------------------------------------------------------------------------------
                   ___                                                        
                  /   \      - P O W E R E D   B Y -                         
                 /     \                                                     
                 |  |  |   _    _      __       _____    __    __             
                 |  |  |  | |  | |    /  \     |  _  \  |  |  /  |          
                  \  \/   | |  | |   /    \    | | | |  |  | /  /          
                 / \  \   | |__| |  /  /\  \   | |_| |  |  |/  /          
                |  |  |   |  __  | /  /__\  \  |    /   |      \           
                |  |  |   | |  | | |   __   |  |    \   |  |\   \          
                \     /   | |  | | |  |  |  |  | |\  \  |  | \   \       
                 \___/    |_|  |_| |__|  |__|  |_| \__\ |__|  \__/        
                                                                              
                      - O R C A' S   B I G   F R I E N D -                    
                                      &                                       
                       - I N T E G R A L  F E E D E R -                       
                                                                              
 v1 FN, 2020, v2 2021, v3 2022-2024                                           
------------------------------------------------------------------------------


----------------------
SHARK INTEGRAL PACKAGE
----------------------

Number of atoms                             ...     26
Number of basis functions                   ...    781
Number of shells                            ...    279
Maximum angular momentum                    ...      3
Integral batch strategy                     ... SHARK/LIBINT Hybrid
RI-J (if used) integral strategy            ... SPLIT-RIJ (Revised 2003 algorithm where possible)
Printlevel                                  ...      1
Contraction scheme used                     ... SEGMENTED contraction
Prescreening option                         ... SCHWARTZ
   Thresh                                   ... 2.500e-11
   Tcut                                     ... 2.500e-12
   Tpresel                                  ... 2.500e-12 
Coulomb Range Separation                    ... NOT USED
Exchange Range Separation                   ... NOT USED
Multipole approximations                    ... NOT USED
Finite Nucleus Model                        ... NOT USED
CABS basis                                  ... NOT available
Auxiliary Coulomb fitting basis             ... AVAILABLE
   # of basis functions in Aux-J            ...   1236
   # of shells in Aux-J                     ...    380
   Maximum angular momentum in Aux-J        ...      4
Auxiliary J/K fitting basis                 ... NOT available
Auxiliary Correlation fitting basis         ... NOT available
Auxiliary 'external' fitting basis          ... NOT available

Checking pre-screening integrals            ... done (  0.0 sec) Dimension = 279
Check shell pair data                       ... done (  0.0 sec)
Shell pair information
Shell pair cut-off parameter TPreSel        ...   2.5e-12
Total number of shell pairs                 ...     39060
Shell pairs after pre-screening             ...     23811
Total number of primitive shell pairs       ...    128824
Primitive shell pairs kept                  ...     50447
          la=0 lb=0:   4539 shell pairs
          la=1 lb=0:   6509 shell pairs
          la=1 lb=1:   2256 shell pairs
          la=2 lb=0:   3536 shell pairs
          la=2 lb=1:   2588 shell pairs
          la=2 lb=2:    721 shell pairs
          la=3 lb=0:   1595 shell pairs
          la=3 lb=1:   1242 shell pairs
          la=3 lb=2:    668 shell pairs
          la=3 lb=3:    157 shell pairs

Calculating one electron integrals          ... done (  0.0 sec)
Calculating RI/J V-Matrix + Cholesky decomp.... done (  0.1 sec)
Calculating Nuclear repulsion               ... done (  0.0 sec) ENN=   2882.599922033541 Eh

Diagonalization of the overlap matrix:
Smallest eigenvalue                        ... 6.202e-05
Time for diagonalization                   ...    0.114 sec
Threshold for overlap eigenvalues          ... 1.000e-07
Number of eigenvalues below threshold      ... 0
Time for construction of square roots      ...    0.047 sec
Total time needed                          ...    0.166 sec

-------------------
DFT GRID GENERATION
-------------------

General Integration Accuracy     IntAcc      ... 4.388
Radial Grid Type                 RadialGrid  ... OptM3 with GC (2021)
Angular Grid (max. ang.)         AngularGrid ... 4 (Lebedev-302)
Angular grid pruning method      GridPruning ... 4 (adaptive)
Weight generation scheme         WeightScheme... mBecke (2022)
Basis function cutoff            BFCut       ... 1.0000e-11
Integration weight cutoff        WCut        ... 1.0000e-14
Partially contracted basis set               ... off
Rotationally invariant grid construction     ... off
Angular grids for H and He will be reduced by one unit

Total number of grid points                  ...   154716
Total number of batches                      ...     2430
Average number of points per batch           ...       63
Average number of grid points per atom       ...     5951

--------------------
COSX GRID GENERATION
--------------------

GRIDX 1
-------
General Integration Accuracy     IntAcc      ... 3.816
Radial Grid Type                 RadialGrid  ... OptM3 with GC (2021)
Angular Grid (max. ang.)         AngularGrid ... 1 (Lebedev-50)
Angular grid pruning method      GridPruning ... 4 (adaptive)
Weight generation scheme         WeightScheme... mBecke (2022)
Basis function cutoff            BFCut       ... 1.0000e-11
Integration weight cutoff        WCut        ... 1.0000e-14
Partially contracted basis set               ... on
Rotationally invariant grid construction     ... off
Angular grids for H and He will be reduced by one unit

Total number of grid points                  ...    19422
Total number of batches                      ...      163
Average number of points per batch           ...      119
Average number of grid points per atom       ...      747
UseSFitting                                  ... on

GRIDX 2
-------
General Integration Accuracy     IntAcc      ... 4.020
Radial Grid Type                 RadialGrid  ... OptM3 with GC (2021)
Angular Grid (max. ang.)         AngularGrid ... 2 (Lebedev-110)
Angular grid pruning method      GridPruning ... 4 (adaptive)
Weight generation scheme         WeightScheme... mBecke (2022)
Basis function cutoff            BFCut       ... 1.0000e-11
Integration weight cutoff        WCut        ... 1.0000e-14
Partially contracted basis set               ... on
Rotationally invariant grid construction     ... off
Angular grids for H and He will be reduced by one unit

Total number of grid points                  ...    45831
Total number of batches                      ...      374
Average number of points per batch           ...      122
Average number of grid points per atom       ...     1763
UseSFitting                                  ... on

GRIDX 3
-------
General Integration Accuracy     IntAcc      ... 4.338
Radial Grid Type                 RadialGrid  ... OptM3 with GC (2021)
Angular Grid (max. ang.)         AngularGrid ... 3 (Lebedev-194)
Angular grid pruning method      GridPruning ... 4 (adaptive)
Weight generation scheme         WeightScheme... mBecke (2022)
Basis function cutoff            BFCut       ... 1.0000e-11
Integration weight cutoff        WCut        ... 1.0000e-14
Partially contracted basis set               ... on
Rotationally invariant grid construction     ... off
Angular grids for H and He will be reduced by one unit

Total number of grid points                  ...   101462
Total number of batches                      ...      804
Average number of points per batch           ...      126
Average number of grid points per atom       ...     3902
UseSFitting                                  ... on
Initializing property integral containers    ... done (  0.0 sec)

SHARK setup successfully completed in   3.4 seconds

Maximum memory used throughout the entire STARTUP-calculation: 60.9 MB


           ************************************************************
           *        Program running with 20 parallel MPI-processes    *
           *              working on a common directory               *
           ************************************************************
-------------------------------------------------------------------------------
                                 ORCA GUESS
                   Start orbitals & Density for SCF / CASSCF
-------------------------------------------------------------------------------

------------
SCF SETTINGS
------------
Hamiltonian:
 Density Functional     Method          .... DFT(GTOs)
 Exchange Functional    Exchange        .... TPSS
 Correlation Functional Correlation     .... TPSS
 LDA part of GGA corr.  LDAOpt          .... PW91-LDA
 Gradients option       PostSCFGGA      .... off
 Hybrid DFT is turned on
   Fraction HF Exchange ScalHFX         ....  0.100000
   Scaling of DF-GGA-X  ScalDFX         ....  0.900000
   Scaling of DF-GGA-C  ScalDFC         ....  1.000000
   Scaling of DF-LDA-C  ScalLDAC        ....  1.000000
   Perturbative correction              ....  0.000000
   NL short-range parameter             ....  5.200000
 RI-approximation to the Coulomb term is turned on
   Number of AuxJ basis functions       .... 1236
   RIJ-COSX (HFX calculated with COS-X)).... on


General Settings:
 Integral files         IntName         .... rf_mecn_freq_TP_P_B
 Hartree-Fock type      HFTyp           .... UHF
 Total Charge           Charge          ....   -1
 Multiplicity           Mult            ....    2
 Number of Electrons    NEL             ....  201
 Basis Dimension        Dim             ....  781
 Nuclear Repulsion      ENuc            ....   2882.5999220335 Eh

Convergence Acceleration:
 AO-DIIS                CNVDIIS         .... on
   Start iteration      DIISMaxIt       ....     0
   Startup error        DIISStart       ....  0.200000
   # of expansion vecs  DIISMaxEq       ....     5
   Bias factor          DIISBfac        ....   1.050
   Max. coefficient     DIISMaxC        ....  10.000
 MO-DIIS                CNVKDIIS        .... off
 Trust-Rad. Augm. Hess. CNVTRAH         .... auto
   Auto Start mean grad. ratio tolernc. ....  1.125000
   Auto Start start iteration           ....    50
   Auto Start num. interpolation iter.  ....    10
   Max. Number of Micro iterations      ....    24
   Max. Number of Macro iterations      .... Maxiter - #DIIS iter
   Number of Davidson start vectors     ....     2
   Converg. threshold    (grad. norm)   ....   1.000e-05
   Grad. Scal. Fac. for Micro threshold ....   0.100
   Minimum threshold for Micro iter.    ....   1.000e-02
   NR start threshold (gradient norm)   ....   1.000e-04
   Initial trust radius                 ....   0.400
   Minimum AH scaling param. (alpha)    ....   1.000
   Maximum AH scaling param. (alpha)    .... 1000.000
   Quad. conv. algorithm                .... NR
   White noise on init. David. guess    .... on
   Maximum white noise                  ....   0.010
   Pseudo random numbers                .... off
   Inactive MOs                         .... canonical
   Orbital update algorithm             .... Taylor
   Preconditioner                       .... Diag
   Full preconditioner red. dimension   ....   250
 SOSCF                  CNVSOSCF        .... on
   Start iteration      SOSCFMaxIt      ....   150
   Startup grad/error   SOSCFStart      ....  0.001000
   Hessian update       SOSCFHessUp     .... L-BFGS
 Level Shifting         CNVShift        .... on
   Level shift para.    LevelShift      ....    0.2500
   Turn off err/grad.   ShiftErr        ....    0.0000
 Zerner damping         CNVZerner       .... off
 Static damping         CNVDamp         .... on
   Fraction old density DampFac         ....    0.8500
   Max. Damping (<1)    DampMax         ....    0.9800
   Min. Damping (>=0)   DampMin         ....    0.0000
   Turn off err/grad.   DampErr         ....    0.0300

SCF Procedure:
 Maximum # iterations   MaxIter         ....  1500
 SCF integral mode      SCFMode         .... Direct
   Integral package                     .... SHARK and LIBINT hybrid scheme
 Reset frequency        DirectResetFreq ....    20
 Integral Threshold     Thresh          ....  2.500e-11 Eh
 Primitive CutOff       TCut            ....  2.500e-12 Eh

Convergence Tolerance:
 Convergence Check Mode ConvCheckMode   .... Total+1el-Energy
 Convergence forced     ConvForced      .... 0
 Energy Change          TolE            ....  1.000e-08 Eh
 1-El. energy change                    ....  1.000e-05 Eh
 Orbital Gradient       TolG            ....  1.000e-05
 Orbital Rotation angle TolX            ....  1.000e-05
 DIIS Error             TolErr          ....  5.000e-07

------------------------------
INITIAL GUESS: MODEL POTENTIAL
------------------------------
Loading Hartree-Fock densities                     ... done
Calculating cut-offs                               ... done
Initializing the effective Hamiltonian             ... done
Setting up the integral package (SHARK)            ... done
Starting the Coulomb interaction                   ... done (   0.2 sec)
Making the grid                                    ... done (   0.5 sec)
Mapping shells                                     ... done
Starting the XC term evaluation                    ... done (   0.1 sec)
  promolecular density results
     # of electrons  =    199.998615790
     EX              =   -207.491750863
     EC              =     -7.026920406
     EX+EC           =   -214.518671269
Transforming the Hamiltonian                       ... done (   0.0 sec)
Diagonalizing the Hamiltonian                      ... done (   0.1 sec)
Back transforming the eigenvectors                 ... done (   0.1 sec)
Now organizing SCF variables                       ... done
                      ------------------
                      INITIAL GUESS DONE (   1.1 sec)
                      ------------------
             **** ENERGY FILE WAS UPDATED (rf_mecn_freq_TP_P_B.en.tmp) ****
Finished Guess after   1.8 sec
Maximum memory used throughout the entire GUESS-calculation: 49.3 MB


           ************************************************************
           *        Program running with 20 parallel MPI-processes    *
           *              working on a common directory               *
           ************************************************************

-------------------------------------------------------------------------------------------
                                      ORCA LEAN-SCF
                              memory conserving SCF solver
-------------------------------------------------------------------------------------------

--------------------
CPCM SOLVATION MODEL
--------------------
CPCM parameters:
  Epsilon                                         ...      35.6880
  Refrac                                          ...       1.3442
  Rsolv                                           ...       1.3000
  Surface type                                    ... GAUSSIAN VDW
  Discretization scheme                           ... Constant charge density
    Threshold for H atoms                         ...       5.0000 (charges/Ang^2)
    Threshold for non-H atoms                     ...       5.0000 (charges/Ang^2)
  Epsilon function type                           ...         CPCM
Solvent:                                          ... ACETONITRILE
SMD-CDS solvent descriptors:
  Soln                                            ...       1.3442
  Soln25                                          ...       1.3416
  Sola                                            ...       0.0700
  Solb                                            ...       0.3200
  Solg                                            ...      41.2500
  Solc                                            ...       0.0000
  Solh                                            ...       0.0000
Radii:
  Scheme                                          ... Element-dependent radii
  Radius for C  used is    3.4960 Bohr (=   1.8500 Ang.)
  Radius for O  used is    4.0969 Bohr (=   2.1680 Ang.)
  Radius for H  used is    2.2677 Bohr (=   1.2000 Ang.)
  Radius for F  used is    3.2692 Bohr (=   1.7300 Ang.)
Calculating surface                               ...        done! (  0.0s)
Cavity surface points                             ...         2180
Cavity Volume                                     ...    2181.8990
Cavity Surface-area                               ...    1122.4379
Calculating surface distance matrix               ...        done! (  0.0s)
Performing Cholesky decomposition & store         ...        done! (  0.1s)
Overall time for CPCM initialization              ...                 0.1s

----------------------------------------D-I-I-S--------------------------------------------
Iteration    Energy (Eh)           Delta-E    RMSDP     MaxDP     DIISErr   Damp  Time(sec)
-------------------------------------------------------------------------------------------
               ***  Starting incremental Fock matrix formation  ***
    1    -1953.9403359992797959     0.00e+00  5.58e-04  1.43e-01  1.70e-01  0.850   7.0
Warning: op=0 Small HOMO/LUMO gap (  -0.024) - skipping pre-diagonalization
         Will do a full diagonalization
    2    -1954.0850950636618109    -1.45e-01  8.39e-04  2.19e-01  1.14e-01  0.850   4.8
                               ***Turning on AO-DIIS***
    3    -1954.1621882325994193    -7.71e-02  5.70e-04  1.48e-01  6.13e-02  0.850   4.2
    4    -1954.2067736746780611    -4.46e-02  3.22e-04  8.29e-02  4.51e-02  0.850   4.2
    5    -1954.2381529072558806    -3.14e-02  1.67e-04  4.33e-02  3.88e-02  0.850   3.9
    6    -1954.2629877599952124    -2.48e-02  9.38e-05  2.36e-02  3.46e-02  0.850   3.9
    7    -1954.2837259357352195    -2.07e-02  7.14e-05  1.75e-02  3.03e-02  0.850   3.7
    8    -1954.3014327055620925    -1.77e-02  7.14e-05  1.93e-02  2.52e-02  0.850   3.7
    9    -1954.3163536736133210    -1.49e-02  4.70e-04  1.36e-01  2.08e-02  0.000   3.7
   10    -1954.3955556503192383    -7.92e-02  6.16e-05  9.28e-03  3.67e-03  0.000   4.0
   11    -1954.3957381413833900    -1.82e-04  4.50e-05  6.77e-03  2.20e-03  0.000   3.6
   12    -1954.3958206473548671    -8.25e-05  3.40e-05  6.46e-03  1.27e-03  0.000   3.8
                              *** Initializing SOSCF ***
---------------------------------------S-O-S-C-F--------------------------------------
Iteration    Energy (Eh)           Delta-E    RMSDP     MaxDP     MaxGrad    Time(sec)
--------------------------------------------------------------------------------------
   13    -1954.3958586258554533    -3.80e-05  3.17e-05  7.85e-03  3.30e-04     3.8
               *** Restarting incremental Fock matrix formation ***
   14    -1954.3958702062523116    -1.16e-05  6.78e-05  9.56e-03  1.40e-03     6.6
   15    -1954.3958940333900500    -2.38e-05  6.70e-05  1.86e-02  1.83e-04     5.1
   16    -1954.3958963584623234    -2.33e-06  1.96e-05  4.90e-03  2.21e-04     5.0
   17    -1954.3959011505498893    -4.79e-06  8.95e-06  2.66e-03  9.24e-05     4.5
   18    -1954.3959009417626476     2.09e-07  5.88e-06  1.86e-03  1.17e-04     4.3
   19    -1954.3959015546502087    -6.13e-07  2.53e-06  7.36e-04  2.12e-05     4.0
   20    -1954.3959015696223105    -1.50e-08  1.41e-06  3.98e-04  1.95e-05     3.7
   21    -1954.3959015861123589    -1.65e-08  1.95e-07  3.74e-05  2.10e-06     3.7
                  *** Gradient check signals convergence ***

               *****************************************************
               *                     SUCCESS                       *
               *           SCF CONVERGED AFTER  21 CYCLES          *
               *****************************************************

Recomputing exchange energy using gridx3       ... done (    7.584 sec)
Old exchange energy                            :    -20.943140544 Eh
New exchange energy                            :    -20.943142083 Eh
Exchange energy change after final integration :     -0.000001539 Eh
Total energy after final integration           :  -1954.395903125 Eh

SMD CDS free energy correction energy :                 3.54718     Kcal/mol
Total Energy after SMD CDS correction =             -1954.390250334 Eh
             **** ENERGY FILE WAS UPDATED (rf_mecn_freq_TP_P_B.en.tmp) ****

----------------
TOTAL SCF ENERGY
----------------

Total Energy       :      -1954.39025033415442 Eh          -53181.66242 eV

Components:
Nuclear Repulsion  :       2882.59992203354113 Eh           78439.53167 eV
Electronic Energy  :      -4836.91692037825487 Eh         -131619.20079 eV
One Electron Energy:      -8482.45219417449516 Eh         -230819.25883 eV
Two Electron Energy:       3645.53527379623984 Eh           99200.05803 eV
CPCM Dielectric    :         -0.07890324139743 Eh              -2.14707 eV
SMD CDS (Gcds)     :          0.00565279127360 Eh               0.15382 eV

Virial components:
Potential Energy   :      -3902.16978948682208 Eh         -106183.43823 eV
Kinetic Energy     :       1947.77953915266744 Eh           53001.77582 eV
Virial Ratio       :          2.00339397300804

DFT components:
N(Alpha)           :      100.999990662132 electrons
N(Beta)            :       99.999957319270 electrons
N(Total)           :      200.999947981402 electrons
E(X)               :     -190.328766846842 Eh       
E(C)               :       -7.077839418439 Eh       
E(XC)              :     -197.406606265281 Eh       

CPCM Solvation Model Properties:
Surface-charge          :          0.98888865026658
Corrected charge        :          1.00000000000000
Outlying charge corr.   :          0.00000670616262 Eh               0.00018 eV
Free-energy (cav+disp)  :          0.00565279127360 Eh               0.15382 eV

---------------
SCF CONVERGENCE
---------------

  Last Energy change         ...    1.6490e-08  Tolerance :   1.0000e-08
  Last MAX-Density change    ...    3.7403e-05  Tolerance :   1.0000e-07
  Last RMS-Density change    ...    1.9457e-07  Tolerance :   5.0000e-09
  Last DIIS Error            ...    3.3018e-04  Tolerance :   5.0000e-07
  Last Orbital Gradient      ...    2.1050e-06  Tolerance :   1.0000e-05
  Last Orbital Rotation      ...    2.0936e-05  Tolerance :   1.0000e-05


----------------------
UHF SPIN CONTAMINATION
----------------------

Warning: in a DFT calculation there is little theoretical justification to 
         calculate <S**2> as in Hartree-Fock theory. We will do it anyways
         but you should keep in mind that the values have only limited relevance

Expectation value of <S**2>     :     0.753985
Ideal value S*(S+1) for S=0.5   :     0.750000
Deviation                       :     0.003985

----------------
ORBITAL ENERGIES
----------------
                 SPIN UP ORBITALS
  NO   OCC          E(Eh)            E(eV) 
   0   1.0000     -24.659335      -671.0146 
   1   1.0000     -24.658406      -670.9893 
   2   1.0000     -24.657543      -670.9658 
   3   1.0000     -24.656862      -670.9473 
   4   1.0000     -24.656004      -670.9240 
   5   1.0000     -24.655126      -670.9001 
   6   1.0000     -24.654223      -670.8755 
   7   1.0000     -24.649939      -670.7589 
   8   1.0000     -24.648569      -670.7217 
   9   1.0000     -24.641116      -670.5189 
  10   1.0000     -24.639027      -670.4620 
  11   1.0000     -24.626699      -670.1265 
  12   1.0000     -24.624533      -670.0676 
  13   1.0000     -24.601588      -669.4433 
  14   1.0000     -24.600289      -669.4079 
  15   1.0000     -19.043605      -518.2028 
  16   1.0000     -18.982306      -516.5348 
  17   1.0000     -10.393638      -282.8253 
  18   1.0000     -10.340225      -281.3718 
  19   1.0000     -10.338530      -281.3257 
  20   1.0000     -10.331884      -281.1449 
  21   1.0000     -10.320370      -280.8315 
  22   1.0000     -10.300304      -280.2855 
  23   1.0000     -10.273967      -279.5689 
  24   1.0000     -10.167864      -276.6817 
  25   1.0000      -1.320088       -35.9214 
  26   1.0000      -1.292331       -35.1661 
  27   1.0000      -1.277136       -34.7526 
  28   1.0000      -1.271026       -34.5864 
  29   1.0000      -1.261509       -34.3274 
  30   1.0000      -1.244977       -33.8776 
  31   1.0000      -1.234702       -33.5980 
  32   1.0000      -1.229335       -33.4519 
  33   1.0000      -1.226104       -33.3640 
  34   1.0000      -1.219359       -33.1804 
  35   1.0000      -1.215024       -33.0625 
  36   1.0000      -1.212510       -32.9941 
  37   1.0000      -1.205527       -32.8041 
  38   1.0000      -1.189883       -32.3784 
  39   1.0000      -1.162190       -31.6248 
  40   1.0000      -1.007680       -27.4204 
  41   1.0000      -0.921580       -25.0775 
  42   1.0000      -0.817641       -22.2491 
  43   1.0000      -0.792265       -21.5586 
  44   1.0000      -0.762329       -20.7440 
  45   1.0000      -0.729700       -19.8561 
  46   1.0000      -0.692068       -18.8321 
  47   1.0000      -0.661779       -18.0079 
  48   1.0000      -0.640295       -17.4233 
  49   1.0000      -0.618031       -16.8175 
  50   1.0000      -0.614009       -16.7080 
  51   1.0000      -0.607375       -16.5275 
  52   1.0000      -0.596097       -16.2206 
  53   1.0000      -0.591135       -16.0856 
  54   1.0000      -0.589912       -16.0523 
  55   1.0000      -0.580600       -15.7989 
  56   1.0000      -0.575176       -15.6513 
  57   1.0000      -0.566733       -15.4216 
  58   1.0000      -0.560735       -15.2584 
  59   1.0000      -0.556587       -15.1455 
  60   1.0000      -0.549623       -14.9560 
  61   1.0000      -0.538638       -14.6571 
  62   1.0000      -0.535201       -14.5636 
  63   1.0000      -0.511994       -13.9321 
  64   1.0000      -0.483130       -13.1466 
  65   1.0000      -0.478327       -13.0159 
  66   1.0000      -0.473532       -12.8855 
  67   1.0000      -0.472535       -12.8583 
  68   1.0000      -0.468240       -12.7415 
  69   1.0000      -0.466801       -12.7023 
  70   1.0000      -0.459125       -12.4934 
  71   1.0000      -0.454717       -12.3735 
  72   1.0000      -0.451221       -12.2784 
  73   1.0000      -0.446082       -12.1385 
  74   1.0000      -0.443400       -12.0655 
  75   1.0000      -0.439644       -11.9633 
  76   1.0000      -0.432431       -11.7670 
  77   1.0000      -0.431278       -11.7357 
  78   1.0000      -0.426923       -11.6172 
  79   1.0000      -0.421009       -11.4562 
  80   1.0000      -0.419654       -11.4194 
  81   1.0000      -0.418840       -11.3972 
  82   1.0000      -0.416668       -11.3381 
  83   1.0000      -0.413833       -11.2610 
  84   1.0000      -0.411413       -11.1951 
  85   1.0000      -0.410473       -11.1695 
  86   1.0000      -0.405977       -11.0472 
  87   1.0000      -0.401623       -10.9287 
  88   1.0000      -0.394940       -10.7469 
  89   1.0000      -0.391798       -10.6614 
  90   1.0000      -0.387075       -10.5329 
  91   1.0000      -0.383200       -10.4274 
  92   1.0000      -0.372656       -10.1405 
  93   1.0000      -0.367887       -10.0107 
  94   1.0000      -0.365636        -9.9495 
  95   1.0000      -0.343466        -9.3462 
  96   1.0000      -0.329009        -8.9528 
  97   1.0000      -0.305948        -8.3253 
  98   1.0000      -0.265046        -7.2123 
  99   1.0000      -0.218619        -5.9489 
 100   1.0000      -0.089331        -2.4308 
 101   0.0000      -0.013613        -0.3704 
 102   0.0000      -0.000673        -0.0183 
 103   0.0000       0.031466         0.8562 
 104   0.0000       0.044842         1.2202 
 105   0.0000       0.070568         1.9202 
 106   0.0000       0.076208         2.0737 
 107   0.0000       0.094553         2.5729 
 108   0.0000       0.099679         2.7124 
 109   0.0000       0.118074         3.2130 
 110   0.0000       0.125069         3.4033 
 111   0.0000       0.132721         3.6115 

                 SPIN DOWN ORBITALS
  NO   OCC          E(Eh)            E(eV) 
   0   1.0000     -24.659334      -671.0146 
   1   1.0000     -24.658405      -670.9893 
   2   1.0000     -24.657512      -670.9650 
   3   1.0000     -24.656842      -670.9468 
   4   1.0000     -24.655999      -670.9239 
   5   1.0000     -24.655116      -670.8998 
   6   1.0000     -24.654185      -670.8745 
   7   1.0000     -24.649922      -670.7585 
   8   1.0000     -24.648509      -670.7200 
   9   1.0000     -24.641084      -670.5180 
  10   1.0000     -24.638948      -670.4599 
  11   1.0000     -24.626645      -670.1251 
  12   1.0000     -24.624452      -670.0654 
  13   1.0000     -24.601034      -669.4282 
  14   1.0000     -24.599735      -669.3928 
  15   1.0000     -19.041509      -518.1458 
  16   1.0000     -18.975177      -516.3408 
  17   1.0000     -10.393593      -282.8240 
  18   1.0000     -10.340134      -281.3694 
  19   1.0000     -10.338324      -281.3201 
  20   1.0000     -10.331496      -281.1343 
  21   1.0000     -10.319549      -280.8092 
  22   1.0000     -10.298778      -280.2440 
  23   1.0000     -10.272940      -279.5409 
  24   1.0000     -10.160099      -276.4704 
  25   1.0000      -1.320052       -35.9204 
  26   1.0000      -1.292180       -35.1620 
  27   1.0000      -1.276996       -34.7488 
  28   1.0000      -1.270904       -34.5830 
  29   1.0000      -1.261253       -34.3204 
  30   1.0000      -1.244608       -33.8675 
  31   1.0000      -1.234679       -33.5973 
  32   1.0000      -1.229294       -33.4508 
  33   1.0000      -1.226044       -33.3624 
  34   1.0000      -1.219298       -33.1788 
  35   1.0000      -1.214871       -33.0583 
  36   1.0000      -1.211158       -32.9573 
  37   1.0000      -1.205333       -32.7988 
  38   1.0000      -1.189668       -32.3725 
  39   1.0000      -1.160989       -31.5921 
  40   1.0000      -1.001107       -27.2415 
  41   1.0000      -0.911467       -24.8023 
  42   1.0000      -0.816752       -22.2249 
  43   1.0000      -0.790296       -21.5051 
  44   1.0000      -0.759326       -20.6623 
  45   1.0000      -0.726037       -19.7565 
  46   1.0000      -0.689006       -18.7488 
  47   1.0000      -0.660202       -17.9650 
  48   1.0000      -0.638263       -17.3680 
  49   1.0000      -0.617825       -16.8119 
  50   1.0000      -0.613536       -16.6952 
  51   1.0000      -0.607291       -16.5252 
  52   1.0000      -0.594521       -16.1777 
  53   1.0000      -0.589826       -16.0500 
  54   1.0000      -0.588893       -16.0246 
  55   1.0000      -0.577799       -15.7227 
  56   1.0000      -0.574845       -15.6423 
  57   1.0000      -0.564811       -15.3693 
  58   1.0000      -0.560325       -15.2472 
  59   1.0000      -0.554301       -15.0833 
  60   1.0000      -0.549176       -14.9438 
  61   1.0000      -0.537374       -14.6227 
  62   1.0000      -0.532005       -14.4766 
  63   1.0000      -0.510454       -13.8902 
  64   1.0000      -0.483034       -13.1440 
  65   1.0000      -0.478252       -13.0139 
  66   1.0000      -0.473394       -12.8817 
  67   1.0000      -0.470213       -12.7952 
  68   1.0000      -0.467906       -12.7324 
  69   1.0000      -0.466679       -12.6990 
  70   1.0000      -0.458798       -12.4845 
  71   1.0000      -0.454403       -12.3649 
  72   1.0000      -0.451101       -12.2751 
  73   1.0000      -0.445925       -12.1342 
  74   1.0000      -0.443017       -12.0551 
  75   1.0000      -0.439353       -11.9554 
  76   1.0000      -0.432297       -11.7634 
  77   1.0000      -0.430889       -11.7251 
  78   1.0000      -0.425831       -11.5875 
  79   1.0000      -0.420944       -11.4545 
  80   1.0000      -0.419212       -11.4073 
  81   1.0000      -0.416495       -11.3334 
  82   1.0000      -0.413686       -11.2570 
  83   1.0000      -0.413097       -11.2409 
  84   1.0000      -0.411045       -11.1851 
  85   1.0000      -0.410394       -11.1674 
  86   1.0000      -0.405671       -11.0389 
  87   1.0000      -0.400968       -10.9109 
  88   1.0000      -0.394344       -10.7306 
  89   1.0000      -0.390124       -10.6158 
  90   1.0000      -0.386277       -10.5111 
  91   1.0000      -0.379365       -10.3231 
  92   1.0000      -0.370765       -10.0890 
  93   1.0000      -0.366315        -9.9679 
  94   1.0000      -0.349614        -9.5135 
  95   1.0000      -0.338667        -9.2156 
  96   1.0000      -0.319137        -8.6842 
  97   1.0000      -0.303103        -8.2478 
  98   1.0000      -0.238888        -6.5005 
  99   1.0000      -0.214167        -5.8278 
 100   0.0000      -0.026677        -0.7259 
 101   0.0000      -0.002047        -0.0557 
 102   0.0000       0.007524         0.2047 
 103   0.0000       0.035960         0.9785 
 104   0.0000       0.050301         1.3688 
 105   0.0000       0.073496         1.9999 
 106   0.0000       0.081143         2.2080 
 107   0.0000       0.098765         2.6875 
 108   0.0000       0.100783         2.7424 
 109   0.0000       0.120103         3.2682 
 110   0.0000       0.126648         3.4463 
*Only the first 10 virtual orbitals were printed.

                    ********************************
                    * MULLIKEN POPULATION ANALYSIS *
                    ********************************

--------------------------------------------
MULLIKEN ATOMIC CHARGES AND SPIN POPULATIONS
--------------------------------------------
   0 C :   -0.010578    0.501199
   1 O :   -0.538281    0.228899
   2 O :   -0.473955    0.035218
   3 H :    0.315718    0.010833
   4 C :    0.399215    0.036210
   5 C :    0.231657    0.111418
   6 C :    0.283600    0.033949
   7 C :    0.289434    0.022432
   8 C :    0.271659    0.009463
   9 C :    0.293949    0.004468
  10 C :    0.407923    0.001878
  11 F :   -0.215391    0.001767
  12 F :   -0.215073    0.002100
  13 F :   -0.189451   -0.000350
  14 F :   -0.185462    0.000529
  15 F :   -0.169518   -0.000641
  16 F :   -0.167646   -0.000173
  17 F :   -0.158949   -0.000213
  18 F :   -0.158950    0.000502
  19 F :   -0.154306    0.000182
  20 F :   -0.153649   -0.000065
  21 F :   -0.149588    0.000102
  22 F :   -0.146344   -0.000018
  23 F :   -0.136961   -0.000040
  24 F :   -0.134627    0.000370
  25 F :   -0.134425   -0.000020
Sum of atomic charges         :   -1.0000000
Sum of atomic spin populations:    1.0000000

-----------------------------------------------------
MULLIKEN REDUCED ORBITAL CHARGES AND SPIN POPULATIONS
-----------------------------------------------------
CHARGE
  0 C s       :     3.173139  s :     3.173139
      pz      :     0.836837  p :     2.612061
      px      :     0.918229
      py      :     0.856995
      dz2     :     0.039785  d :     0.204439
      dxz     :     0.044199
      dyz     :     0.059450
      dx2y2   :     0.036240
      dxy     :     0.024764
      f0      :     0.003571  f :     0.020939
      f+1     :     0.003599
      f-1     :     0.004621
      f+2     :     0.002903
      f-2     :     0.002337
      f+3     :     0.002093
      f-3     :     0.001815

  1 O s       :     3.811738  s :     3.811738
      pz      :     1.378147  p :     4.697143
      px      :     1.635021
      py      :     1.683975
      dz2     :     0.010433  d :     0.027665
      dxz     :     0.007584
      dyz     :     0.006892
      dx2y2   :     0.001309
      dxy     :     0.001448
      f0      :     0.000564  f :     0.001735
      f+1     :     0.000406
      f-1     :     0.000375
      f+2     :     0.000162
      f-2     :     0.000193
      f+3     :     0.000017
      f-3     :     0.000018

  2 O s       :     3.777936  s :     3.777936
      pz      :     1.583936  p :     4.665796
      px      :     1.688431
      py      :     1.393429
      dz2     :     0.004440  d :     0.028660
      dxz     :     0.006551
      dyz     :     0.009559
      dx2y2   :     0.004796
      dxy     :     0.003315
      f0      :     0.000050  f :     0.001562
      f+1     :     0.000186
      f-1     :     0.000204
      f+2     :     0.000169
      f-2     :     0.000421
      f+3     :     0.000274
      f-3     :     0.000258

  3 H s       :     0.640883  s :     0.640883
      pz      :     0.015006  p :     0.043399
      px      :     0.015959
      py      :     0.012434

  4 C s       :     2.963300  s :     2.963300
      pz      :     0.673990  p :     2.323656
      px      :     0.950480
      py      :     0.699186
      dz2     :     0.055671  d :     0.287918
      dxz     :     0.051498
      dyz     :     0.065521
      dx2y2   :     0.062807
      dxy     :     0.052420
      f0      :     0.004278  f :     0.025911
      f+1     :     0.004881
      f-1     :     0.005829
      f+2     :     0.002832
      f-2     :     0.001176
      f+3     :     0.004367
      f-3     :     0.002547

  5 C s       :     3.170421  s :     3.170421
      pz      :     0.637370  p :     2.274989
      px      :     0.933314
      py      :     0.704304
      dz2     :     0.058830  d :     0.295525
      dxz     :     0.057979
      dyz     :     0.068754
      dx2y2   :     0.051993
      dxy     :     0.057969
      f0      :     0.003726  f :     0.027407
      f+1     :     0.005212
      f-1     :     0.007630
      f+2     :     0.002391
      f-2     :     0.001691
      f+3     :     0.004366
      f-3     :     0.002391

  6 C s       :     3.124284  s :     3.124284
      pz      :     0.606812  p :     2.265594
      px      :     0.928276
      py      :     0.730506
      dz2     :     0.070889  d :     0.298648
      dxz     :     0.061633
      dyz     :     0.063788
      dx2y2   :     0.044036
      dxy     :     0.058302
      f0      :     0.004064  f :     0.027874
      f+1     :     0.004759
      f-1     :     0.007383
      f+2     :     0.002722
      f-2     :     0.003434
      f+3     :     0.003164
      f-3     :     0.002348

  7 C s       :     3.127357  s :     3.127357
      pz      :     0.588195  p :     2.253593
      px      :     0.928326
      py      :     0.737072
      dz2     :     0.081100  d :     0.301425
      dxz     :     0.062918
      dyz     :     0.056951
      dx2y2   :     0.039832
      dxy     :     0.060624
      f0      :     0.005903  f :     0.028191
      f+1     :     0.004067
      f-1     :     0.004830
      f+2     :     0.003931
      f-2     :     0.005067
      f+3     :     0.002358
      f-3     :     0.002036

  8 C s       :     3.133701  s :     3.133701
      pz      :     0.590761  p :     2.264390
      px      :     0.939515
      py      :     0.734114
      dz2     :     0.081016  d :     0.301923
      dxz     :     0.063560
      dyz     :     0.058099
      dx2y2   :     0.037757
      dxy     :     0.061490
      f0      :     0.005842  f :     0.028328
      f+1     :     0.004089
      f-1     :     0.005015
      f+2     :     0.003904
      f-2     :     0.005060
      f+3     :     0.002388
      f-3     :     0.002029

  9 C s       :     3.104535  s :     3.104535
      pz      :     0.611703  p :     2.276434
      px      :     0.942629
      py      :     0.722103
      dz2     :     0.068069  d :     0.296617
      dxz     :     0.063291
      dyz     :     0.067884
      dx2y2   :     0.036705
      dxy     :     0.060667
      f0      :     0.003996  f :     0.028465
      f+1     :     0.004855
      f-1     :     0.007860
      f+2     :     0.002708
      f-2     :     0.003376
      f+3     :     0.003266
      f-3     :     0.002403

 10 C s       :     3.021465  s :     3.021465
      pz      :     0.655607  p :     2.168417
      px      :     0.832402
      py      :     0.680409
      dz2     :     0.070314  d :     0.361819
      dxz     :     0.071899
      dyz     :     0.085829
      dx2y2   :     0.067460
      dxy     :     0.066318
      f0      :     0.004160  f :     0.040376
      f+1     :     0.007384
      f-1     :     0.010238
      f+2     :     0.003644
      f-2     :     0.004294
      f+3     :     0.006874
      f-3     :     0.003782

 11 F s       :     3.913029  s :     3.913029
      pz      :     1.885470  p :     5.288379
      px      :     1.914656
      py      :     1.488253
      dz2     :     0.001869  d :     0.013386
      dxz     :     0.000239
      dyz     :     0.003001
      dx2y2   :     0.005248
      dxy     :     0.003029
      f0      :     0.000055  f :     0.000597
      f+1     :     0.000009
      f-1     :     0.000109
      f+2     :     0.000101
      f-2     :     0.000015
      f+3     :     0.000122
      f-3     :     0.000187

 12 F s       :     3.912303  s :     3.912303
      pz      :     1.474054  p :     5.288689
      px      :     1.918886
      py      :     1.895749
      dz2     :     0.007211  d :     0.013480
      dxz     :     0.003090
      dyz     :     0.002749
      dx2y2   :     0.000286
      dxy     :     0.000145
      f0      :     0.000313  f :     0.000601
      f+1     :     0.000131
      f-1     :     0.000137
      f+2     :     0.000012
      f-2     :     0.000006
      f+3     :     0.000001
      f-3     :     0.000001

 13 F s       :     3.916615  s :     3.916615
      pz      :     1.849860  p :     5.257298
      px      :     1.912344
      py      :     1.495095
      dz2     :     0.001922  d :     0.014877
      dxz     :     0.000413
      dyz     :     0.004125
      dx2y2   :     0.005158
      dxy     :     0.003259
      f0      :     0.000071  f :     0.000660
      f+1     :     0.000005
      f-1     :     0.000111
      f+2     :     0.000152
      f-2     :     0.000034
      f+3     :     0.000118
      f-3     :     0.000170

 14 F s       :     3.915448  s :     3.915448
      pz      :     1.452063  p :     5.254325
      px      :     1.911469
      py      :     1.890793
      dz2     :     0.008061  d :     0.015016
      dxz     :     0.003558
      dyz     :     0.003012
      dx2y2   :     0.000240
      dxy     :     0.000145
      f0      :     0.000361  f :     0.000673
      f+1     :     0.000155
      f-1     :     0.000143
      f+2     :     0.000007
      f-2     :     0.000005
      f+3     :     0.000001
      f-3     :     0.000001

 15 F s       :     3.917160  s :     3.917160
      pz      :     1.762295  p :     5.236235
      px      :     1.901513
      py      :     1.572427
      dz2     :     0.002088  d :     0.015438
      dxz     :     0.001122
      dyz     :     0.005597
      dx2y2   :     0.003771
      dxy     :     0.002860
      f0      :     0.000077  f :     0.000685
      f+1     :     0.000006
      f-1     :     0.000141
      f+2     :     0.000195
      f-2     :     0.000088
      f+3     :     0.000083
      f-3     :     0.000096

 16 F s       :     3.915740  s :     3.915740
      pz      :     1.473330  p :     5.235762
      px      :     1.907169
      py      :     1.855263
      dz2     :     0.007284  d :     0.015454
      dxz     :     0.003387
      dyz     :     0.003927
      dx2y2   :     0.000413
      dxy     :     0.000444
      f0      :     0.000296  f :     0.000690
      f+1     :     0.000130
      f-1     :     0.000200
      f+2     :     0.000026
      f-2     :     0.000033
      f+3     :     0.000002
      f-3     :     0.000002

 17 F s       :     3.917855  s :     3.917855
      pz      :     1.650196  p :     5.224642
      px      :     1.902654
      py      :     1.671793
      dz2     :     0.003231  d :     0.015753
      dxz     :     0.001960
      dyz     :     0.006322
      dx2y2   :     0.002260
      dxy     :     0.001979
      f0      :     0.000087  f :     0.000699
      f+1     :     0.000027
      f-1     :     0.000232
      f+2     :     0.000173
      f-2     :     0.000104
      f+3     :     0.000038
      f-3     :     0.000039

 18 F s       :     3.917412  s :     3.917412
      pz      :     1.546341  p :     5.225112
      px      :     1.901787
      py      :     1.776984
      dz2     :     0.005239  d :     0.015726
      dxz     :     0.002853
      dyz     :     0.005450
      dx2y2   :     0.001051
      dxy     :     0.001133
      f0      :     0.000162  f :     0.000699
      f+1     :     0.000079
      f-1     :     0.000263
      f+2     :     0.000091
      f-2     :     0.000083
      f+3     :     0.000011
      f-3     :     0.000010

 19 F s       :     3.918252  s :     3.918252
      pz      :     1.656542  p :     5.219463
      px      :     1.902372
      py      :     1.660549
      dz2     :     0.003126  d :     0.015887
      dxz     :     0.001905
      dyz     :     0.006396
      dx2y2   :     0.002393
      dxy     :     0.002066
      f0      :     0.000085  f :     0.000705
      f+1     :     0.000024
      f-1     :     0.000227
      f+2     :     0.000180
      f-2     :     0.000105
      f+3     :     0.000041
      f-3     :     0.000043

 20 F s       :     3.918245  s :     3.918245
      pz      :     1.537214  p :     5.218765
      px      :     1.898059
      py      :     1.783492
      dz2     :     0.005470  d :     0.015933
      dxz     :     0.002999
      dyz     :     0.005386
      dx2y2   :     0.000982
      dxy     :     0.001095
      f0      :     0.000172  f :     0.000706
      f+1     :     0.000087
      f-1     :     0.000261
      f+2     :     0.000084
      f-2     :     0.000083
      f+3     :     0.000010
      f-3     :     0.000009

 21 F s       :     3.917631  s :     3.917631
      pz      :     1.766184  p :     5.215359
      px      :     1.896470
      py      :     1.552705
      dz2     :     0.002118  d :     0.015891
      dxz     :     0.001042
      dyz     :     0.005671
      dx2y2   :     0.004052
      dxy     :     0.003008
      f0      :     0.000080  f :     0.000706
      f+1     :     0.000005
      f-1     :     0.000140
      f+2     :     0.000202
      f-2     :     0.000083
      f+3     :     0.000090
      f-3     :     0.000106

 22 F s       :     3.915364  s :     3.915364
      pz      :     1.456731  p :     5.214198
      px      :     1.899193
      py      :     1.858274
      dz2     :     0.007757  d :     0.016060
      dxz     :     0.003613
      dyz     :     0.003958
      dx2y2   :     0.000326
      dxy     :     0.000406
      f0      :     0.000321  f :     0.000722
      f+1     :     0.000146
      f-1     :     0.000199
      f+2     :     0.000022
      f-2     :     0.000031
      f+3     :     0.000002
      f-3     :     0.000001

 23 F s       :     3.912615  s :     3.912615
      pz      :     1.815405  p :     5.207434
      px      :     1.886228
      py      :     1.505801
      dz2     :     0.002124  d :     0.016154
      dxz     :     0.000634
      dyz     :     0.005063
      dx2y2   :     0.005111
      dxy     :     0.003222
      f0      :     0.000086  f :     0.000759
      f+1     :     0.000005
      f-1     :     0.000132
      f+2     :     0.000192
      f-2     :     0.000056
      f+3     :     0.000120
      f-3     :     0.000167

 24 F s       :     3.911154  s :     3.911154
      pz      :     1.838316  p :     5.206545
      px      :     1.620266
      py      :     1.747963
      dz2     :     0.002147  d :     0.016162
      dxz     :     0.003150
      dyz     :     0.001991
      dx2y2   :     0.003502
      dxy     :     0.005372
      f0      :     0.000083  f :     0.000766
      f+1     :     0.000088
      f-1     :     0.000052
      f+2     :     0.000051
      f-2     :     0.000168
      f+3     :     0.000142
      f-3     :     0.000182

 25 F s       :     3.911287  s :     3.911287
      pz      :     1.439161  p :     5.206059
      px      :     1.885205
      py      :     1.881694
      dz2     :     0.008765  d :     0.016307
      dxz     :     0.003716
      dyz     :     0.003433
      dx2y2   :     0.000186
      dxy     :     0.000206
      f0      :     0.000401  f :     0.000772
      f+1     :     0.000173
      f-1     :     0.000173
      f+2     :     0.000011
      f-2     :     0.000013
      f+3     :     0.000001
      f-3     :     0.000001


SPIN
  0 C s       :     0.150544  s :     0.150544
      pz      :     0.138967  p :     0.342103
      px      :     0.070661
      py      :     0.132474
      dz2     :     0.003494  d :     0.009348
      dxz     :    -0.001431
      dyz     :     0.005206
      dx2y2   :     0.003374
      dxy     :    -0.001295
      f0      :    -0.000231  f :    -0.000796
      f+1     :     0.000219
      f-1     :    -0.000173
      f+2     :    -0.000317
      f-2     :    -0.000343
      f+3     :     0.000218
      f-3     :    -0.000168

  1 O s       :     0.012580  s :     0.012580
      pz      :     0.037468  p :     0.215918
      px      :     0.093156
      py      :     0.085295
      dz2     :    -0.000038  d :     0.000484
      dxz     :     0.000211
      dyz     :     0.000286
      dx2y2   :     0.000067
      dxy     :    -0.000042
      f0      :    -0.000029  f :    -0.000082
      f+1     :    -0.000026
      f-1     :    -0.000010
      f+2     :    -0.000012
      f-2     :    -0.000017
      f+3     :     0.000006
      f-3     :     0.000006

  2 O s       :    -0.003039  s :    -0.003039
      pz      :    -0.000134  p :     0.036363
      px      :     0.027315
      py      :     0.009181
      dz2     :     0.000025  d :     0.001885
      dxz     :    -0.000008
      dyz     :     0.000648
      dx2y2   :     0.001197
      dxy     :     0.000022
      f0      :     0.000003  f :     0.000010
      f+1     :    -0.000006
      f-1     :     0.000034
      f+2     :    -0.000000
      f-2     :    -0.000009
      f+3     :    -0.000006
      f-3     :    -0.000007

  3 H s       :     0.010092  s :     0.010092
      pz      :     0.000001  p :     0.000742
      px      :     0.000369
      py      :     0.000372

  4 C s       :    -0.121829  s :    -0.121829
      pz      :     0.065561  p :     0.131244
      px      :    -0.021834
      py      :     0.087516
      dz2     :     0.005704  d :     0.026783
      dxz     :     0.000466
      dyz     :     0.001732
      dx2y2   :     0.017626
      dxy     :     0.001255
      f0      :    -0.000006  f :     0.000013
      f+1     :     0.000098
      f-1     :    -0.000028
      f+2     :    -0.000109
      f-2     :     0.000105
      f+3     :     0.000069
      f-3     :    -0.000116

  5 C s       :     0.010588  s :     0.010588
      pz      :     0.029478  p :     0.084455
      px      :    -0.001081
      py      :     0.056058
      dz2     :     0.004552  d :     0.016562
      dxz     :     0.000210
      dyz     :     0.000647
      dx2y2   :     0.011092
      dxy     :     0.000060
      f0      :    -0.000029  f :    -0.000186
      f+1     :    -0.000009
      f-1     :    -0.000027
      f+2     :    -0.000062
      f-2     :     0.000032
      f+3     :    -0.000011
      f-3     :    -0.000080

  6 C s       :    -0.017465  s :    -0.017465
      pz      :     0.012836  p :     0.042519
      px      :    -0.003829
      py      :     0.033512
      dz2     :     0.002505  d :     0.008943
      dxz     :     0.000100
      dyz     :     0.000409
      dx2y2   :     0.005792
      dxy     :     0.000136
      f0      :    -0.000002  f :    -0.000047
      f+1     :    -0.000002
      f-1     :    -0.000023
      f+2     :    -0.000027
      f-2     :     0.000031
      f+3     :     0.000016
      f-3     :    -0.000040

  7 C s       :    -0.002568  s :    -0.002568
      pz      :     0.002837  p :     0.019718
      px      :    -0.001509
      py      :     0.018389
      dz2     :     0.001240  d :     0.005287
      dxz     :     0.000058
      dyz     :     0.000242
      dx2y2   :     0.003861
      dxy     :    -0.000114
      f0      :     0.000008  f :    -0.000004
      f+1     :    -0.000004
      f-1     :    -0.000017
      f+2     :    -0.000004
      f-2     :     0.000015
      f+3     :     0.000021
      f-3     :    -0.000023

  8 C s       :    -0.001354  s :    -0.001354
      pz      :     0.000295  p :     0.008380
      px      :    -0.000277
      py      :     0.008362
      dz2     :     0.000450  d :     0.002432
      dxz     :     0.000021
      dyz     :     0.000117
      dx2y2   :     0.001792
      dxy     :     0.000052
      f0      :    -0.000000  f :     0.000005
      f+1     :    -0.000001
      f-1     :    -0.000004
      f+2     :     0.000009
      f-2     :     0.000001
      f+3     :     0.000017
      f-3     :    -0.000016

  9 C s       :    -0.000270  s :    -0.000270
      pz      :     0.000101  p :     0.003595
      px      :    -0.000105
      py      :     0.003600
      dz2     :     0.000126  d :     0.001132
      dxz     :    -0.000004
      dyz     :     0.000015
      dx2y2   :     0.000999
      dxy     :    -0.000005
      f0      :    -0.000004  f :     0.000010
      f+1     :     0.000000
      f-1     :     0.000001
      f+2     :     0.000008
      f-2     :    -0.000001
      f+3     :     0.000013
      f-3     :    -0.000007

 10 C s       :     0.000499  s :     0.000499
      pz      :     0.000118  p :     0.001106
      px      :    -0.000048
      py      :     0.001036
      dz2     :     0.000027  d :     0.000261
      dxz     :    -0.000001
      dyz     :     0.000001
      dx2y2   :     0.000147
      dxy     :     0.000088
      f0      :    -0.000001  f :     0.000012
      f+1     :     0.000000
      f-1     :     0.000000
      f+2     :     0.000000
      f-2     :     0.000002
      f+3     :     0.000011
      f-3     :    -0.000001

 11 F s       :    -0.002393  s :    -0.002393
      pz      :     0.003064  p :     0.004014
      px      :    -0.001946
      py      :     0.002896
      dz2     :     0.000028  d :     0.000141
      dxz     :     0.000009
      dyz     :     0.000070
      dx2y2   :     0.000090
      dxy     :    -0.000056
      f0      :     0.000001  f :     0.000005
      f+1     :    -0.000000
      f-1     :    -0.000000
      f+2     :     0.000000
      f-2     :     0.000000
      f+3     :    -0.000001
      f-3     :     0.000005

 12 F s       :    -0.001591  s :    -0.001591
      pz      :     0.002794  p :     0.003524
      px      :    -0.001822
[...]
 16:    146.99   0.001638    8.28  0.003477  ( 0.057741  0.010044  0.006519)
 17:    181.94   0.002556   12.92  0.004384  ( 0.018151  0.001911 -0.063645)
 18:    185.97   0.002711   13.70  0.004549  (-0.065700  0.002888 -0.014983)
 19:    192.00   0.000385    1.94  0.000625  (-0.024436 -0.001688 -0.005006)
 20:    202.03   0.000423    2.14  0.000653  (-0.003216  0.024240 -0.007410)
 21:    220.31   0.000055    0.28  0.000077  ( 0.008422 -0.000318 -0.002520)
 22:    235.01   0.000210    1.06  0.000279  ( 0.014700  0.000362  0.007900)
 23:    239.28   0.000218    1.10  0.000284  (-0.008837 -0.007514  0.012231)
 24:    249.39   0.000034    0.17  0.000042  (-0.000319 -0.000028  0.006478)
 25:    251.83   0.001177    5.95  0.001459  (-0.035358  0.008068 -0.011978)
 26:    265.76   0.059706  301.73  0.070108  ( 0.257054 -0.038609  0.050401)
 27:    276.55   0.001980   10.01  0.002235  ( 0.044552 -0.015801 -0.000062)
 28:    300.29   0.000313    1.58  0.000325  (-0.014658 -0.000991 -0.010466)
 29:    307.79   0.000074    0.37  0.000075  ( 0.004710  0.007238  0.000577)
 30:    326.06   0.000145    0.73  0.000139  ( 0.003773  0.006256 -0.009249)
 31:    333.03   0.012170   61.50  0.011404  ( 0.091354  0.051366 -0.020491)
 32:    343.24   0.004044   20.44  0.003677  ( 0.056072  0.019478 -0.012380)
 33:    351.91   0.001229    6.21  0.001090  (-0.030004 -0.008783 -0.010608)
 34:    354.38   0.001059    5.35  0.000933  (-0.025184 -0.002643  0.017068)
 35:    360.09   0.001502    7.59  0.001302  (-0.030365 -0.019483 -0.000291)
 36:    366.29   0.000380    1.92  0.000323  (-0.001276 -0.017787 -0.002315)
 37:    406.15   0.000301    1.52  0.000231  ( 0.012903 -0.007840 -0.001823)
 38:    436.50   0.021833  110.33  0.015609  (-0.118412 -0.036921  0.014980)
 39:    458.33   0.000481    2.43  0.000327  (-0.010355  0.000778  0.014814)
 40:    502.36   0.002369   11.97  0.001471  ( 0.024091  0.029515 -0.004461)
 41:    512.79   0.002417   12.21  0.001471  ( 0.013453 -0.035888 -0.001317)
 42:    514.77   0.008010   40.48  0.004856  ( 0.066725 -0.018626 -0.007538)
 43:    543.75   0.003265   16.50  0.001874  (-0.035850 -0.023650  0.005425)
 44:    548.14   0.006956   35.15  0.003960  ( 0.062213 -0.006199  0.007169)
 45:    557.94   0.026692  134.89  0.014929  ( 0.117296  0.032744  0.009922)
 46:    580.63   0.000561    2.84  0.000302  (-0.005115 -0.006407 -0.015310)
 47:    594.15   0.002185   11.04  0.001147  ( 0.032001 -0.011076 -0.000833)
 48:    609.09   0.010230   51.70  0.005241  ( 0.070465  0.014276 -0.008487)
 49:    630.55   0.028637  144.72  0.014173  (-0.118153 -0.014579  0.000384)
 50:    666.87   0.020023  101.19  0.009370  (-0.095460  0.012375 -0.010194)
 51:    678.45   0.018886   95.44  0.008687  (-0.092936  0.002244  0.006695)
 52:    706.72   0.001227    6.20  0.000542  (-0.022223  0.006899 -0.000454)
 53:    736.44   0.003959   20.01  0.001678  ( 0.040928  0.000574 -0.001487)
 54:    798.34   0.050810  256.77  0.019861  ( 0.134918  0.036100  0.018847)
 55:    897.08   0.082093  414.86  0.028557  ( 0.165551  0.026774  0.020816)
 56:    964.19   0.094272  476.41  0.030512  ( 0.062093  0.161080  0.026633)
 57:    997.29   0.027506  139.00  0.008607  ( 0.015218  0.004125 -0.091423)
 58:   1018.14   0.005857   29.60  0.001795  (-0.023528 -0.031052  0.016659)
 59:   1079.15   0.039580  200.02  0.011446  (-0.025439 -0.063391 -0.082341)
 60:   1086.86   0.003834   19.38  0.001101  (-0.006138  0.030009 -0.012756)
 61:   1092.50   0.044154  223.14  0.012612  ( 0.102456 -0.036943  0.027388)
 62:   1096.58   0.025617  129.46  0.007290  (-0.036437 -0.027335  0.072216)
 63:   1111.46   0.042481  214.68  0.011927  (-0.007649  0.089574 -0.062011)
 64:   1120.08   0.103087  520.96  0.028721  (-0.054533 -0.122250 -0.103933)
 65:   1121.80   0.063457  320.69  0.017653  (-0.016219 -0.130764 -0.017035)
 66:   1133.84   0.065896  333.01  0.018136  ( 0.008846  0.000498 -0.134380)
 67:   1145.39   0.080035  404.47  0.021806  (-0.050090  0.088526 -0.107050)
 68:   1149.10   0.078991  399.19  0.021452  (-0.038264  0.073757  0.120612)
 69:   1158.02   0.014064   71.07  0.003790  ( 0.004133 -0.040735  0.045973)
 70:   1171.23   0.087412  441.75  0.023290  ( 0.024927  0.049003 -0.142364)
 71:   1196.58   0.035645  180.14  0.009296  (-0.045915  0.059102  0.060785)
 72:   1221.01   0.000666    3.37  0.000170  ( 0.012564 -0.002980 -0.001877)
 73:   1255.46   0.007913   39.99  0.001967  (-0.042013 -0.014202 -0.000290)
 74:   1260.78   0.037251  188.25  0.009220  ( 0.059988 -0.010757 -0.074202)
 75:   1311.14   0.147946  747.66  0.035212  ( 0.186398 -0.008130 -0.020053)
 76:   1546.25   0.166944  843.67  0.033693  (-0.149854  0.049034  0.093978)
 77:   3690.91   0.022513  113.77  0.001903  (-0.034446 -0.019879  0.017936)

* The epsilon (eps) is given for a Dirac delta lineshape.
** The dipole moment derivative (T) already includes vibrational overlap.

The first frequency considered to be a vibration is 6
The total number of vibrations considered is 72


--------------------------
THERMOCHEMISTRY AT 298.15K
--------------------------

Temperature         ...   298.15 K
Pressure            ...     1.00 atm
Total Mass          ...   414.06 AMU
Quasi RRHO          ...     True
Cut-Off Frequency   ...     1.00 cm^-1

Throughout the following assumptions are being made:
  (1) The electronic state is orbitally nondegenerate
      but the spin degeneracy is treated
  (2) There are no thermally accessible electronically excited states
  (3) Hindered rotations indicated by low frequency modes are not
      treated as such but are treated as vibrations and this may
      cause some error
  (4) All equations used are the standard statistical mechanics
      equations for an ideal gas
  (5) All vibrations are strictly harmonic

freq.      24.25  E(vib)   ...       0.56 
freq.      27.15  E(vib)   ...       0.55 
freq.      37.85  E(vib)   ...       0.54 
freq.      40.02  E(vib)   ...       0.54 
freq.      55.68  E(vib)   ...       0.52 
freq.      62.74  E(vib)   ...       0.51 
freq.      66.77  E(vib)   ...       0.50 
freq.      81.24  E(vib)   ...       0.48 
freq.     103.26  E(vib)   ...       0.46 
freq.     120.56  E(vib)   ...       0.44 
freq.     146.99  E(vib)   ...       0.41 
freq.     181.94  E(vib)   ...       0.37 
freq.     185.97  E(vib)   ...       0.37 
freq.     192.00  E(vib)   ...       0.36 
freq.     202.03  E(vib)   ...       0.35 
freq.     220.31  E(vib)   ...       0.33 
freq.     235.01  E(vib)   ...       0.32 
freq.     239.28  E(vib)   ...       0.31 
freq.     249.39  E(vib)   ...       0.31 
freq.     251.83  E(vib)   ...       0.30 
freq.     265.76  E(vib)   ...       0.29 
freq.     276.55  E(vib)   ...       0.28 
freq.     300.29  E(vib)   ...       0.26 
freq.     307.79  E(vib)   ...       0.26 
freq.     326.06  E(vib)   ...       0.24 
freq.     333.03  E(vib)   ...       0.24 
freq.     343.24  E(vib)   ...       0.23 
freq.     351.91  E(vib)   ...       0.23 
freq.     354.38  E(vib)   ...       0.22 
freq.     360.09  E(vib)   ...       0.22 
freq.     366.29  E(vib)   ...       0.22 
freq.     406.15  E(vib)   ...       0.19 
freq.     436.50  E(vib)   ...       0.17 
freq.     458.33  E(vib)   ...       0.16 
freq.     502.36  E(vib)   ...       0.14 
freq.     512.79  E(vib)   ...       0.13 
freq.     514.77  E(vib)   ...       0.13 
freq.     543.75  E(vib)   ...       0.12 
freq.     548.14  E(vib)   ...       0.12 
freq.     557.94  E(vib)   ...       0.12 
freq.     580.63  E(vib)   ...       0.11 
freq.     594.15  E(vib)   ...       0.10 
freq.     609.09  E(vib)   ...       0.10 
freq.     630.55  E(vib)   ...       0.09 
freq.     666.87  E(vib)   ...       0.08 
freq.     678.45  E(vib)   ...       0.08 
freq.     706.72  E(vib)   ...       0.07 
freq.     736.44  E(vib)   ...       0.06 
freq.     798.34  E(vib)   ...       0.05 
freq.     897.08  E(vib)   ...       0.03 
freq.     964.19  E(vib)   ...       0.03 
freq.     997.29  E(vib)   ...       0.02 
freq.    1018.14  E(vib)   ...       0.02 
freq.    1079.15  E(vib)   ...       0.02 
freq.    1086.86  E(vib)   ...       0.02 
freq.    1092.50  E(vib)   ...       0.02 
freq.    1096.58  E(vib)   ...       0.02 
freq.    1111.46  E(vib)   ...       0.01 
freq.    1120.08  E(vib)   ...       0.01 
freq.    1121.80  E(vib)   ...       0.01 
freq.    1133.84  E(vib)   ...       0.01 
freq.    1145.39  E(vib)   ...       0.01 
freq.    1149.10  E(vib)   ...       0.01 
freq.    1158.02  E(vib)   ...       0.01 
freq.    1171.23  E(vib)   ...       0.01 
freq.    1196.58  E(vib)   ...       0.01 
freq.    1221.01  E(vib)   ...       0.01 
freq.    1255.46  E(vib)   ...       0.01 
freq.    1260.78  E(vib)   ...       0.01 
freq.    1311.14  E(vib)   ...       0.01 
freq.    1546.25  E(vib)   ...       0.00 
freq.    3690.91  E(vib)   ...       0.00 

------------
INNER ENERGY
------------

The inner energy is: U= E(el) + E(ZPE) + E(vib) + E(rot) + E(trans)
    E(el)   - is the total energy from the electronic structure calculation
              = E(kin-el) + E(nuc-el) + E(el-el) + E(nuc-nuc)
    E(ZPE)  - the the zero temperature vibrational energy from the frequency calculation
    E(vib)  - the the finite temperature correction to E(ZPE) due to population
              of excited vibrational states
    E(rot)  - is the rotational thermal energy
    E(trans)- is the translational thermal energy

Summary of contributions to the inner energy U:
Electronic energy                ...  -1954.42123196 Eh
Zero point energy                ...      0.10392200 Eh      65.21 kcal/mol
Thermal vibrational correction   ...      0.02161637 Eh      13.56 kcal/mol
Thermal rotational correction    ...      0.00141627 Eh       0.89 kcal/mol
Thermal translational correction ...      0.00141627 Eh       0.89 kcal/mol
-----------------------------------------------------------------------
Total thermal energy                  -1954.29286105 Eh


Summary of corrections to the electronic energy:
(perhaps to be used in another calculation)
Total thermal correction                  0.02444892 Eh      15.34 kcal/mol
Non-thermal (ZPE) correction              0.10392200 Eh      65.21 kcal/mol
-----------------------------------------------------------------------
Total correction                          0.12837091 Eh      80.55 kcal/mol


--------
ENTHALPY
--------

The enthalpy is H = U + kB*T
                kB is Boltzmann's constant
Total thermal energy              ...  -1954.29286105 Eh 
Thermal Enthalpy correction       ...      0.00094421 Eh       0.59 kcal/mol
-----------------------------------------------------------------------
Total Enthalpy                    ...  -1954.29191684 Eh


Note: Only C1 symmetry has been detected, increase convergence thresholds 
      if your molecule has a higher symmetry. Symmetry factor of 1.0 is   
      used for the rotational entropy correction. 
 

Note: Rotational entropy computed according to Herzberg 
Infrared and Raman Spectra, Chapter V,1, Van Nostrand Reinhold, 1945 
Point Group:  C1, Symmetry Number:   1  
Rotational constants in cm-1:     0.021049     0.003634     0.003595 

Vibrational entropy computed according to the QRRHO of S. Grimme
Chem.Eur.J. 2012 18 9955 using a reference frequency of 100.0 cm-1


-------
ENTROPY
-------

The entropy contributions are T*S = T*(S(el)+S(vib)+S(rot)+S(trans))
     S(el)   - electronic entropy
     S(vib)  - vibrational entropy
     S(rot)  - rotational entropy
     S(trans)- translational entropy
The entropies will be listed as multiplied by the temperature to get
units of energy

Electronic entropy                ...      0.00065446 Eh      0.41 kcal/mol
Vibrational entropy               ...      0.03868306 Eh     24.27 kcal/mol
Rotational entropy                ...      0.01664251 Eh     10.44 kcal/mol
Translational entropy             ...      0.02088355 Eh     13.10 kcal/mol
-----------------------------------------------------------------------
Final entropy term                ...      0.07686358 Eh     48.23 kcal/mol

In case the symmetry of your molecule has not been determined correctly
or in case you have a reason to use a different symmetry number we print 
out the resulting rotational entropy values for sn=1,12:

 non-linear molecules -----------------------------------
|  sn= 1 | S(rot)=       0.01664251 Eh     10.44 kcal/mol|
|  sn= 2 | S(rot)=       0.01598806 Eh     10.03 kcal/mol|
|  sn= 3 | S(rot)=       0.01560523 Eh      9.79 kcal/mol|
|  sn= 4 | S(rot)=       0.01533360 Eh      9.62 kcal/mol|
|  sn= 5 | S(rot)=       0.01512291 Eh      9.49 kcal/mol|
|  sn= 6 | S(rot)=       0.01495077 Eh      9.38 kcal/mol|
|  sn= 7 | S(rot)=       0.01480522 Eh      9.29 kcal/mol|
|  sn= 8 | S(rot)=       0.01467915 Eh      9.21 kcal/mol|
|  sn= 9 | S(rot)=       0.01456794 Eh      9.14 kcal/mol|
|  sn=10 | S(rot)=       0.01446846 Eh      9.08 kcal/mol|
|  sn=11 | S(rot)=       0.01437847 Eh      9.02 kcal/mol|
|  sn=12 | S(rot)=       0.01429631 Eh      8.97 kcal/mol|
 linear molecules ---------------------------------------
|  Dinfh | S(rot)=       0.01063991 Eh      6.68 kcal/mol|
|  Cinfv | S(rot)=       0.01129437 Eh      7.09 kcal/mol|
 --------------------------------------------------------


-------------------
GIBBS FREE ENERGY
-------------------

The Gibbs free energy is G = H - T*S

Total enthalpy                    ...  -1954.29191684 Eh 
Total entropy correction          ...     -0.07686358 Eh    -48.23 kcal/mol
-----------------------------------------------------------------------
Final Gibbs free energy         ...  -1954.36878042 Eh

For completeness - the Gibbs free energy minus the electronic energy
G-E(el)                           ...      0.05245154 Eh     32.91 kcal/mol


Maximum memory used throughout the entire PROP-calculation: 588.2 MB

--------------------------------
SUGGESTED CITATIONS FOR THIS RUN
--------------------------------

Below you find a list of papers that are relevant to this ORCA run
We neither can nor want to force you to cite these papers, but we appreciate if you do
You receive ORCA, which is the product of decades of hard work by many enthusiastic individuals, for free
The only thing we kindly ask in return is that you cite our papers,
We deeply appreciate it, if you show your appreciation for ORCA by not just citing the generic ORCA reference.

Please note that relegating all ORCA citations to the supporting information does *not* help us.
SI sections are not indexed - citations you put there will not count into any citation statistics
But we need these citations in order to attract the funding resources that allow us to do what we are doing

Therefore, if you are a happy ORCA user, please consider citing a few of the papers listed below in the main body of your paper

In addition to the list printed below, the program has created the file rf_mecn_freq_TP_P_B.bibtex that contains the list in bibtex format
You can import this file easily into all common literature databanks and citation aid programs


List of essential papers. We consider these as the minimum necessary citations

  1. Neese,F.
     Software update: the ORCA program system, version 5.0
     WIRES Comput. Molec. Sci., 2022 12(1)e1606
     doi.org/10.1002/wcms.1606

List of papers to cite with high priority. The work reported in these papers was absolutely
necessary for this run to complete.
Our perspective: the developers of density functionals and basis sets usually get cited in chemistry papers
Good! But without the algorithms to do something with them, the functionals or basis sets would not do anything.
Hence, in our opinion, the algorithm design and method developments papers are equally worthy of getting cited

  1. Neese,F.
     An improvement of the resolution of the identity approximation for the formation of the Coulomb matrix
     J. Comp. Chem., 2003 24(14)1740-1747
     doi.org/10.1002/jcc.10318
  2. Neese,F.; Wennmohs,F.; Hansen,A.; Becker,U.
     Efficient, approximate and parallel Hartree-Fock and hybrid DFT calculations. A 'chain-of-spheres' algorithm for the Hartree-Fock exchange
     Chem. Phys., 2009 356(1-3)98-109
     doi.org/10.1016/j.chemphys.2008.10.036
  3. Bykov,D.; Petrenko,T.; Izsak,R.; Kossmann,S.; Becker,U.; Valeev,E.; Neese,F.
     Efficient implementation of the analytic second derivatives of Hartree-Fock and hybrid DFT energies: a detailed analysis of different approximations
     Molec. Phys., 2015 113 1961-1977
     doi.org/10.1080/00268976.2015.1025114
  4. Garcia-Rates,M.; Neese,F.
     Efficient implementation of the analytical second derivatives of hartree-fock and hybrid DFT energies within the framework of the conductor-like polarizable continuum model
     J. Comput. Chem., 2019 40 1816-1828
     doi.org/10.1002/jcc.25833
  5. Garcia-Rates,M.; Neese,F.
     Effect of the Solute Cavity on the Solvation Energy and its Derivatives within the Framework of the Gaussian Charge Scheme
     J. Comput. Chem., 2020 41 922-939
     doi.org/10.1002/jcc.26139
  6. Helmich-Paris,B.; de Souza,B.; Neese,F.; Izsák,R.
     An improved chain of spheres for exchange algorithm
     J. Chem. Phys., 2021 155 104109
     doi.org/doi: 10.1063/5.0058766.
  7. Neese,F.
     The SHARK Integral Generation and Digestion System
     J. Comp. Chem., 2022  1-16
     doi.org/10.1002/jcc.26942
  8. Grimme,S.; Antony,J.; Ehrlich,S.; Krieg,H.
     A consistent and accurate ab initio parametrization of density functional dispersion correction (DFT-D) for the 94 elements H-Pu
     J. Chem. Phys., 2010 132 154104
     doi.org/10.1063/1.3382344
  9. Grimme,S.; Ehrlich,S.; Goerigk,L.
     Effect of the damping function in dispersion corrected density functional theory
     J. Comput. Chem., 2011 32(7)1456-1465
     doi.org/10.1002/jcc.21759

List of suggested additional citations. These are papers that are important in the 'surrounding' of 
of this run, or papers that preceded the highly important papers. If you like your results we are grateful for a citation.

  1. Izsak,R.; Neese,F.
     An overlap fitted chain of spheres exchange method
     J. Chem. Phys., 2011 135 144105
     doi.org/10.1063/1.3646921
  2. Izsak,R.; Hansen,A.; Neese,F.
     The resolution of identity and chain of spheres approximations for the LPNO-CCSD singles Fock term
     Molec. Phys., 2012 110 2413-2417
     doi.org/10.1080/00268976.2012.687466
  3. Neese,F.
     The ORCA program system
     WIRES Comput. Molec. Sci., 2012 2(1)73-78
     doi.org/10.1002/wcms.81
  4. Izsak,R.; Neese,F.; Klopper,W.
     Robust fitting techniques in the chain of spheres approximation to the Fock exchange: The role of the complementary space
     J. Chem. Phys., 2013 139 
     doi.org/10.1063/1.4819264
  5. Neese,F.
     Software update: the ORCA program system, version 4.0
     WIRES Comput. Molec. Sci., 2018 8(1)1-6
     doi.org/10.1002/wcms.1327
  6. Neese,F.; Wennmohs,F.; Becker,U.; Riplinger,C.
     The ORCA quantum chemistry program package
     J. Chem. Phys., 2020 152 Art. No. L224108
     doi.org/10.1063/5.0004608

List of optional additional citations

  1. Neese,F.
     Approximate second-order SCF convergence for spin unrestricted wavefunctions
     Chem. Phys. Lett., 2000 325(1-3)93-98
     doi.org/10.1016/s0009-2614(00)00662-x

Timings for individual modules:

Sum of individual times          ...     1319.858 sec (=  21.998 min)
Startup calculation              ...        4.709 sec (=   0.078 min)   0.4 %
SCF iterations                   ...      103.901 sec (=   1.732 min)   7.9 %
Property integrals               ...      347.369 sec (=   5.789 min)  26.3 %
SCF Response                     ...      634.595 sec (=  10.577 min)  48.1 %
Property calculations            ...      229.284 sec (=   3.821 min)  17.4 %
                             ****ORCA TERMINATED NORMALLY****
TOTAL RUN TIME: 0 days 0 hours 22 minutes 0 seconds 821 msec
