
                                 *****************
                                 * O   R   C   A *
                                 *****************

                                            #,                                       
                                            ###                                      
                                            ####                                     
                                            #####                                    
                                            ######                                   
                                           ########,                                 
                                     ,,################,,,,,                         
                               ,,#################################,,                 
                          ,,##########################################,,             
                       ,#########################################, ''#####,          
                    ,#############################################,,   '####,        
                  ,##################################################,,,,####,       
                ,###########''''           ''''###############################       
              ,#####''   ,,,,##########,,,,          '''####'''          '####       
            ,##' ,,,,###########################,,,                        '##       
           ' ,,###''''                  '''############,,,                           
         ,,##''                                '''############,,,,        ,,,,,,###''
      ,#''                                            '''#######################'''  
     '                                                          ''''####''''         
             ,#######,   #######,   ,#######,      ##                                
            ,#'     '#,  ##    ##  ,#'     '#,    #''#        ,####,   ,####,        
            ##       ##  ##   ,#'  ##            #'  '#       #'       #'  '#        
            ##       ##  #######   ##           ,######,      #####,   #    #        
            '#,     ,#'  ##    ##  '#,     ,#' ,#      #,     #,   #   #,  ,#        
             '#######'   ##     ##  '#######'  #'      '#     '####' # '####'        



                #########################################################
                #                        -***-                          #
                #          Department of theory and spectroscopy        #
                #                                                       #
                #                      Frank Neese                      #
                #                                                       #
                #     Directorship, Architecture, Infrastructure        #
                #                    SHARK, DRIVERS                     #
                #        Core code/Algorithms in most modules           #
                #                                                       #
                #        Max Planck Institute fuer Kohlenforschung      #
                #                Kaiser Wilhelm Platz 1                 #
                #                 D-45470 Muelheim/Ruhr                 #
                #                      Germany                          #
                #                                                       #
                #                  All rights reserved                  #
                #                        -***-                          #
                #########################################################


                         Program Version 6.0.1  -  RELEASE   -


 With contributions from (in alphabetic order):
[Max-Planck-Institut fuer Kohlenforschung]                               
  Daniel Aravena         : Magnetic Suceptibility                        
  Michael Atanasov       : Ab Initio Ligand Field Theory (pilot matlab implementation)
  Alexander A. Auer      : GIAO ZORA, VPT2 properties, NMR spectrum      
  Ute Becker             : All parallelization in ORCA, NUMFREQ, NUMCALC 
  Giovanni Bistoni       : ED, misc. LED, open-shell LED, HFLD           
  Martin Brehm           : Molecular dynamics                            
  Dmytro Bykov           : pre 5.0 version of the SCF Hessian            
  Marcos Casanova-Páez   : Triplet and SCS-CIS(D). UHF-(DLPNO)-IP/EA/STEOM-CCSD. UHF-CVS-IP/STEOM-CCSD   
  Vijay G. Chilkuri      : MRCI spin determinant printing, contributions to CSF-ICE 
  Pauline Colinet        : FMM embedding                                 
  Dipayan Datta          : RHF DLPNO-CCSD density                        
  Achintya Kumar Dutta   : EOM-CC, STEOM-CC                              
  Nicolas Foglia         : Exact transition moments, OPA infrastructure, MCD improvements    
  Dmitry Ganyushin       : Spin-Orbit,Spin-Spin,Magnetic field MRCI      
  Miquel Garcia-Rates    : C-PCM and meta-GGA Hessian, CCSD/C-PCM, Gaussian charge scheme 
  Tiago L. C. Gouveia    : GS-ROHF, GS-ROCIS                             
  Yang Guo               : DLPNO-NEVPT2, F12-NEVPT2, CIM, IAO-localization        
  Andreas Hansen         : Spin unrestricted coupled pair/coupled cluster methods 
  Ingolf Harden          : AUTO-CI MPn and infrastructure                
  Benjamin Helmich-Paris : MC-RPA, TRAH-(SCF,CASSCF), AVAS, COSX integrals, SCF dyn. polar. 
  Lee Huntington         : MR-EOM, pCC                                   
  Robert Izsak           : Overlap fitted RIJCOSX, COSX-SCS-MP3, EOM     
  Riya Kayal             : Wick's Theorem for AUTO-CI, AUTO-CI UHF-CCSDT 
  Emily Kempfer          : AUTO-CI, RHF CISDT and CCSDT                  
  Christian Kollmar      : KDIIS, OOCD, Brueckner-CCSD(T), CCSD density, CASPT2, CASPT2-K, improved NEVPT2 
  Axel Koslowski         : Symmetry handling                             
  Simone Kossmann        : meta-GGA functionals, TD-DFT gradient, OOMP2, (MP2 Hessian; deprecated post 5.0) 
  Lucas Lang             : DCDCAS                                        
  Marvin Lechner         : AUTO-CI (C++ implementation), FIC-MRCC        
  Spencer Leger          : CASSCF response                               
  Dagmar Lenk            : GEPOL surface, SMD, ORCA-2-JSON               
  Dimitrios Liakos       : Extrapolation schemes; Compound Job, initial MDCI parallelization 
  Dimitrios Manganas     : Further ROCIS development; embedding schemes. LFT, Crystal Embedding 
  Dimitrios Pantazis     : SARC Basis sets                               
  Anastasios Papadopoulos: AUTO-CI, single reference methods and gradients 
  Taras Petrenko         : pre 6.0 DFT Hessian and TD-DFT gradient, (ASA, deprecated), ECA, 1-Electron XAS/XES, NRVS 
  Peter Pinski           : DLPNO-MP2, DLPNO-MP2 Gradient                 
  Christoph Reimann      : Effective Core Potentials                     
  Marius Retegan         : Local ZFS, SOC                                
  Christoph Riplinger    : Optimizer, TS searches, QM/MM, DLPNO-CCSD(T), (RO)-DLPNO pert. Triples 
  Michael Roemelt        : Original ROCIS implementation                 
  Masaaki Saitow         : Open-shell DLPNO-CCSD energy and density      
  Barbara Sandhoefer     : DKH picture change effects                    
  Kantharuban Sivalingam : CASSCF convergence/infrastructure, NEVPT2 and variants, FIC-MRCI 
  Bernardo de Souza      : ESD, SOC TD-DFT                               
  Georgi L. Stoychev     : AutoAux, RI-MP2 NMR, DLPNO-MP2 response, X2C  
  Van Anh Tran           : RI-MP2 g-tensors                              
  Willem Van den Heuvel  : Paramagnetic NMR                              
  Zikuan Wang            : NOTCH, Electric field optimization            
  Frank Wennmohs         : Technical directorship and infrastructure     
  Hang Xu                : AUTO-CI-Response properties                   
                                                                         
[FACCTs GmbH]                                                            
  Markus Bursch, Miquel Garcia-Rates, Christoph Riplinger, Bernardo de Souza, Georgi L. Stoychev 
                                                                 
  APM, Basis sets (HGBS, AHGBS, def-TZVP (Ac-Lr), def2-XVPD (La-Lu)), CI-OPT, improved COSX, DLPNO-Multilevel,           
  DOCKER, DRACO, updates on ESD, GOAT, IRC, LR-CPCM, MBIS, meta-GGA TD-DFT gradient, ML-optimized integration grids, 
  MM, NACMEs, nearIR, NEB, NEB-TS, NL-DFT gradient (VV10), 2- and 3-layer-ONIOM, interface openCOSMO-RS, QMMM,   
  Crystal-QMMM, SF, symmetry and pop. for TD-DFT, r2SCAN hybrids, SOLVATOR                                   
                                                                         
[Other institutions]                                                     
  V. Asgeirsson          : NEB                                           
  Christoph Bannwarth    : sTDA-DFT, sTD-DFT, PBEh-3c, B97-3c, D3        
  Sebastian Ehlert       : rSCAN, r2SCAN, r2SCAN-3c, D4, dhf basis sets  
  Marvin Friede          : D4 for Fr, Ra, Ac-Lr                          
  Lars Goerigk           : TD-DFT with DH, B97 family of functionals     
  Stefan Grimme          : VdW corrections, initial TS optimization, DFT functionals, gCP, sTDA/sTD-DF 
  Waldemar Hujo          : DFT-NL                                        
  H. Jonsson             : NEB                                           
  Holger Kruse           : gCP                                           
  Marcel Mueller         : wB97X-3c, vDZP basis set                      
  Hagen Neugebauer       : wr2SCAN                                       
  Tobias Risthaus        : range-separated hybrid DFT                    
  Lukas Wittmann         : regularized MP2, r2SCAN double-hybrids, wr2SCAN        
                                                                         
We gratefully acknowledge several colleagues who have allowed us to      
interface, adapt or use parts of their codes:                            
  Ed Valeev, F. Pavosevic, A. Kumar             : LibInt (2-el integral package), F12 methods 
  Garnet Chan, S. Sharma, J. Yang, R. Olivares  : DMRG                   
  Ulf Ekstrom                                   : XCFun DFT Library      
  Mihaly Kallay                                 : mrcc  (arbitrary order and MRCC methods)
  Frank Weinhold                                : gennbo (NPA and NBO analysis)           
  Simon Mueller                                 : openCOSMO-RS                            
  Christopher J. Cramer and Donald G. Truhlar   : smd solvation model                     
  S Lehtola, MJT Oliveira, MAL Marques          : LibXC Library                           
  Liviu Ungur et al                             : ANISO software                          


 Your calculation uses the libint2 library for the computation of 2-el integrals
 For citations please refer to: http://libint.valeyev.net

 Your ORCA version has been built with support for libXC version: 6.2.2
 For citations please refer to: https://libxc.gitlab.io

 This ORCA versions uses:
   CBLAS   interface :  Fast vector & matrix operations
   LAPACKE interface :  Fast linear algebra routines
   SCALAPACK package :  Parallel linear algebra routines
   Shared memory     :  Shared parallel matrices
   BLAS/LAPACK       :  OpenBLAS 0.3.27  USE64BITINT DYNAMIC_ARCH NO_AFFINITY SkylakeX SINGLE_THREADED
        Core in use  :  SkylakeX
   Copyright (c) 2011-2014, The OpenBLAS Project


NOTE: MaxCore=8000 MB was set to SCF,MP2,MDCI,CIPSI,MRCI and CIS
      => If you want to overwrite this, your respective input block should be placed after the MaxCore statement
Your calculation utilizes the atom-pairwise dispersion correction
with the Becke-Johnson damping scheme (D3BJ)


Your calculation utilizes the SMD solvation module
Please cite in your paper:
A.V. Marenich, C.J. Cramer, D.G. Truhlar J. Phys. Chem. B, 113, (2009), 6378 

Warning: RI is on but no J-basis has been assigned. Assigning Def2/J (nothing to worry about!)
================================================================================

----- Orbital basis set information -----
Your calculation utilizes the basis: def2-TZVP
   F. Weigend and R. Ahlrichs, Phys. Chem. Chem. Phys. 7, 3297 (2005).

----- AuxJ basis set information -----
Your calculation utilizes the auxiliary basis: def2/J
   F. Weigend, Phys. Chem. Chem. Phys. 8, 1057 (2006).

================================================================================
                                        WARNINGS
                       Please study these warnings very carefully!
================================================================================



WARNING: SCAN, rSCAN, or r2SCAN functional requested.
  ===> : libXC variant has now been activated.



WARNING: your system is open-shell and RHF/RKS was chosen
  ===> : WILL SWITCH to UHF/UKS


================================================================================
                                       INPUT FILE
================================================================================
NAME = rf_mecn_freq_r2s_C5_P_B.inp
|  1> !r2scanh def2-TZVP freq d3 TightSCF SlowConv defgrid2
|  2>  
|  3> %pal
|  4> nprocs 20
|  5> end
|  6>  
|  7> %scf
|  8> MaxIter 1500
|  9> end
| 10>  
| 11> %maxcore 8000
| 12>  
| 13> !CPCM
| 14> %cpcm smd true
| 15> SMDsolvent "ACETONITRILE"
| 16> end
| 17>  
| 18> * xyz 0 2
| 19> 6        4.236637000      0.505276000      0.328427000
| 20> 8        5.182230000     -0.137695000     -0.327675000
| 21> 8        4.243585000      1.646921000      0.682964000
| 22> 6        3.018026000     -0.407770000      0.594970000
| 23> 6        1.919770000     -0.167918000     -0.474551000
| 24> 6        0.779737000     -1.234734000     -0.483853000
| 25> 6       -0.442622000     -0.751042000     -1.191528000
| 26> 6       -1.862208000     -0.767476000     -0.709709000
| 27> 6       -2.249624000      0.475033000      0.140229000
| 28> 6       -3.736082000      0.572324000      0.567329000
| 29> 9        3.363198000     -1.707106000      0.578443000
| 30> 9        2.521065000     -0.108584000      1.804785000
| 31> 9        1.378580000      1.042127000     -0.254790000
| 32> 9        2.506571000     -0.157563000     -1.685053000
| 33> 9        1.268007000     -2.343627000     -1.089464000
| 34> 9        0.472062000     -1.555934000      0.785668000
| 35> 9       -0.234262000     -0.148325000     -2.343858000
| 36> 9       -2.087903000     -1.869100000      0.029787000
| 37> 9       -2.666995000     -0.790698000     -1.791706000
| 38> 9       -1.956872000      1.574332000     -0.574141000
| 39> 9       -1.509865000      0.471648000      1.260596000
| 40> 9       -4.087170000     -0.484596000      1.289534000
| 41> 9       -3.890897000      1.665611000      1.308558000
| 42> 9       -4.532044000      0.660602000     -0.489724000
| 43> 1        5.919979000      0.476808000     -0.500753000
| 44> *
| 45> 
| 46>                          ****END OF INPUT****
================================================================================

                       ****************************
                       * Single Point Calculation *
                       ****************************

---------------------------------
CARTESIAN COORDINATES (ANGSTROEM)
---------------------------------
  C      4.236637    0.505276    0.328427
  O      5.182230   -0.137695   -0.327675
  O      4.243585    1.646921    0.682964
  C      3.018026   -0.407770    0.594970
  C      1.919770   -0.167918   -0.474551
  C      0.779737   -1.234734   -0.483853
  C     -0.442622   -0.751042   -1.191528
  C     -1.862208   -0.767476   -0.709709
  C     -2.249624    0.475033    0.140229
  C     -3.736082    0.572324    0.567329
  F      3.363198   -1.707106    0.578443
  F      2.521065   -0.108584    1.804785
  F      1.378580    1.042127   -0.254790
  F      2.506571   -0.157563   -1.685053
  F      1.268007   -2.343627   -1.089464
  F      0.472062   -1.555934    0.785668
  F     -0.234262   -0.148325   -2.343858
  F     -2.087903   -1.869100    0.029787
  F     -2.666995   -0.790698   -1.791706
  F     -1.956872    1.574332   -0.574141
  F     -1.509865    0.471648    1.260596
  F     -4.087170   -0.484596    1.289534
  F     -3.890897    1.665611    1.308558
  F     -4.532044    0.660602   -0.489724
  H      5.919979    0.476808   -0.500753

----------------------------
CARTESIAN COORDINATES (A.U.)
----------------------------
  NO LB      ZA    FRAG     MASS         X           Y           Z
   0 C     6.0000    0    12.011    8.006084    0.954833    0.620637
   1 O     8.0000    0    15.999    9.792995   -0.260206   -0.619216
   2 O     8.0000    0    15.999    8.019213    3.112230    1.290615
   3 C     6.0000    0    12.011    5.703243   -0.770574    1.124330
   4 C     6.0000    0    12.011    3.627840   -0.317319   -0.896771
   5 C     6.0000    0    12.011    1.473489   -2.333309   -0.914350
   6 C     6.0000    0    12.011   -0.836434   -1.419264   -2.251662
   7 C     6.0000    0    12.011   -3.519063   -1.450319   -1.341156
   8 C     6.0000    0    12.011   -4.251173    0.897682    0.264994
   9 C     6.0000    0    12.011   -7.060172    1.081536    1.072096
  10 F     9.0000    0    18.998    6.355523   -3.225963    1.093099
  11 F     9.0000    0    18.998    4.764122   -0.205194    3.410549
  12 F     9.0000    0    18.998    2.605139    1.969335   -0.481483
  13 F     9.0000    0    18.998    4.736733   -0.297751   -3.184289
  14 F     9.0000    0    18.998    2.396186   -4.428813   -2.058789
  15 F     9.0000    0    18.998    0.892068   -2.940289    1.484697
  16 F     9.0000    0    18.998   -0.442691   -0.280294   -4.429250
  17 F     9.0000    0    18.998   -3.945565   -3.532087    0.056289
  18 F     9.0000    0    18.998   -5.039890   -1.494203   -3.385834
  19 F     9.0000    0    18.998   -3.697952    2.975056   -1.084969
  20 F     9.0000    0    18.998   -2.853231    0.891286    2.382181
  21 F     9.0000    0    18.998   -7.723632   -0.915754    2.436866
  22 F     9.0000    0    18.998   -7.352730    3.147549    2.472816
  23 F     9.0000    0    18.998   -8.564322    1.248357   -0.925444
  24 H     1.0000    0     1.008   11.187139    0.901037   -0.946286

--------------------------------
INTERNAL COORDINATES (ANGSTROEM)
--------------------------------
 C      0   0   0     0.000000000000     0.00000000     0.00000000
 O      1   0   0     1.318342771397     0.00000000     0.00000000
 O      1   2   0     1.195448896899   127.53080596     0.00000000
 C      1   2   3     1.545868991307   111.29477049   178.86043500
 C      4   1   2     1.551634748541   110.35373333   262.52010379
 C      5   4   1     1.561364193950   114.53782650   167.81176826
 C      6   5   4     1.492957930208   112.28858613   161.62749776
 C      7   6   5     1.499214473154   128.27046297   230.50371569
 C      8   7   6     1.554449862807   113.76301958    86.35080505
 C      9   8   7     1.549657166745   116.10045779   175.09442831
 F      4   1   2     1.344503957677   111.48731802    23.57460030
 F      4   1   2     1.341691034606   108.40635778   143.26694455
 F      5   4   1     1.343648173908   108.15331579   289.30738656
 F      5   4   1     1.345272363364   108.22092936    46.56303763
 F      6   5   4     1.354553786924   107.38630007   283.15717386
 F      6   5   4     1.345182855624   108.93695572    39.87913555
 F      7   6   5     1.317021678101   115.68797638    45.21568268
 F      8   7   6     1.345870723516   110.14178825   324.70689440
 F      8   7   6     1.348680423474   107.90167107   205.75309672
 F      9   8   7     1.343311773865   108.00115864    54.06949763
 F      9   8   7     1.342563611526   108.47811085   296.05223883
 F     10   9   8     1.327374375287   110.71231391    59.31609415
 F     10   9   8     1.329911492933   108.47468846   178.50149460
 F     10   9   8     1.326163472403   111.11363995   297.86144185
 H      2   1   3     0.975624680958   108.87337146   359.40392986

---------------------------
INTERNAL COORDINATES (A.U.)
---------------------------
 C      0   0   0     0.000000000000     0.00000000     0.00000000
 O      1   0   0     2.491306788575     0.00000000     0.00000000
 O      1   2   0     2.259071022238   127.53080596     0.00000000
 C      1   2   3     2.921269032492   111.29477049   178.86043500
 C      4   1   2     2.932164734619   110.35373333   262.52010379
 C      5   4   1     2.950550721876   114.53782650   167.81176826
 C      6   5   4     2.821281617558   112.28858613   161.62749776
 C      7   6   5     2.833104770271   128.27046297   230.50371569
 C      8   7   6     2.937484529617   113.76301958    86.35080505
 C      9   8   7     2.928427646617   116.10045779   175.09442831
 F      4   1   2     2.540744265983   111.48731802    23.57460030
 F      4   1   2     2.535428611743   108.40635778   143.26694455
 F      5   4   1     2.539127069029   108.15331579   289.30738656
 F      5   4   1     2.542196342290   108.22092936    46.56303763
 F      6   5   4     2.559735690952   107.38630007   283.15717386
 F      6   5   4     2.542027197176   108.93695572    39.87913555
 F      7   6   5     2.488810284049   115.68797638    45.21568268
 F      8   7   6     2.543327079107   110.14178825   324.70689440
 F      8   7   6     2.548636642547   107.90167107   205.75309672
 F      9   8   7     2.538491365077   108.00115864    54.06949763
 F      9   8   7     2.537077543153   108.47811085   296.05223883
 F     10   9   8     2.508374046478   110.71231391    59.31609415
 F     10   9   8     2.513168503998   108.47468846   178.50149460
 F     10   9   8     2.506085771652   111.11363995   297.86144185
 H      2   1   3     1.843663456505   108.87337146   359.40392986

---------------------
BASIS SET INFORMATION
---------------------
There are 4 groups of distinct atoms

 Group   1 Type C   : 11s6p2d1f contracted to 5s3p2d1f pattern {62111/411/11/1}
 Group   2 Type O   : 11s6p2d1f contracted to 5s3p2d1f pattern {62111/411/11/1}
 Group   3 Type F   : 11s6p2d1f contracted to 5s3p2d1f pattern {62111/411/11/1}
 Group   4 Type H   : 5s1p contracted to 3s1p pattern {311/1}

Atom   0C    basis set group =>   1
Atom   1O    basis set group =>   2
Atom   2O    basis set group =>   2
Atom   3C    basis set group =>   1
Atom   4C    basis set group =>   1
Atom   5C    basis set group =>   1
Atom   6C    basis set group =>   1
Atom   7C    basis set group =>   1
Atom   8C    basis set group =>   1
Atom   9C    basis set group =>   1
Atom  10F    basis set group =>   3
Atom  11F    basis set group =>   3
Atom  12F    basis set group =>   3
Atom  13F    basis set group =>   3
Atom  14F    basis set group =>   3
Atom  15F    basis set group =>   3
Atom  16F    basis set group =>   3
Atom  17F    basis set group =>   3
Atom  18F    basis set group =>   3
Atom  19F    basis set group =>   3
Atom  20F    basis set group =>   3
Atom  21F    basis set group =>   3
Atom  22F    basis set group =>   3
Atom  23F    basis set group =>   3
Atom  24H    basis set group =>   4
---------------------------------
AUXILIARY/J BASIS SET INFORMATION
---------------------------------
There are 4 groups of distinct atoms

 Group   1 Type C   : 12s5p4d2f1g contracted to 6s4p3d1f1g pattern {711111/2111/211/2/1}
 Group   2 Type O   : 12s5p4d2f1g contracted to 6s4p3d1f1g pattern {711111/2111/211/2/1}
 Group   3 Type F   : 12s5p4d2f1g contracted to 6s4p3d1f1g pattern {711111/2111/211/2/1}
 Group   4 Type H   : 5s2p1d contracted to 3s1p1d pattern {311/2/1}

Atom   0C    basis set group =>   1
Atom   1O    basis set group =>   2
Atom   2O    basis set group =>   2
Atom   3C    basis set group =>   1
Atom   4C    basis set group =>   1
Atom   5C    basis set group =>   1
Atom   6C    basis set group =>   1
Atom   7C    basis set group =>   1
Atom   8C    basis set group =>   1
Atom   9C    basis set group =>   1
Atom  10F    basis set group =>   3
Atom  11F    basis set group =>   3
Atom  12F    basis set group =>   3
Atom  13F    basis set group =>   3
Atom  14F    basis set group =>   3
Atom  15F    basis set group =>   3
Atom  16F    basis set group =>   3
Atom  17F    basis set group =>   3
Atom  18F    basis set group =>   3
Atom  19F    basis set group =>   3
Atom  20F    basis set group =>   3
Atom  21F    basis set group =>   3
Atom  22F    basis set group =>   3
Atom  23F    basis set group =>   3
Atom  24H    basis set group =>   4


           ************************************************************
           *        Program running with 20 parallel MPI-processes    *
           *              working on a common directory               *
           ************************************************************
------------------------------------------------------------------------------
                             ORCA STARTUP CALCULATIONS
                           -- RI-GTO INTEGRALS CHOSEN --
------------------------------------------------------------------------------
------------------------------------------------------------------------------
                   ___                                                        
                  /   \      - P O W E R E D   B Y -                         
                 /     \                                                     
                 |  |  |   _    _      __       _____    __    __             
                 |  |  |  | |  | |    /  \     |  _  \  |  |  /  |          
                  \  \/   | |  | |   /    \    | | | |  |  | /  /          
                 / \  \   | |__| |  /  /\  \   | |_| |  |  |/  /          
                |  |  |   |  __  | /  /__\  \  |    /   |      \           
                |  |  |   | |  | | |   __   |  |    \   |  |\   \          
                \     /   | |  | | |  |  |  |  | |\  \  |  | \   \       
                 \___/    |_|  |_| |__|  |__|  |_| \__\ |__|  \__/        
                                                                              
                      - O R C A' S   B I G   F R I E N D -                    
                                      &                                       
                       - I N T E G R A L  F E E D E R -                       
                                                                              
 v1 FN, 2020, v2 2021, v3 2022-2024                                           
------------------------------------------------------------------------------


----------------------
SHARK INTEGRAL PACKAGE
----------------------

Number of atoms                             ...     25
Number of basis functions                   ...    750
Number of shells                            ...    268
Maximum angular momentum                    ...      3
Integral batch strategy                     ... SHARK/LIBINT Hybrid
RI-J (if used) integral strategy            ... SPLIT-RIJ (Revised 2003 algorithm where possible)
Printlevel                                  ...      1
Contraction scheme used                     ... SEGMENTED contraction
Prescreening option                         ... SCHWARTZ
   Thresh                                   ... 2.500e-11
   Tcut                                     ... 2.500e-12
   Tpresel                                  ... 2.500e-12 
Coulomb Range Separation                    ... NOT USED
Exchange Range Separation                   ... NOT USED
Multipole approximations                    ... NOT USED
Finite Nucleus Model                        ... NOT USED
CABS basis                                  ... NOT available
Auxiliary Coulomb fitting basis             ... AVAILABLE
   # of basis functions in Aux-J            ...   1187
   # of shells in Aux-J                     ...    365
   Maximum angular momentum in Aux-J        ...      4
Auxiliary J/K fitting basis                 ... NOT available
Auxiliary Correlation fitting basis         ... NOT available
Auxiliary 'external' fitting basis          ... NOT available

Checking pre-screening integrals            ... done (  0.0 sec) Dimension = 268
Check shell pair data                       ... done (  0.0 sec)
Shell pair information
Shell pair cut-off parameter TPreSel        ...   2.5e-12
Total number of shell pairs                 ...     36046
Shell pairs after pre-screening             ...     22970
Total number of primitive shell pairs       ...    118872
Primitive shell pairs kept                  ...     48628
          la=0 lb=0:   4377 shell pairs
          la=1 lb=0:   6282 shell pairs
          la=1 lb=1:   2155 shell pairs
          la=2 lb=0:   3404 shell pairs
          la=2 lb=1:   2486 shell pairs
          la=2 lb=2:    703 shell pairs
          la=3 lb=0:   1561 shell pairs
          la=3 lb=1:   1203 shell pairs
          la=3 lb=2:    641 shell pairs
          la=3 lb=3:    158 shell pairs

Calculating one electron integrals          ... done (  0.0 sec)
Calculating RI/J V-Matrix + Cholesky decomp.... done (  0.1 sec)
Calculating Nuclear repulsion               ... done (  0.0 sec) ENN=   2693.527357609974 Eh

Diagonalization of the overlap matrix:
Smallest eigenvalue                        ... 5.771e-05
Time for diagonalization                   ...    0.123 sec
Threshold for overlap eigenvalues          ... 1.000e-07
Number of eigenvalues below threshold      ... 0
Time for construction of square roots      ...    0.054 sec
Total time needed                          ...    0.191 sec

-------------------
DFT GRID GENERATION
-------------------

General Integration Accuracy     IntAcc      ... 4.388
Radial Grid Type                 RadialGrid  ... OptM3 with GC (2021)
Angular Grid (max. ang.)         AngularGrid ... 4 (Lebedev-302)
Angular grid pruning method      GridPruning ... 4 (adaptive)
Weight generation scheme         WeightScheme... mBecke (2022)
Basis function cutoff            BFCut       ... 1.0000e-11
Integration weight cutoff        WCut        ... 1.0000e-14
Partially contracted basis set               ... off
Rotationally invariant grid construction     ... off
Angular grids for H and He will be reduced by one unit

Total number of grid points                  ...   148623
Total number of batches                      ...     2338
Average number of points per batch           ...       63
Average number of grid points per atom       ...     5945

--------------------
COSX GRID GENERATION
--------------------

GRIDX 1
-------
General Integration Accuracy     IntAcc      ... 3.816
Radial Grid Type                 RadialGrid  ... OptM3 with GC (2021)
Angular Grid (max. ang.)         AngularGrid ... 1 (Lebedev-50)
Angular grid pruning method      GridPruning ... 4 (adaptive)
Weight generation scheme         WeightScheme... mBecke (2022)
Basis function cutoff            BFCut       ... 1.0000e-11
Integration weight cutoff        WCut        ... 1.0000e-14
Partially contracted basis set               ... on
Rotationally invariant grid construction     ... off
Angular grids for H and He will be reduced by one unit

Total number of grid points                  ...    18687
Total number of batches                      ...      158
Average number of points per batch           ...      118
Average number of grid points per atom       ...      747
UseSFitting                                  ... on

GRIDX 2
-------
General Integration Accuracy     IntAcc      ... 4.020
Radial Grid Type                 RadialGrid  ... OptM3 with GC (2021)
Angular Grid (max. ang.)         AngularGrid ... 2 (Lebedev-110)
Angular grid pruning method      GridPruning ... 4 (adaptive)
Weight generation scheme         WeightScheme... mBecke (2022)
Basis function cutoff            BFCut       ... 1.0000e-11
Integration weight cutoff        WCut        ... 1.0000e-14
Partially contracted basis set               ... on
Rotationally invariant grid construction     ... off
Angular grids for H and He will be reduced by one unit

Total number of grid points                  ...    44011
Total number of batches                      ...      358
Average number of points per batch           ...      122
Average number of grid points per atom       ...     1760
UseSFitting                                  ... on

GRIDX 3
-------
General Integration Accuracy     IntAcc      ... 4.338
Radial Grid Type                 RadialGrid  ... OptM3 with GC (2021)
Angular Grid (max. ang.)         AngularGrid ... 3 (Lebedev-194)
Angular grid pruning method      GridPruning ... 4 (adaptive)
Weight generation scheme         WeightScheme... mBecke (2022)
Basis function cutoff            BFCut       ... 1.0000e-11
Integration weight cutoff        WCut        ... 1.0000e-14
Partially contracted basis set               ... on
Rotationally invariant grid construction     ... off
Angular grids for H and He will be reduced by one unit

Total number of grid points                  ...    97452
Total number of batches                      ...      773
Average number of points per batch           ...      126
Average number of grid points per atom       ...     3898
UseSFitting                                  ... on
Initializing property integral containers    ... done (  0.0 sec)

SHARK setup successfully completed in   4.1 seconds

Maximum memory used throughout the entire STARTUP-calculation: 58.1 MB


           ************************************************************
           *        Program running with 20 parallel MPI-processes    *
           *              working on a common directory               *
           ************************************************************
-------------------------------------------------------------------------------
                                 ORCA GUESS
                   Start orbitals & Density for SCF / CASSCF
-------------------------------------------------------------------------------

------------
SCF SETTINGS
------------
Hamiltonian:
 Density Functional     Method          .... DFT(GTOs)
  Functional kind                       .... Exchange
  Functional name                       .... Re-regularized SCAN exchange by Furness et al
  Functional family                     .... MGGA
  Functional refs                              
    [ 0] J. W. Furness, A. D. Kaplan, J. Ning, J. P. Perdew, and J. Sun.,  J. Phys. Chem. Lett. 11, 8208-8215 (2020), doi: 10.1021/acs.jpclett.0c02405
    [ 1] J. W. Furness, A. D. Kaplan, J. Ning, J. P. Perdew, and J. Sun.,  J. Phys. Chem. Lett. 11, 9248-9248 (2020), doi: 10.1021/acs.jpclett.0c03077
  Functional external parameters        .... 6
    Parameter  0 _c1        =  6.670000e-01 : c1 parameter        
    Parameter  1 _c2        =  8.000000e-01 : c2 parameter        
    Parameter  2 _d         =  1.240000e+00 : d parameter         
    Parameter  3 _k1        =  6.500000e-02 : k1 parameter        
    Parameter  4 _eta       =  1.000000e-03 : eta parameter       
    Parameter  5 _dp2       =  3.610000e-01 : dp2 parameter       
  Functional kind                       .... Correlation
  Functional name                       .... Re-regularized SCAN correlation by Furness et al
  Functional family                     .... MGGA
  Functional refs                              
    [ 0] J. W. Furness, A. D. Kaplan, J. Ning, J. P. Perdew, and J. Sun.,  J. Phys. Chem. Lett. 11, 8208-8215 (2020), doi: 10.1021/acs.jpclett.0c02405
    [ 1] J. W. Furness, A. D. Kaplan, J. Ning, J. P. Perdew, and J. Sun.,  J. Phys. Chem. Lett. 11, 9248-9248 (2020), doi: 10.1021/acs.jpclett.0c03077
  Functional external parameters        .... 1
    Parameter  0 _eta       =  1.000000e-03 : Regularization parameter
 Gradients option       PostSCFGGA      .... off
 Hybrid DFT is turned on
   Fraction HF Exchange ScalHFX         ....  0.100000
   Scaling of DF-GGA-X  ScalDFX         ....  0.900000
   Scaling of DF-GGA-C  ScalDFC         ....  1.000000
   Scaling of DF-LDA-C  ScalLDAC        ....  1.000000
   Perturbative correction              ....  0.000000
   NL short-range parameter             .... 11.900000
 RI-approximation to the Coulomb term is turned on
   Number of AuxJ basis functions       .... 1187
   RIJ-COSX (HFX calculated with COS-X)).... on


General Settings:
 Integral files         IntName         .... rf_mecn_freq_r2s_C5_P_B
 Hartree-Fock type      HFTyp           .... UHF
 Total Charge           Charge          ....    0
 Multiplicity           Mult            ....    2
 Number of Electrons    NEL             ....  191
 Basis Dimension        Dim             ....  750
 Nuclear Repulsion      ENuc            ....   2693.5273576100 Eh

Convergence Acceleration:
 AO-DIIS                CNVDIIS         .... on
   Start iteration      DIISMaxIt       ....     0
   Startup error        DIISStart       ....  0.200000
   # of expansion vecs  DIISMaxEq       ....     5
   Bias factor          DIISBfac        ....   1.050
   Max. coefficient     DIISMaxC        ....  10.000
 MO-DIIS                CNVKDIIS        .... off
 Trust-Rad. Augm. Hess. CNVTRAH         .... auto
   Auto Start mean grad. ratio tolernc. ....  1.125000
   Auto Start start iteration           ....    50
   Auto Start num. interpolation iter.  ....    10
   Max. Number of Micro iterations      ....    24
   Max. Number of Macro iterations      .... Maxiter - #DIIS iter
   Number of Davidson start vectors     ....     2
   Converg. threshold    (grad. norm)   ....   1.000e-05
   Grad. Scal. Fac. for Micro threshold ....   0.100
   Minimum threshold for Micro iter.    ....   1.000e-02
   NR start threshold (gradient norm)   ....   1.000e-04
   Initial trust radius                 ....   0.400
   Minimum AH scaling param. (alpha)    ....   1.000
   Maximum AH scaling param. (alpha)    .... 1000.000
   Quad. conv. algorithm                .... NR
   White noise on init. David. guess    .... on
   Maximum white noise                  ....   0.010
   Pseudo random numbers                .... off
   Inactive MOs                         .... canonical
   Orbital update algorithm             .... Taylor
   Preconditioner                       .... Diag
   Full preconditioner red. dimension   ....   250
 SOSCF                  CNVSOSCF        .... on
   Start iteration      SOSCFMaxIt      ....   150
   Startup grad/error   SOSCFStart      ....  0.001000
   Hessian update       SOSCFHessUp     .... L-BFGS
 Level Shifting         CNVShift        .... on
   Level shift para.    LevelShift      ....    0.2500
   Turn off err/grad.   ShiftErr        ....    0.0000
 Zerner damping         CNVZerner       .... off
 Static damping         CNVDamp         .... on
   Fraction old density DampFac         ....    0.8500
   Max. Damping (<1)    DampMax         ....    0.9800
   Min. Damping (>=0)   DampMin         ....    0.0000
   Turn off err/grad.   DampErr         ....    0.0300

SCF Procedure:
 Maximum # iterations   MaxIter         ....  1500
 SCF integral mode      SCFMode         .... Direct
   Integral package                     .... SHARK and LIBINT hybrid scheme
 Reset frequency        DirectResetFreq ....    20
 Integral Threshold     Thresh          ....  2.500e-11 Eh
 Primitive CutOff       TCut            ....  2.500e-12 Eh

Convergence Tolerance:
 Convergence Check Mode ConvCheckMode   .... Total+1el-Energy
 Convergence forced     ConvForced      .... 0
 Energy Change          TolE            ....  1.000e-08 Eh
 1-El. energy change                    ....  1.000e-05 Eh
 Orbital Gradient       TolG            ....  1.000e-05
 Orbital Rotation angle TolX            ....  1.000e-05
 DIIS Error             TolErr          ....  5.000e-07

------------------------------
INITIAL GUESS: MODEL POTENTIAL
------------------------------
Loading Hartree-Fock densities                     ... done
Calculating cut-offs                               ... done
Initializing the effective Hamiltonian             ... done
Setting up the integral package (SHARK)            ... done
Starting the Coulomb interaction                   ... done (   0.2 sec)
Making the grid                                    ... done (   0.6 sec)
Mapping shells                                     ... done
Starting the XC term evaluation                    ... done (   0.2 sec)
  promolecular density results
     # of electrons  =    190.998315795
     EX              =   -197.617860176
     EC              =     -6.718297948
     EX+EC           =   -204.336158124
Transforming the Hamiltonian                       ... done (   0.1 sec)
Diagonalizing the Hamiltonian                      ... done (   0.1 sec)
Back transforming the eigenvectors                 ... done (   0.0 sec)
Now organizing SCF variables                       ... done
                      ------------------
                      INITIAL GUESS DONE (   1.4 sec)
                      ------------------
             **** ENERGY FILE WAS UPDATED (rf_mecn_freq_r2s_C5_P_B.en.tmp) ****
Finished Guess after   2.3 sec
Maximum memory used throughout the entire GUESS-calculation: 47.8 MB


           ************************************************************
           *        Program running with 20 parallel MPI-processes    *
           *              working on a common directory               *
           ************************************************************

-------------------------------------------------------------------------------------------
                                      ORCA LEAN-SCF
                              memory conserving SCF solver
-------------------------------------------------------------------------------------------

--------------------
CPCM SOLVATION MODEL
--------------------
CPCM parameters:
  Epsilon                                         ...      35.6880
  Refrac                                          ...       1.3442
  Rsolv                                           ...       1.3000
  Surface type                                    ... GAUSSIAN VDW
  Discretization scheme                           ... Constant charge density
    Threshold for H atoms                         ...       5.0000 (charges/Ang^2)
    Threshold for non-H atoms                     ...       5.0000 (charges/Ang^2)
  Epsilon function type                           ...         CPCM
Solvent:                                          ... ACETONITRILE
SMD-CDS solvent descriptors:
  Soln                                            ...       1.3442
  Soln25                                          ...       1.3416
  Sola                                            ...       0.0700
  Solb                                            ...       0.3200
  Solg                                            ...      41.2500
  Solc                                            ...       0.0000
  Solh                                            ...       0.0000
Radii:
  Scheme                                          ... Element-dependent radii
  Radius for C  used is    3.4960 Bohr (=   1.8500 Ang.)
  Radius for O  used is    4.0969 Bohr (=   2.1680 Ang.)
  Radius for F  used is    3.2692 Bohr (=   1.7300 Ang.)
  Radius for H  used is    2.2677 Bohr (=   1.2000 Ang.)
Calculating surface                               ...        done! (  0.0s)
Cavity surface points                             ...         2173
Cavity Volume                                     ...    2104.1798
Cavity Surface-area                               ...    1099.3127
Calculating surface distance matrix               ...        done! (  0.0s)
Performing Cholesky decomposition & store         ...        done! (  0.1s)
Overall time for CPCM initialization              ...                 0.2s

----------------------------------------D-I-I-S--------------------------------------------
Iteration    Energy (Eh)           Delta-E    RMSDP     MaxDP     DIISErr   Damp  Time(sec)
-------------------------------------------------------------------------------------------
               ***  Starting incremental Fock matrix formation  ***
    1    -1853.2046237877639214     0.00e+00  1.84e-04  1.37e-02  1.39e-01  0.850   8.2
Warning: op=1 Small HOMO/LUMO gap (   0.053) - skipping pre-diagonalization
         Will do a full diagonalization
    2    -1853.3130916394575252    -1.08e-01  1.73e-04  1.25e-02  9.45e-02  0.850   5.6
                               ***Turning on AO-DIIS***
    3    -1853.3726534993465975    -5.96e-02  8.65e-05  4.79e-03  5.59e-02  0.850   4.7
    4    -1853.4090527385487803    -3.64e-02  6.08e-05  4.16e-03  4.31e-02  0.850   4.5
    5    -1853.4352094892274181    -2.62e-02  5.15e-05  4.29e-03  3.70e-02  0.850   4.3
    6    -1853.4561076811241946    -2.09e-02  4.63e-05  4.46e-03  3.23e-02  0.850   4.5
    7    -1853.4736118630135024    -1.75e-02  4.23e-05  4.28e-03  2.76e-02  0.850   4.5
    8    -1853.4884569476980687    -1.48e-02  2.46e-04  2.49e-02  2.27e-02  0.000   4.4
    9    -1853.5657987303975460    -7.73e-02  1.81e-05  1.65e-03  3.46e-03  0.000   4.6
   10    -1853.5659687485176619    -1.70e-04  8.28e-06  9.77e-04  1.91e-03  0.000   4.1
                              *** Initializing SOSCF ***
---------------------------------------S-O-S-C-F--------------------------------------
Iteration    Energy (Eh)           Delta-E    RMSDP     MaxDP     MaxGrad    Time(sec)
--------------------------------------------------------------------------------------
   11    -1853.5660006130128750    -3.19e-05  4.01e-06  3.54e-04  5.85e-04     4.3
               *** Restarting incremental Fock matrix formation ***
   12    -1853.5660089907241854    -8.38e-06  3.01e-06  2.45e-04  1.72e-04     7.7
   13    -1853.5660091838453809    -1.93e-07  1.99e-06  1.70e-04  4.46e-04     4.8
   14    -1853.5660108069641865    -1.62e-06  1.02e-06  9.05e-05  5.66e-05     4.7
   15    -1853.5660108236779706    -1.67e-08  4.32e-07  3.05e-05  1.98e-05     4.7
   16    -1853.5660109135569655    -8.99e-08  2.01e-07  2.24e-05  4.54e-06     4.0
   17    -1853.5660108952952214     1.83e-08  1.37e-07  2.29e-05  6.72e-06     3.9
   18    -1853.5660109131440549    -1.78e-08  9.51e-08  1.08e-05  8.57e-07     3.6
                  *** Gradient check signals convergence ***

               *****************************************************
               *                     SUCCESS                       *
               *           SCF CONVERGED AFTER  18 CYCLES          *
               *****************************************************

Recomputing exchange energy using gridx3       ... done (    8.959 sec)
Old exchange energy                            :    -19.930650446 Eh
New exchange energy                            :    -19.930658305 Eh
Exchange energy change after final integration :     -0.000007860 Eh
Total energy after final integration           :  -1853.566018773 Eh

SMD CDS free energy correction energy :                 3.20453     Kcal/mol
Total Energy after SMD CDS correction =             -1853.560912026 Eh
             **** ENERGY FILE WAS UPDATED (rf_mecn_freq_r2s_C5_P_B.en.tmp) ****

----------------
TOTAL SCF ENERGY
----------------

Total Energy       :      -1853.56091202554512 Eh          -50437.95663 eV

Components:
Nuclear Repulsion  :       2693.52735760997439 Eh           73294.60563 eV
Electronic Energy  :      -4547.08036045073277 Eh         -123732.34704 eV
One Electron Energy:      -7937.96755203288285 Eh         -216003.07848 eV
Two Electron Energy:       3390.88719158215054 Eh           92270.73144 eV
CPCM Dielectric    :         -0.01300807238553 Eh              -0.35397 eV
SMD CDS (Gcds)     :          0.00510674711884 Eh               0.13896 eV

Virial components:
Potential Energy   :      -3700.96202935719612 Eh         -100708.29673 eV
Kinetic Energy     :       1847.40111733165077 Eh           50270.34010 eV
Virial Ratio       :          2.00333430278682

DFT components:
N(Alpha)           :       96.000003722417 electrons
N(Beta)            :       94.999983891418 electrons
N(Total)           :      190.999987613835 electrons
E(X)               :     -180.321354499936 Eh       
E(C)               :       -6.646940325532 Eh       
E(XC)              :     -186.968294825468 Eh       

CPCM Solvation Model Properties:
Surface-charge          :         -0.00828483057806
Corrected charge        :         -0.00000000000000
Outlying charge corr.   :          0.00000382221802 Eh               0.00010 eV
Free-energy (cav+disp)  :          0.00510674711884 Eh               0.13896 eV

---------------
SCF CONVERGENCE
---------------

  Last Energy change         ...    1.7849e-08  Tolerance :   1.0000e-08
  Last MAX-Density change    ...    1.0787e-05  Tolerance :   1.0000e-07
  Last RMS-Density change    ...    9.5106e-08  Tolerance :   5.0000e-09
  Last DIIS Error            ...    5.8508e-04  Tolerance :   5.0000e-07
  Last Orbital Gradient      ...    8.5696e-07  Tolerance :   1.0000e-05
  Last Orbital Rotation      ...    3.5088e-06  Tolerance :   1.0000e-05


----------------------
UHF SPIN CONTAMINATION
----------------------

Warning: in a DFT calculation there is little theoretical justification to 
         calculate <S**2> as in Hartree-Fock theory. We will do it anyways
         but you should keep in mind that the values have only limited relevance

Expectation value of <S**2>     :     0.757034
Ideal value S*(S+1) for S=0.5   :     0.750000
Deviation                       :     0.007034

----------------
ORBITAL ENERGIES
----------------
                 SPIN UP ORBITALS
  NO   OCC          E(Eh)            E(eV) 
   0   1.0000     -24.747544      -673.4149 
   1   1.0000     -24.731861      -672.9881 
   2   1.0000     -24.731755      -672.9853 
   3   1.0000     -24.731705      -672.9839 
   4   1.0000     -24.731639      -672.9821 
   5   1.0000     -24.730765      -672.9583 
   6   1.0000     -24.730477      -672.9505 
   7   1.0000     -24.730466      -672.9502 
   8   1.0000     -24.729319      -672.9190 
   9   1.0000     -24.727461      -672.8684 
  10   1.0000     -24.726763      -672.8494 
  11   1.0000     -24.722317      -672.7284 
  12   1.0000     -24.721315      -672.7012 
  13   1.0000     -24.720743      -672.6856 
  14   1.0000     -19.196783      -522.3710 
  15   1.0000     -19.140495      -520.8394 
  16   1.0000     -10.440187      -284.0919 
  17   1.0000     -10.388651      -282.6896 
  18   1.0000     -10.386871      -282.6411 
  19   1.0000     -10.382571      -282.5241 
  20   1.0000     -10.381368      -282.4914 
  21   1.0000     -10.374933      -282.3163 
  22   1.0000     -10.325850      -280.9807 
  23   1.0000     -10.313527      -280.6453 
  24   1.0000      -1.361335       -37.0438 
  25   1.0000      -1.333952       -36.2987 
  26   1.0000      -1.326979       -36.1089 
  27   1.0000      -1.314459       -35.7682 
  28   1.0000      -1.310365       -35.6568 
  29   1.0000      -1.308426       -35.6041 
  30   1.0000      -1.302324       -35.4380 
  31   1.0000      -1.272287       -34.6207 
  32   1.0000      -1.266125       -34.4530 
  33   1.0000      -1.265360       -34.4322 
  34   1.0000      -1.261235       -34.3199 
  35   1.0000      -1.254381       -34.1334 
  36   1.0000      -1.251974       -34.0680 
  37   1.0000      -1.249791       -34.0085 
  38   1.0000      -1.152442       -31.3595 
  39   1.0000      -1.065323       -28.9889 
  40   1.0000      -0.860767       -23.4227 
  41   1.0000      -0.831893       -22.6370 
  42   1.0000      -0.811095       -22.0710 
  43   1.0000      -0.774224       -21.0677 
  44   1.0000      -0.729299       -19.8452 
  45   1.0000      -0.698012       -18.9939 
  46   1.0000      -0.668923       -18.2023 
  47   1.0000      -0.660485       -17.9727 
  48   1.0000      -0.638945       -17.3866 
  49   1.0000      -0.635278       -17.2868 
  50   1.0000      -0.629775       -17.1371 
  51   1.0000      -0.624562       -16.9952 
  52   1.0000      -0.620510       -16.8849 
  53   1.0000      -0.613369       -16.6906 
  54   1.0000      -0.605240       -16.4694 
  55   1.0000      -0.601325       -16.3629 
  56   1.0000      -0.598049       -16.2737 
  57   1.0000      -0.589528       -16.0419 
  58   1.0000      -0.581413       -15.8211 
  59   1.0000      -0.578386       -15.7387 
  60   1.0000      -0.569351       -15.4928 
  61   1.0000      -0.561623       -15.2825 
  62   1.0000      -0.528473       -14.3805 
  63   1.0000      -0.512015       -13.9326 
  64   1.0000      -0.498928       -13.5765 
  65   1.0000      -0.493759       -13.4359 
  66   1.0000      -0.492833       -13.4107 
  67   1.0000      -0.491573       -13.3764 
  68   1.0000      -0.490405       -13.3446 
  69   1.0000      -0.482045       -13.1171 
  70   1.0000      -0.479073       -13.0362 
  71   1.0000      -0.477510       -12.9937 
  72   1.0000      -0.472742       -12.8640 
  73   1.0000      -0.469628       -12.7792 
  74   1.0000      -0.465675       -12.6717 
  75   1.0000      -0.465347       -12.6627 
  76   1.0000      -0.460988       -12.5441 
  77   1.0000      -0.454017       -12.3544 
  78   1.0000      -0.451864       -12.2958 
  79   1.0000      -0.447855       -12.1868 
  80   1.0000      -0.445866       -12.1326 
  81   1.0000      -0.443955       -12.0806 
  82   1.0000      -0.438413       -11.9298 
  83   1.0000      -0.432713       -11.7747 
  84   1.0000      -0.432067       -11.7571 
  85   1.0000      -0.430912       -11.7257 
  86   1.0000      -0.427642       -11.6367 
  87   1.0000      -0.426509       -11.6059 
  88   1.0000      -0.423148       -11.5144 
  89   1.0000      -0.414724       -11.2852 
  90   1.0000      -0.400233       -10.8909 
  91   1.0000      -0.368137       -10.0175 
  92   1.0000      -0.351412        -9.5624 
  93   1.0000      -0.347631        -9.4595 
  94   1.0000      -0.303898        -8.2695 
  95   1.0000      -0.270041        -7.3482 
  96   0.0000      -0.061065        -1.6617 
  97   0.0000      -0.004792        -0.1304 
  98   0.0000       0.019071         0.5190 
  99   0.0000       0.036561         0.9949 
 100   0.0000       0.043427         1.1817 
 101   0.0000       0.058373         1.5884 
 102   0.0000       0.076669         2.0863 
 103   0.0000       0.099967         2.7202 
 104   0.0000       0.106710         2.9037 
 105   0.0000       0.119549         3.2531 
 106   0.0000       0.128369         3.4931 

                 SPIN DOWN ORBITALS
  NO   OCC          E(Eh)            E(eV) 
   0   1.0000     -24.742372      -673.2742 
   1   1.0000     -24.731866      -672.9883 
   2   1.0000     -24.731758      -672.9854 
   3   1.0000     -24.731701      -672.9838 
   4   1.0000     -24.731621      -672.9816 
   5   1.0000     -24.730702      -672.9566 
   6   1.0000     -24.730342      -672.9468 
   7   1.0000     -24.730322      -672.9463 
   8   1.0000     -24.729162      -672.9147 
   9   1.0000     -24.726886      -672.8528 
  10   1.0000     -24.726224      -672.8348 
  11   1.0000     -24.722320      -672.7285 
  12   1.0000     -24.720735      -672.6854 
  13   1.0000     -24.719734      -672.6581 
  14   1.0000     -19.196779      -522.3709 
  15   1.0000     -19.140469      -520.8386 
  16   1.0000     -10.440025      -284.0875 
  17   1.0000     -10.389798      -282.7208 
  18   1.0000     -10.387893      -282.6689 
  19   1.0000     -10.381788      -282.5028 
  20   1.0000     -10.380900      -282.4786 
  21   1.0000     -10.374883      -282.3149 
  22   1.0000     -10.325830      -280.9801 
  23   1.0000     -10.296533      -280.1829 
  24   1.0000      -1.361177       -37.0395 
  25   1.0000      -1.332865       -36.2691 
  26   1.0000      -1.326122       -36.0856 
  27   1.0000      -1.312812       -35.7234 
  28   1.0000      -1.309530       -35.6341 
  29   1.0000      -1.308135       -35.5962 
  30   1.0000      -1.294912       -35.2363 
  31   1.0000      -1.272141       -34.6167 
  32   1.0000      -1.265924       -34.4475 
  33   1.0000      -1.264902       -34.4197 
  34   1.0000      -1.260903       -34.3109 
  35   1.0000      -1.253418       -34.1072 
  36   1.0000      -1.250500       -34.0278 
  37   1.0000      -1.249423       -33.9985 
  38   1.0000      -1.152418       -31.3589 
  39   1.0000      -1.065287       -28.9879 
  40   1.0000      -0.846375       -23.0310 
  41   1.0000      -0.830571       -22.6010 
  42   1.0000      -0.802942       -21.8492 
  43   1.0000      -0.771985       -21.0068 
  44   1.0000      -0.723764       -19.6946 
  45   1.0000      -0.696230       -18.9454 
  46   1.0000      -0.662964       -18.0402 
  47   1.0000      -0.660236       -17.9659 
  48   1.0000      -0.636250       -17.3133 
  49   1.0000      -0.633457       -17.2373 
  50   1.0000      -0.629073       -17.1180 
  51   1.0000      -0.623575       -16.9683 
  52   1.0000      -0.619353       -16.8534 
  53   1.0000      -0.611106       -16.6290 
  54   1.0000      -0.604313       -16.4442 
  55   1.0000      -0.599725       -16.3193 
  56   1.0000      -0.596059       -16.2196 
  57   1.0000      -0.588161       -16.0047 
  58   1.0000      -0.580458       -15.7951 
  59   1.0000      -0.575963       -15.6727 
  60   1.0000      -0.567749       -15.4492 
  61   1.0000      -0.561112       -15.2686 
  62   1.0000      -0.512097       -13.9349 
  63   1.0000      -0.503644       -13.7049 
  64   1.0000      -0.497061       -13.5257 
  65   1.0000      -0.493448       -13.4274 
  66   1.0000      -0.491330       -13.3698 
  67   1.0000      -0.490434       -13.3454 
  68   1.0000      -0.486401       -13.2356 
  69   1.0000      -0.481595       -13.1049 
  70   1.0000      -0.478040       -13.0081 
  71   1.0000      -0.475406       -12.9365 
  72   1.0000      -0.472259       -12.8508 
  73   1.0000      -0.469031       -12.7630 
  74   1.0000      -0.464785       -12.6474 
  75   1.0000      -0.463485       -12.6121 
  76   1.0000      -0.458638       -12.4802 
  77   1.0000      -0.451912       -12.2971 
  78   1.0000      -0.450988       -12.2720 
  79   1.0000      -0.447030       -12.1643 
  80   1.0000      -0.445431       -12.1208 
  81   1.0000      -0.442917       -12.0524 
  82   1.0000      -0.438125       -11.9220 
  83   1.0000      -0.431813       -11.7502 
  84   1.0000      -0.431078       -11.7302 
  85   1.0000      -0.429632       -11.6909 
  86   1.0000      -0.427191       -11.6245 
  87   1.0000      -0.426242       -11.5986 
  88   1.0000      -0.422079       -11.4853 
  89   1.0000      -0.413151       -11.2424 
  90   1.0000      -0.398355       -10.8398 
  91   1.0000      -0.364304        -9.9132 
  92   1.0000      -0.351026        -9.5519 
  93   1.0000      -0.345211        -9.3937 
  94   1.0000      -0.303283        -8.2528 
  95   0.0000      -0.129280        -3.5179 
  96   0.0000      -0.059934        -1.6309 
  97   0.0000      -0.001959        -0.0533 
  98   0.0000       0.021727         0.5912 
  99   0.0000       0.041414         1.1269 
 100   0.0000       0.049915         1.3583 
 101   0.0000       0.059449         1.6177 
 102   0.0000       0.091455         2.4886 
 103   0.0000       0.102473         2.7884 
 104   0.0000       0.111566         3.0359 
 105   0.0000       0.127366         3.4658 
*Only the first 10 virtual orbitals were printed.

                    ********************************
                    * MULLIKEN POPULATION ANALYSIS *
                    ********************************

--------------------------------------------
MULLIKEN ATOMIC CHARGES AND SPIN POPULATIONS
--------------------------------------------
   0 C :    0.283098    0.000861
   1 O :   -0.365332   -0.000038
   2 O :   -0.327570    0.000836
   3 C :    0.413586    0.002185
   4 C :    0.287840    0.008815
   5 C :    0.371390   -0.007456
   6 C :    0.096751    0.848016
   7 C :    0.376008   -0.034821
   8 C :    0.317281    0.031396
   9 C :    0.477049    0.005643
  10 F :   -0.173972   -0.000057
  11 F :   -0.171285    0.000194
  12 F :   -0.170613    0.000696
  13 F :   -0.170664    0.002136
  14 F :   -0.170884    0.026772
  15 F :   -0.173276    0.001923
  16 F :   -0.143253    0.091783
  17 F :   -0.167786    0.008606
  18 F :   -0.168651    0.009202
  19 F :   -0.170276    0.000172
  20 F :   -0.169649    0.000309
  21 F :   -0.156858   -0.000058
  22 F :   -0.156003    0.002821
  23 F :   -0.155894   -0.000039
  24 H :    0.388964    0.000103
Sum of atomic charges         :    0.0000000
Sum of atomic spin populations:    1.0000000

-----------------------------------------------------
MULLIKEN REDUCED ORBITAL CHARGES AND SPIN POPULATIONS
-----------------------------------------------------
CHARGE
  0 C s       :     3.067671  s :     3.067671
      pz      :     0.758473  p :     2.361214
      px      :     0.811902
      py      :     0.790839
      dz2     :     0.040713  d :     0.263309
      dxz     :     0.020927
      dyz     :     0.054494
      dx2y2   :     0.044290
      dxy     :     0.102884
      f0      :     0.001774  f :     0.024707
      f+1     :     0.002613
      f-1     :     0.003398
      f+2     :     0.004008
      f-2     :     0.002829
      f+3     :     0.006733
      f-3     :     0.003352

  1 O s       :     3.786575  s :     3.786575
      pz      :     1.621193  p :     4.544345
      px      :     1.337636
      py      :     1.585516
      dz2     :     0.005452  d :     0.032573
      dxz     :     0.003694
      dyz     :     0.005816
      dx2y2   :     0.004520
      dxy     :     0.013091
      f0      :     0.000229  f :     0.001838
      f+1     :     0.000404
      f-1     :     0.000176
      f+2     :     0.000227
      f-2     :     0.000311
      f+3     :     0.000170
      f-3     :     0.000321

  2 O s       :     3.827526  s :     3.827526
      pz      :     1.439107  p :     4.465697
      px      :     1.694687
      py      :     1.331902
      dz2     :     0.004226  d :     0.032264
      dxz     :     0.001079
      dyz     :     0.010284
      dx2y2   :     0.008064
      dxy     :     0.008612
      f0      :     0.000160  f :     0.002083
      f+1     :     0.000011
      f-1     :     0.000428
      f+2     :     0.000423
      f-2     :     0.000144
      f+3     :     0.000518
      f-3     :     0.000399

  3 C s       :     3.039676  s :     3.039676
      pz      :     0.692668  p :     2.234173
      px      :     0.897552
      py      :     0.643954
      dz2     :     0.049571  d :     0.284865
      dxz     :     0.052067
      dyz     :     0.072801
      dx2y2   :     0.047014
      dxy     :     0.063411
      f0      :     0.006059  f :     0.027700
      f+1     :     0.003096
      f-1     :     0.003889
      f+2     :     0.004495
      f-2     :     0.002599
      f+3     :     0.003653
      f-3     :     0.003909

  4 C s       :     3.160013  s :     3.160013
      pz      :     0.696243  p :     2.235035
      px      :     0.842432
      py      :     0.696360
      dz2     :     0.057742  d :     0.289047
      dxz     :     0.054666
      dyz     :     0.066129
      dx2y2   :     0.052252
      dxy     :     0.058258
      f0      :     0.005588  f :     0.028065
      f+1     :     0.002970
      f-1     :     0.004732
      f+2     :     0.003567
      f-2     :     0.003733
      f+3     :     0.002631
      f-3     :     0.004844

  5 C s       :     3.070510  s :     3.070510
      pz      :     0.621833  p :     2.232990
      px      :     0.873056
      py      :     0.738101
      dz2     :     0.064746  d :     0.297490
      dxz     :     0.066869
      dyz     :     0.062906
      dx2y2   :     0.042651
      dxy     :     0.060318
      f0      :     0.004266  f :     0.027621
      f+1     :     0.003999
      f-1     :     0.006786
      f+2     :     0.003500
      f-2     :     0.003138
      f+3     :     0.002396
      f-3     :     0.003537

  6 C s       :     3.232104  s :     3.232104
      pz      :     0.689734  p :     2.496274
      px      :     0.887859
      py      :     0.918680
      dz2     :     0.031473  d :     0.156765
      dxz     :     0.055929
      dyz     :     0.024913
      dx2y2   :     0.021697
      dxy     :     0.022752
      f0      :     0.004136  f :     0.018107
      f+1     :     0.003194
      f-1     :     0.001965
      f+2     :     0.002931
      f-2     :     0.002592
      f+3     :     0.001810
      f-3     :     0.001480

  7 C s       :     3.058806  s :     3.058806
      pz      :     0.683846  p :     2.232675
      px      :     0.803624
      py      :     0.745205
      dz2     :     0.070733  d :     0.304636
      dxz     :     0.054860
      dyz     :     0.067413
      dx2y2   :     0.051642
      dxy     :     0.059987
      f0      :     0.004287  f :     0.027875
      f+1     :     0.002622
      f-1     :     0.005146
      f+2     :     0.003956
      f-2     :     0.005721
      f+3     :     0.002998
      f-3     :     0.003146

  8 C s       :     3.116696  s :     3.116696
      pz      :     0.669193  p :     2.247044
      px      :     0.828300
      py      :     0.749551
      dz2     :     0.068775  d :     0.290791
      dxz     :     0.050108
      dyz     :     0.067994
      dx2y2   :     0.060079
      dxy     :     0.043834
      f0      :     0.004782  f :     0.028188
      f+1     :     0.002419
      f-1     :     0.005469
      f+2     :     0.004029
      f-2     :     0.005611
      f+3     :     0.002992
      f-3     :     0.002884

  9 C s       :     3.019214  s :     3.019214
      pz      :     0.640167  p :     2.106115
      px      :     0.843597
      py      :     0.622351
      dz2     :     0.083447  d :     0.357019
      dxz     :     0.059637
      dyz     :     0.078544
      dx2y2   :     0.065826
      dxy     :     0.069564
      f0      :     0.005278  f :     0.040603
      f+1     :     0.002857
      f-1     :     0.009898
      f+2     :     0.005442
      f-2     :     0.008309
      f+3     :     0.004720
      f-3     :     0.004100

 10 F s       :     3.927806  s :     3.927806
      pz      :     1.888873  p :     5.228495
      px      :     1.873980
      py      :     1.465642
      dz2     :     0.002319  d :     0.016956
      dxz     :     0.000438
      dyz     :     0.003280
      dx2y2   :     0.006138
      dxy     :     0.004781
      f0      :     0.000059  f :     0.000714
      f+1     :     0.000020
      f-1     :     0.000132
      f+2     :     0.000072
      f-2     :     0.000033
      f+3     :     0.000202
      f-3     :     0.000196

 11 F s       :     3.926295  s :     3.926295
      pz      :     1.517802  p :     5.227258
      px      :     1.837752
      py      :     1.871704
      dz2     :     0.006541  d :     0.017002
      dxz     :     0.005138
      dyz     :     0.003552
      dx2y2   :     0.000874
      dxy     :     0.000897
      f0      :     0.000201  f :     0.000729
      f+1     :     0.000221
      f-1     :     0.000140
      f+2     :     0.000070
      f-2     :     0.000080
      f+3     :     0.000010
      f-3     :     0.000007

 12 F s       :     3.931415  s :     3.931415
      pz      :     1.879992  p :     5.221311
      px      :     1.821210
      py      :     1.520109
      dz2     :     0.002337  d :     0.017169
      dxz     :     0.000875
      dyz     :     0.003320
      dx2y2   :     0.005081
      dxy     :     0.005557
      f0      :     0.000068  f :     0.000719
      f+1     :     0.000032
      f-1     :     0.000112
      f+2     :     0.000057
      f-2     :     0.000077
      f+3     :     0.000215
      f-3     :     0.000157

 13 F s       :     3.929346  s :     3.929346
      pz      :     1.525257  p :     5.223533
      px      :     1.808644
      py      :     1.889632
      dz2     :     0.006533  d :     0.017073
      dxz     :     0.005861
      dyz     :     0.002902
      dx2y2   :     0.000952
      dxy     :     0.000825
      f0      :     0.000198  f :     0.000712
      f+1     :     0.000258
      f-1     :     0.000090
      f+2     :     0.000081
      f-2     :     0.000067
      f+3     :     0.000008
      f-3     :     0.000009

 14 F s       :     3.926992  s :     3.926992
      pz      :     1.805844  p :     5.226867
      px      :     1.841485
      py      :     1.579538
      dz2     :     0.002039  d :     0.016338
      dxz     :     0.001570
      dyz     :     0.004746
      dx2y2   :     0.003853
      dxy     :     0.004129
      f0      :     0.000076  f :     0.000688
      f+1     :     0.000026
      f-1     :     0.000099
      f+2     :     0.000118
      f-2     :     0.000133
      f+3     :     0.000133
      f-3     :     0.000103

 15 F s       :     3.932689  s :     3.932689
      pz      :     1.484228  p :     5.222782
      px      :     1.878567
      py      :     1.859986
      dz2     :     0.007453  d :     0.017097
      dxz     :     0.004273
      dyz     :     0.004084
      dx2y2   :     0.000527
      dxy     :     0.000760
      f0      :     0.000256  f :     0.000708
      f+1     :     0.000177
      f-1     :     0.000173
      f+2     :     0.000037
      f-2     :     0.000057
      f+3     :     0.000003
      f-3     :     0.000004

 16 F s       :     3.931992  s :     3.931992
      pz      :     1.539760  p :     5.191653
      px      :     1.890465
      py      :     1.761429
      dz2     :     0.006672  d :     0.018828
      dxz     :     0.003751
      dyz     :     0.006007
      dx2y2   :     0.001305
      dxy     :     0.001093
      f0      :     0.000201  f :     0.000780
      f+1     :     0.000114
      f-1     :     0.000248
      f+2     :     0.000104
      f-2     :     0.000093
      f+3     :     0.000011
      f-3     :     0.000009

 17 F s       :     3.929584  s :     3.929584
      pz      :     1.757498  p :     5.220615
      px      :     1.879964
      py      :     1.583152
      dz2     :     0.002333  d :     0.016880
      dxz     :     0.001504
      dyz     :     0.006066
      dx2y2   :     0.004172
      dxy     :     0.002804
      f0      :     0.000074  f :     0.000708
      f+1     :     0.000011
      f-1     :     0.000151
      f+2     :     0.000190
      f-2     :     0.000103
      f+3     :     0.000078
      f-3     :     0.000100

 18 F s       :     3.928385  s :     3.928385
      pz      :     1.606131  p :     5.222812
      px      :     1.726560
      py      :     1.890121
      dz2     :     0.004527  d :     0.016750
      dxz     :     0.006526
      dyz     :     0.002486
      dx2y2   :     0.001904
      dxy     :     0.001308
      f0      :     0.000105  f :     0.000703
      f+1     :     0.000256
      f-1     :     0.000059
      f+2     :     0.000149
      f-2     :     0.000088
      f+3     :     0.000027
      f-3     :     0.000019

 19 F s       :     3.929452  s :     3.929452
      pz      :     1.765555  p :     5.222979
      px      :     1.870487
      py      :     1.586937
      dz2     :     0.002306  d :     0.017125
      dxz     :     0.001566
      dyz     :     0.005907
      dx2y2   :     0.004199
      dxy     :     0.003147
      f0      :     0.000075  f :     0.000720
      f+1     :     0.000014
      f-1     :     0.000145
      f+2     :     0.000178
      f-2     :     0.000116
      f+3     :     0.000088
      f-3     :     0.000105

 20 F s       :     3.930055  s :     3.930055
      pz      :     1.580864  p :     5.221673
      px      :     1.750647
      py      :     1.890162
      dz2     :     0.005206  d :     0.017199
      dxz     :     0.006397
      dyz     :     0.002753
      dx2y2   :     0.001680
      dxy     :     0.001163
      f0      :     0.000131  f :     0.000722
      f+1     :     0.000265
      f-1     :     0.000074
      f+2     :     0.000133
      f-2     :     0.000083
      f+3     :     0.000021
      f-3     :     0.000014

 21 F s       :     3.923739  s :     3.923739
      pz      :     1.754289  p :     5.214936
      px      :     1.854572
      py      :     1.606075
      dz2     :     0.002277  d :     0.017408
      dxz     :     0.001917
      dyz     :     0.006025
      dx2y2   :     0.003936
      dxy     :     0.003253
      f0      :     0.000082  f :     0.000775
      f+1     :     0.000020
      f-1     :     0.000147
      f+2     :     0.000185
      f-2     :     0.000139
      f+3     :     0.000098
      f-3     :     0.000103

 22 F s       :     3.923025  s :     3.923025
      pz      :     1.749015  p :     5.214895
      px      :     1.878123
      py      :     1.587757
      dz2     :     0.002285  d :     0.017311
      dxz     :     0.001536
      dyz     :     0.006506
      dx2y2   :     0.004171
      dxy     :     0.002812
      f0      :     0.000082  f :     0.000773
      f+1     :     0.000011
      f-1     :     0.000162
      f+2     :     0.000217
      f-2     :     0.000109
      f+3     :     0.000080
      f-3     :     0.000112

 23 F s       :     3.923500  s :     3.923500
      pz      :     1.609165  p :     5.214137
      px      :     1.719883
      py      :     1.885089
      dz2     :     0.004701  d :     0.017478
      dxz     :     0.006831
      dyz     :     0.002510
      dx2y2   :     0.002063
      dxy     :     0.001372
      f0      :     0.000116  f :     0.000779
      f+1     :     0.000282
      f-1     :     0.000067
      f+2     :     0.000163
      f-2     :     0.000100
      f+3     :     0.000030
      f-3     :     0.000022

 24 H s       :     0.567484  s :     0.567484
      pz      :     0.012677  p :     0.043552
      px      :     0.016961
      py      :     0.013915


SPIN
  0 C s       :     0.000564  s :     0.000564
      pz      :    -0.000049  p :     0.000229
      px      :    -0.000174
      py      :     0.000452
      dz2     :    -0.000013  d :     0.000064
      dxz     :     0.000006
      dyz     :     0.000053
      dx2y2   :     0.000008
      dxy     :     0.000010
      f0      :     0.000001  f :     0.000005
      f+1     :     0.000001
      f-1     :    -0.000002
      f+2     :     0.000002
      f-2     :     0.000001
      f+3     :     0.000003
      f-3     :    -0.000001

  1 O s       :    -0.000049  s :    -0.000049
      pz      :     0.000063  p :     0.000005
      px      :    -0.000042
      py      :    -0.000016
      dz2     :    -0.000000  d :     0.000006
      dxz     :     0.000001
      dyz     :     0.000002
      dx2y2   :     0.000001
      dxy     :     0.000002
      f0      :     0.000000  f :     0.000000
      f+1     :     0.000000
      f-1     :     0.000000
      f+2     :     0.000000
      f-2     :     0.000000
      f+3     :     0.000000
      f-3     :     0.000000

  2 O s       :     0.000034  s :     0.000034
      pz      :     0.000735  p :     0.000803
      px      :    -0.000106
      py      :     0.000174
      dz2     :    -0.000000  d :    -0.000001
      dxz     :    -0.000000
      dyz     :    -0.000002
      dx2y2   :    -0.000000
      dxy     :     0.000001
      f0      :    -0.000000  f :    -0.000001
      f+1     :    -0.000000
      f-1     :    -0.000000
      f+2     :    -0.000000
      f-2     :    -0.000000
      f+3     :     0.000000
      f-3     :     0.000000

  3 C s       :    -0.000104  s :    -0.000104
      pz      :     0.000709  p :     0.001932
      px      :     0.000619
      py      :     0.000604
      dz2     :     0.000000  d :     0.000339
      dxz     :     0.000008
      dyz     :     0.000097
      dx2y2   :     0.000135
      dxy     :     0.000099
      f0      :    -0.000002  f :     0.000017
      f+1     :     0.000000
      f-1     :     0.000003
      f+2     :     0.000002
      f-2     :     0.000011
      f+3     :    -0.000000
      f-3     :     0.000003

  4 C s       :    -0.001699  s :    -0.001699
      pz      :     0.000909  p :     0.010364
      px      :    -0.001708
      py      :     0.011164
      dz2     :    -0.000179  d :     0.000122
      dxz     :     0.000096
      dyz     :    -0.000041
      dx2y2   :     0.000192
      dxy     :     0.000054
      f0      :    -0.000008  f :     0.000027
      f+1     :    -0.000011
      f-1     :     0.000004
      f+2     :    -0.000001
      f-2     :    -0.000007
      f+3     :     0.000049
      f-3     :     0.000002

  5 C s       :    -0.012892  s :    -0.012892
      pz      :    -0.007929  p :    -0.012347
      px      :    -0.020590
      py      :     0.016171
      dz2     :     0.000986  d :     0.016343
      dxz     :     0.002324
      dyz     :    -0.000885
      dx2y2   :     0.004195
      dxy     :     0.009724
      f0      :     0.000013  f :     0.001440
      f+1     :     0.000392
      f-1     :     0.000056
      f+2     :     0.000368
      f-2     :     0.000159
      f+3     :     0.000208
      f-3     :     0.000244

  6 C s       :     0.062033  s :     0.062033
      pz      :     0.146306  p :     0.786698
      px      :     0.042226
      py      :     0.598166
      dz2     :     0.000191  d :     0.002313
      dxz     :     0.001943
      dyz     :     0.000157
      dx2y2   :    -0.001709
      dxy     :     0.001731
      f0      :    -0.000446  f :    -0.003029
      f+1     :    -0.000026
      f-1     :    -0.000918
      f+2     :    -0.000582
      f-2     :    -0.000350
      f+3     :    -0.000508
      f-3     :    -0.000198

  7 C s       :    -0.010393  s :    -0.010393
      pz      :    -0.011158  p :    -0.046630
      px      :    -0.024409
      py      :    -0.011063
      dz2     :    -0.000104  d :     0.020829
      dxz     :     0.005052
      dyz     :     0.004238
      dx2y2   :    -0.000531
      dxy     :     0.012175
      f0      :     0.000098  f :     0.001373
      f+1     :     0.000234
      f-1     :     0.000037
      f+2     :     0.000044
      f-2     :     0.000111
      f+3     :     0.000009
      f-3     :     0.000840

  8 C s       :     0.000453  s :     0.000453
      pz      :     0.007150  p :     0.026671
      px      :     0.005221
      py      :     0.014300
      dz2     :     0.000134  d :     0.004306
      dxz     :     0.001301
      dyz     :     0.000115
      dx2y2   :     0.001672
      dxy     :     0.001085
      f0      :    -0.000006  f :    -0.000033
      f+1     :    -0.000009
      f-1     :    -0.000019
      f+2     :     0.000010
      f-2     :     0.000002
      f+3     :    -0.000028
      f-3     :     0.000016

  9 C s       :     0.001586  s :     0.001586
      pz      :    -0.000064  p :     0.003602
      px      :     0.003299
      py      :     0.000368
      dz2     :     0.000007  d :     0.000398
      dxz     :     0.000074
      dyz     :     0.000078
      dx2y2   :     0.000082
      dxy     :     0.000157
      f0      :     0.000001  f :     0.000056
      f+1     :     0.000003
      f-1     :    -0.000002
      f+2     :     0.000001
      f-2     :     0.000018
      f+3     :     0.000010
      f-3     :     0.000024

 10 F s       :    -0.000025  s :    -0.000025
      pz      :    -0.000016  p :    -0.000042
      px      :    -0.000018
      py      :    -0.000008
      dz2     :     0.000000  d :     0.000009
      dxz     :     0.000001
      dyz     :     0.000003
      dx2y2   :     0.000000
      dxy     :     0.000004
      f0      :     0.000000  f :     0.000000
      f+1     :     0.000000
      f-1     :     0.000000
      f+2     :     0.000000
      f-2     :     0.000000
      f+3     :     0.000000
      f-3     :     0.000000

 11 F s       :     0.000025  s :     0.000025
      pz      :    -0.000020  p :     0.000165
      px      :     0.000124
      py      :     0.000061
      dz2     :     0.000003  d :     0.000005
      dxz     :     0.000000
      dyz     :     0.000000
      dx2y2   :     0.000002
[...]
 19:    207.72   0.001011    5.11  0.001519  (-0.023483  0.029985  0.008269)
 20:    214.66   0.000588    2.97  0.000855  ( 0.008896 -0.003812  0.027586)
 21:    224.46   0.000306    1.54  0.000425  ( 0.002027 -0.007208  0.019209)
 22:    230.36   0.000060    0.30  0.000082  ( 0.000821  0.005566  0.007073)
 23:    241.85   0.000103    0.52  0.000133  ( 0.002822 -0.006368 -0.009194)
 24:    260.81   0.000420    2.12  0.000503  (-0.018199 -0.012455  0.004098)
 25:    281.79   0.000691    3.49  0.000765  (-0.023473  0.014297  0.003177)
 26:    286.58   0.000302    1.53  0.000329  ( 0.008682  0.011244  0.011294)
 27:    313.71   0.000014    0.07  0.000013  ( 0.003036 -0.001927 -0.000711)
 28:    334.94   0.000039    0.20  0.000037  (-0.004761 -0.003559 -0.001206)
 29:    341.91   0.000240    1.21  0.000219  (-0.011613 -0.006472 -0.006472)
 30:    357.29   0.000318    1.61  0.000278  ( 0.001905 -0.010674 -0.012670)
 31:    369.93   0.000007    0.04  0.000006  ( 0.000666 -0.001380 -0.001898)
 32:    375.58   0.000031    0.16  0.000026  ( 0.001156  0.002841  0.004085)
 33:    378.99   0.000563    2.85  0.000464  ( 0.010000  0.019021  0.001323)
 34:    397.90   0.000410    2.07  0.000321  ( 0.012196 -0.011360  0.006588)
 35:    432.43   0.000453    2.29  0.000327  (-0.016892 -0.005022  0.004017)
 36:    470.51   0.000388    1.96  0.000258  (-0.012034 -0.010591 -0.000830)
 37:    509.63   0.002479   12.53  0.001518  ( 0.028566  0.016190 -0.020974)
 38:    528.62   0.001978    9.99  0.001168  ( 0.021568 -0.012116 -0.023571)
 39:    536.44   0.001898    9.59  0.001104  ( 0.013196 -0.027747 -0.012663)
 40:    554.16   0.007733   39.08  0.004355  (-0.063714 -0.014060  0.009887)
 41:    575.77   0.010001   50.54  0.005420  ( 0.029951 -0.031925  0.059195)
 42:    586.88   0.011413   57.68  0.006069  ( 0.075039  0.020275 -0.005189)
 43:    603.02   0.004978   25.16  0.002576  (-0.015074  0.019164 -0.044516)
 44:    616.82   0.004052   20.47  0.002050  ( 0.018044 -0.019213  0.036811)
 45:    632.85   0.024760  125.13  0.012209  (-0.109477  0.014484 -0.003778)
 46:    644.60   0.034716  175.44  0.016807  ( 0.100727 -0.006568  0.081348)
 47:    685.64   0.006146   31.06  0.002797  ( 0.046464 -0.011515 -0.022493)
 48:    702.86   0.001614    8.16  0.000717  (-0.001833 -0.025308  0.008539)
 49:    730.93   0.015181   76.72  0.006481  ( 0.070129 -0.026841 -0.029032)
 50:    769.27   0.007051   35.63  0.002860  ( 0.010847 -0.003711 -0.052239)
 51:    790.69   0.007477   37.79  0.002951  (-0.043855 -0.008236  0.030983)
 52:    877.88   0.027961  141.31  0.009940  ( 0.017943 -0.071317 -0.067316)
 53:   1007.96   0.005197   26.27  0.001609  ( 0.026379 -0.016723 -0.025171)
 54:   1081.42   0.039555  199.89  0.011414  (-0.052657  0.092465  0.009579)
 55:   1114.17   0.036176  182.82  0.010132  ( 0.098389  0.016793 -0.013040)
 56:   1132.28   0.029767  150.43  0.008204  ( 0.048118  0.064065  0.042242)
 57:   1146.90   0.005720   28.91  0.001556  ( 0.020106 -0.010243  0.032360)
 58:   1154.07   0.086349  436.37  0.023349  (-0.078767 -0.005216  0.130834)
 59:   1165.86   0.065358  330.29  0.017494  ( 0.051306 -0.119339 -0.024905)
 60:   1166.51   0.012807   64.72  0.003426  ( 0.004386 -0.039235  0.043216)
 61:   1172.78   0.066257  334.83  0.017630  ( 0.076876 -0.107237 -0.014848)
 62:   1178.79   0.113582  574.00  0.030069  (-0.015451 -0.036051  0.168909)
 63:   1187.47   0.105064  530.95  0.027610  ( 0.053977  0.154285  0.029885)
 64:   1207.81   0.084066  424.83  0.021720  ( 0.042833 -0.062804  0.126258)
 65:   1209.20   0.022352  112.96  0.005768  (-0.016784 -0.026928  0.069004)
 66:   1247.82   0.003835   19.38  0.000959  ( 0.023455  0.007665  0.018715)
 67:   1258.04   0.006523   32.96  0.001618  (-0.002487  0.036301  0.017148)
 68:   1271.24   0.018193   91.94  0.004466  ( 0.002878 -0.037678  0.055119)
 69:   1333.11   0.016774   84.77  0.003927  (-0.017561  0.018916  0.057099)
 70:   1352.17   0.032136  162.40  0.007417  ( 0.083320 -0.020805 -0.006447)
 71:   1402.28   0.021070  106.48  0.004689  ( 0.060961 -0.007526  0.030267)
 72:   1428.27   0.013252   66.97  0.002895  (-0.042008  0.016658  0.029212)
 73:   1843.87   0.091755  463.69  0.015529  ( 0.019530 -0.110296 -0.054611)
 74:   3648.05   0.050827  256.86  0.004348  (-0.059093 -0.021033  0.020333)

* The epsilon (eps) is given for a Dirac delta lineshape.
** The dipole moment derivative (T) already includes vibrational overlap.

The first frequency considered to be a vibration is 6
The total number of vibrations considered is 69


--------------------------
THERMOCHEMISTRY AT 298.15K
--------------------------

Temperature         ...   298.15 K
Pressure            ...     1.00 atm
Total Mass          ...   395.07 AMU
Quasi RRHO          ...     True
Cut-Off Frequency   ...     1.00 cm^-1

Throughout the following assumptions are being made:
  (1) The electronic state is orbitally nondegenerate
      but the spin degeneracy is treated
  (2) There are no thermally accessible electronically excited states
  (3) Hindered rotations indicated by low frequency modes are not
      treated as such but are treated as vibrations and this may
      cause some error
  (4) All equations used are the standard statistical mechanics
      equations for an ideal gas
  (5) All vibrations are strictly harmonic

freq.      25.61  E(vib)   ...       0.56 
freq.      31.66  E(vib)   ...       0.55 
freq.      37.73  E(vib)   ...       0.54 
freq.      47.28  E(vib)   ...       0.53 
freq.      58.73  E(vib)   ...       0.51 
freq.      63.53  E(vib)   ...       0.51 
freq.      71.96  E(vib)   ...       0.50 
freq.      83.68  E(vib)   ...       0.48 
freq.     102.62  E(vib)   ...       0.46 
freq.     127.39  E(vib)   ...       0.43 
freq.     150.36  E(vib)   ...       0.40 
freq.     184.96  E(vib)   ...       0.37 
freq.     189.89  E(vib)   ...       0.36 
freq.     207.72  E(vib)   ...       0.34 
freq.     214.66  E(vib)   ...       0.34 
freq.     224.46  E(vib)   ...       0.33 
freq.     230.36  E(vib)   ...       0.32 
freq.     241.85  E(vib)   ...       0.31 
freq.     260.81  E(vib)   ...       0.30 
freq.     281.79  E(vib)   ...       0.28 
freq.     286.58  E(vib)   ...       0.27 
freq.     313.71  E(vib)   ...       0.25 
freq.     334.94  E(vib)   ...       0.24 
freq.     341.91  E(vib)   ...       0.23 
freq.     357.29  E(vib)   ...       0.22 
freq.     369.93  E(vib)   ...       0.21 
freq.     375.58  E(vib)   ...       0.21 
freq.     378.99  E(vib)   ...       0.21 
freq.     397.90  E(vib)   ...       0.20 
freq.     432.43  E(vib)   ...       0.18 
freq.     470.51  E(vib)   ...       0.15 
freq.     509.63  E(vib)   ...       0.14 
freq.     528.62  E(vib)   ...       0.13 
freq.     536.44  E(vib)   ...       0.12 
freq.     554.16  E(vib)   ...       0.12 
freq.     575.77  E(vib)   ...       0.11 
freq.     586.88  E(vib)   ...       0.11 
freq.     603.02  E(vib)   ...       0.10 
freq.     616.82  E(vib)   ...       0.09 
freq.     632.85  E(vib)   ...       0.09 
freq.     644.60  E(vib)   ...       0.09 
freq.     685.64  E(vib)   ...       0.07 
freq.     702.86  E(vib)   ...       0.07 
freq.     730.93  E(vib)   ...       0.06 
freq.     769.27  E(vib)   ...       0.06 
freq.     790.69  E(vib)   ...       0.05 
freq.     877.88  E(vib)   ...       0.04 
freq.    1007.96  E(vib)   ...       0.02 
freq.    1081.42  E(vib)   ...       0.02 
freq.    1114.17  E(vib)   ...       0.01 
freq.    1132.28  E(vib)   ...       0.01 
freq.    1146.90  E(vib)   ...       0.01 
freq.    1154.07  E(vib)   ...       0.01 
freq.    1165.86  E(vib)   ...       0.01 
freq.    1166.51  E(vib)   ...       0.01 
freq.    1172.78  E(vib)   ...       0.01 
freq.    1178.79  E(vib)   ...       0.01 
freq.    1187.47  E(vib)   ...       0.01 
freq.    1207.81  E(vib)   ...       0.01 
freq.    1209.20  E(vib)   ...       0.01 
freq.    1247.82  E(vib)   ...       0.01 
freq.    1258.04  E(vib)   ...       0.01 
freq.    1271.24  E(vib)   ...       0.01 
freq.    1333.11  E(vib)   ...       0.01 
freq.    1352.17  E(vib)   ...       0.01 
freq.    1402.28  E(vib)   ...       0.00 
freq.    1428.27  E(vib)   ...       0.00 
freq.    1843.87  E(vib)   ...       0.00 
freq.    3648.05  E(vib)   ...       0.00 

------------
INNER ENERGY
------------

The inner energy is: U= E(el) + E(ZPE) + E(vib) + E(rot) + E(trans)
    E(el)   - is the total energy from the electronic structure calculation
              = E(kin-el) + E(nuc-el) + E(el-el) + E(nuc-nuc)
    E(ZPE)  - the the zero temperature vibrational energy from the frequency calculation
    E(vib)  - the the finite temperature correction to E(ZPE) due to population
              of excited vibrational states
    E(rot)  - is the rotational thermal energy
    E(trans)- is the translational thermal energy

Summary of contributions to the inner energy U:
Electronic energy                ...  -1853.56937043 Eh
Zero point energy                ...      0.10696673 Eh      67.12 kcal/mol
Thermal vibrational correction   ...      0.01982456 Eh      12.44 kcal/mol
Thermal rotational correction    ...      0.00141627 Eh       0.89 kcal/mol
Thermal translational correction ...      0.00141627 Eh       0.89 kcal/mol
-----------------------------------------------------------------------
Total thermal energy                  -1853.43974660 Eh


Summary of corrections to the electronic energy:
(perhaps to be used in another calculation)
Total thermal correction                  0.02265710 Eh      14.22 kcal/mol
Non-thermal (ZPE) correction              0.10696673 Eh      67.12 kcal/mol
-----------------------------------------------------------------------
Total correction                          0.12962383 Eh      81.34 kcal/mol


--------
ENTHALPY
--------

The enthalpy is H = U + kB*T
                kB is Boltzmann's constant
Total thermal energy              ...  -1853.43974660 Eh 
Thermal Enthalpy correction       ...      0.00094421 Eh       0.59 kcal/mol
-----------------------------------------------------------------------
Total Enthalpy                    ...  -1853.43880239 Eh


Note: Only C1 symmetry has been detected, increase convergence thresholds 
      if your molecule has a higher symmetry. Symmetry factor of 1.0 is   
      used for the rotational entropy correction. 
 

Note: Rotational entropy computed according to Herzberg 
Infrared and Raman Spectra, Chapter V,1, Van Nostrand Reinhold, 1945 
Point Group:  C1, Symmetry Number:   1  
Rotational constants in cm-1:     0.017563     0.004610     0.004385 

Vibrational entropy computed according to the QRRHO of S. Grimme
Chem.Eur.J. 2012 18 9955 using a reference frequency of 100.0 cm-1


-------
ENTROPY
-------

The entropy contributions are T*S = T*(S(el)+S(vib)+S(rot)+S(trans))
     S(el)   - electronic entropy
     S(vib)  - vibrational entropy
     S(rot)  - rotational entropy
     S(trans)- translational entropy
The entropies will be listed as multiplied by the temperature to get
units of energy

Electronic entropy                ...      0.00065446 Eh      0.41 kcal/mol
Vibrational entropy               ...      0.03557273 Eh     22.32 kcal/mol
Rotational entropy                ...      0.01652183 Eh     10.37 kcal/mol
Translational entropy             ...      0.02081703 Eh     13.06 kcal/mol
-----------------------------------------------------------------------
Final entropy term                ...      0.07356605 Eh     46.16 kcal/mol

In case the symmetry of your molecule has not been determined correctly
or in case you have a reason to use a different symmetry number we print 
out the resulting rotational entropy values for sn=1,12:

 non-linear molecules -----------------------------------
|  sn= 1 | S(rot)=       0.01652183 Eh     10.37 kcal/mol|
|  sn= 2 | S(rot)=       0.01586738 Eh      9.96 kcal/mol|
|  sn= 3 | S(rot)=       0.01548454 Eh      9.72 kcal/mol|
|  sn= 4 | S(rot)=       0.01521292 Eh      9.55 kcal/mol|
|  sn= 5 | S(rot)=       0.01500223 Eh      9.41 kcal/mol|
|  sn= 6 | S(rot)=       0.01483009 Eh      9.31 kcal/mol|
|  sn= 7 | S(rot)=       0.01468454 Eh      9.21 kcal/mol|
|  sn= 8 | S(rot)=       0.01455846 Eh      9.14 kcal/mol|
|  sn= 9 | S(rot)=       0.01444726 Eh      9.07 kcal/mol|
|  sn=10 | S(rot)=       0.01434778 Eh      9.00 kcal/mol|
|  sn=11 | S(rot)=       0.01425779 Eh      8.95 kcal/mol|
|  sn=12 | S(rot)=       0.01417563 Eh      8.90 kcal/mol|
 linear molecules ---------------------------------------
|  Dinfh | S(rot)=       0.01045225 Eh      6.56 kcal/mol|
|  Cinfv | S(rot)=       0.01110670 Eh      6.97 kcal/mol|
 --------------------------------------------------------


-------------------
GIBBS FREE ENERGY
-------------------

The Gibbs free energy is G = H - T*S

Total enthalpy                    ...  -1853.43880239 Eh 
Total entropy correction          ...     -0.07356605 Eh    -46.16 kcal/mol
-----------------------------------------------------------------------
Final Gibbs free energy         ...  -1853.51236844 Eh

For completeness - the Gibbs free energy minus the electronic energy
G-E(el)                           ...      0.05700198 Eh     35.77 kcal/mol


Maximum memory used throughout the entire PROP-calculation: 546.6 MB

--------------------------------
SUGGESTED CITATIONS FOR THIS RUN
--------------------------------

Below you find a list of papers that are relevant to this ORCA run
We neither can nor want to force you to cite these papers, but we appreciate if you do
You receive ORCA, which is the product of decades of hard work by many enthusiastic individuals, for free
The only thing we kindly ask in return is that you cite our papers,
We deeply appreciate it, if you show your appreciation for ORCA by not just citing the generic ORCA reference.

Please note that relegating all ORCA citations to the supporting information does *not* help us.
SI sections are not indexed - citations you put there will not count into any citation statistics
But we need these citations in order to attract the funding resources that allow us to do what we are doing

Therefore, if you are a happy ORCA user, please consider citing a few of the papers listed below in the main body of your paper

In addition to the list printed below, the program has created the file rf_mecn_freq_r2s_C5_P_B.bibtex that contains the list in bibtex format
You can import this file easily into all common literature databanks and citation aid programs


List of essential papers. We consider these as the minimum necessary citations

  1. Neese,F.
     Software update: the ORCA program system, version 5.0
     WIRES Comput. Molec. Sci., 2022 12(1)e1606
     doi.org/10.1002/wcms.1606

List of papers to cite with high priority. The work reported in these papers was absolutely
necessary for this run to complete.
Our perspective: the developers of density functionals and basis sets usually get cited in chemistry papers
Good! But without the algorithms to do something with them, the functionals or basis sets would not do anything.
Hence, in our opinion, the algorithm design and method developments papers are equally worthy of getting cited

  1. Neese,F.
     An improvement of the resolution of the identity approximation for the formation of the Coulomb matrix
     J. Comp. Chem., 2003 24(14)1740-1747
     doi.org/10.1002/jcc.10318
  2. Neese,F.; Wennmohs,F.; Hansen,A.; Becker,U.
     Efficient, approximate and parallel Hartree-Fock and hybrid DFT calculations. A 'chain-of-spheres' algorithm for the Hartree-Fock exchange
     Chem. Phys., 2009 356(1-3)98-109
     doi.org/10.1016/j.chemphys.2008.10.036
  3. Bykov,D.; Petrenko,T.; Izsak,R.; Kossmann,S.; Becker,U.; Valeev,E.; Neese,F.
     Efficient implementation of the analytic second derivatives of Hartree-Fock and hybrid DFT energies: a detailed analysis of different approximations
     Molec. Phys., 2015 113 1961-1977
     doi.org/10.1080/00268976.2015.1025114
  4. Garcia-Rates,M.; Neese,F.
     Efficient implementation of the analytical second derivatives of hartree-fock and hybrid DFT energies within the framework of the conductor-like polarizable continuum model
     J. Comput. Chem., 2019 40 1816-1828
     doi.org/10.1002/jcc.25833
  5. Garcia-Rates,M.; Neese,F.
     Effect of the Solute Cavity on the Solvation Energy and its Derivatives within the Framework of the Gaussian Charge Scheme
     J. Comput. Chem., 2020 41 922-939
     doi.org/10.1002/jcc.26139
  6. Helmich-Paris,B.; de Souza,B.; Neese,F.; Izsák,R.
     An improved chain of spheres for exchange algorithm
     J. Chem. Phys., 2021 155 104109
     doi.org/doi: 10.1063/5.0058766.
  7. Neese,F.
     The SHARK Integral Generation and Digestion System
     J. Comp. Chem., 2022  1-16
     doi.org/10.1002/jcc.26942
  8. Lehtola,S.; Steigemann,C.; Oliveira,M.; Marques,M.
     Recent developments in Libxc - A comprehensive library of functionals for density functional theory
     Software X, 2018 7 
     doi.org/10.1016/j.softx.2017.11.002
  9. Grimme,S.; Antony,J.; Ehrlich,S.; Krieg,H.
     A consistent and accurate ab initio parametrization of density functional dispersion correction (DFT-D) for the 94 elements H-Pu
     J. Chem. Phys., 2010 132 154104
     doi.org/10.1063/1.3382344
 10. Grimme,S.; Ehrlich,S.; Goerigk,L.
     Effect of the damping function in dispersion corrected density functional theory
     J. Comput. Chem., 2011 32(7)1456-1465
     doi.org/10.1002/jcc.21759
 11. Bursch,M.; Neugebauer,H.; Ehlert,S.; Grimme,S.
     Dispersion corrected r2SCAN based global hybrid functionals: r2SCANh, r2SCAN0, and r2SCAN50
     J. Phys. Chem., 2022 156(13)134105
     doi.org/10.1063/5.0086040

List of suggested additional citations. These are papers that are important in the 'surrounding' of 
of this run, or papers that preceded the highly important papers. If you like your results we are grateful for a citation.

  1. Izsak,R.; Neese,F.
     An overlap fitted chain of spheres exchange method
     J. Chem. Phys., 2011 135 144105
     doi.org/10.1063/1.3646921
  2. Izsak,R.; Hansen,A.; Neese,F.
     The resolution of identity and chain of spheres approximations for the LPNO-CCSD singles Fock term
     Molec. Phys., 2012 110 2413-2417
     doi.org/10.1080/00268976.2012.687466
  3. Neese,F.
     The ORCA program system
     WIRES Comput. Molec. Sci., 2012 2(1)73-78
     doi.org/10.1002/wcms.81
  4. Izsak,R.; Neese,F.; Klopper,W.
     Robust fitting techniques in the chain of spheres approximation to the Fock exchange: The role of the complementary space
     J. Chem. Phys., 2013 139 
     doi.org/10.1063/1.4819264
  5. Neese,F.
     Software update: the ORCA program system, version 4.0
     WIRES Comput. Molec. Sci., 2018 8(1)1-6
     doi.org/10.1002/wcms.1327
  6. Neese,F.; Wennmohs,F.; Becker,U.; Riplinger,C.
     The ORCA quantum chemistry program package
     J. Chem. Phys., 2020 152 Art. No. L224108
     doi.org/10.1063/5.0004608
  7. Wittmann,L.; Neugebauer,H.; Grimme,S.; Bursch,M.
     Dispersion-corrected r2SCAN based double-hybrid functionals
     J. Chem. Phys., 2023 159(22)224103
     doi.org/10.1063/5.0174988

List of optional additional citations

  1. Neese,F.
     Approximate second-order SCF convergence for spin unrestricted wavefunctions
     Chem. Phys. Lett., 2000 325(1-3)93-98
     doi.org/10.1016/s0009-2614(00)00662-x

Timings for individual modules:

Sum of individual times          ...     1483.135 sec (=  24.719 min)
Startup calculation              ...        4.739 sec (=   0.079 min)   0.3 %
SCF iterations                   ...      101.818 sec (=   1.697 min)   6.9 %
Property integrals               ...      462.966 sec (=   7.716 min)  31.2 %
SCF Response                     ...      641.523 sec (=  10.692 min)  43.3 %
Property calculations            ...      272.089 sec (=   4.535 min)  18.3 %
                             ****ORCA TERMINATED NORMALLY****
TOTAL RUN TIME: 0 days 0 hours 24 minutes 44 seconds 148 msec
