
                                 *****************
                                 * O   R   C   A *
                                 *****************

                                            #,                                       
                                            ###                                      
                                            ####                                     
                                            #####                                    
                                            ######                                   
                                           ########,                                 
                                     ,,################,,,,,                         
                               ,,#################################,,                 
                          ,,##########################################,,             
                       ,#########################################, ''#####,          
                    ,#############################################,,   '####,        
                  ,##################################################,,,,####,       
                ,###########''''           ''''###############################       
              ,#####''   ,,,,##########,,,,          '''####'''          '####       
            ,##' ,,,,###########################,,,                        '##       
           ' ,,###''''                  '''############,,,                           
         ,,##''                                '''############,,,,        ,,,,,,###''
      ,#''                                            '''#######################'''  
     '                                                          ''''####''''         
             ,#######,   #######,   ,#######,      ##                                
            ,#'     '#,  ##    ##  ,#'     '#,    #''#        ,####,   ,####,        
            ##       ##  ##   ,#'  ##            #'  '#       #'       #'  '#        
            ##       ##  #######   ##           ,######,      #####,   #    #        
            '#,     ,#'  ##    ##  '#,     ,#' ,#      #,     #,   #   #,  ,#        
             '#######'   ##     ##  '#######'  #'      '#     '####' # '####'        



                #########################################################
                #                        -***-                          #
                #          Department of theory and spectroscopy        #
                #                                                       #
                #                      Frank Neese                      #
                #                                                       #
                #     Directorship, Architecture, Infrastructure        #
                #                    SHARK, DRIVERS                     #
                #        Core code/Algorithms in most modules           #
                #                                                       #
                #        Max Planck Institute fuer Kohlenforschung      #
                #                Kaiser Wilhelm Platz 1                 #
                #                 D-45470 Muelheim/Ruhr                 #
                #                      Germany                          #
                #                                                       #
                #                  All rights reserved                  #
                #                        -***-                          #
                #########################################################


                         Program Version 6.0.1  -  RELEASE   -


 With contributions from (in alphabetic order):
[Max-Planck-Institut fuer Kohlenforschung]                               
  Daniel Aravena         : Magnetic Suceptibility                        
  Michael Atanasov       : Ab Initio Ligand Field Theory (pilot matlab implementation)
  Alexander A. Auer      : GIAO ZORA, VPT2 properties, NMR spectrum      
  Ute Becker             : All parallelization in ORCA, NUMFREQ, NUMCALC 
  Giovanni Bistoni       : ED, misc. LED, open-shell LED, HFLD           
  Martin Brehm           : Molecular dynamics                            
  Dmytro Bykov           : pre 5.0 version of the SCF Hessian            
  Marcos Casanova-Páez   : Triplet and SCS-CIS(D). UHF-(DLPNO)-IP/EA/STEOM-CCSD. UHF-CVS-IP/STEOM-CCSD   
  Vijay G. Chilkuri      : MRCI spin determinant printing, contributions to CSF-ICE 
  Pauline Colinet        : FMM embedding                                 
  Dipayan Datta          : RHF DLPNO-CCSD density                        
  Achintya Kumar Dutta   : EOM-CC, STEOM-CC                              
  Nicolas Foglia         : Exact transition moments, OPA infrastructure, MCD improvements    
  Dmitry Ganyushin       : Spin-Orbit,Spin-Spin,Magnetic field MRCI      
  Miquel Garcia-Rates    : C-PCM and meta-GGA Hessian, CCSD/C-PCM, Gaussian charge scheme 
  Tiago L. C. Gouveia    : GS-ROHF, GS-ROCIS                             
  Yang Guo               : DLPNO-NEVPT2, F12-NEVPT2, CIM, IAO-localization        
  Andreas Hansen         : Spin unrestricted coupled pair/coupled cluster methods 
  Ingolf Harden          : AUTO-CI MPn and infrastructure                
  Benjamin Helmich-Paris : MC-RPA, TRAH-(SCF,CASSCF), AVAS, COSX integrals, SCF dyn. polar. 
  Lee Huntington         : MR-EOM, pCC                                   
  Robert Izsak           : Overlap fitted RIJCOSX, COSX-SCS-MP3, EOM     
  Riya Kayal             : Wick's Theorem for AUTO-CI, AUTO-CI UHF-CCSDT 
  Emily Kempfer          : AUTO-CI, RHF CISDT and CCSDT                  
  Christian Kollmar      : KDIIS, OOCD, Brueckner-CCSD(T), CCSD density, CASPT2, CASPT2-K, improved NEVPT2 
  Axel Koslowski         : Symmetry handling                             
  Simone Kossmann        : meta-GGA functionals, TD-DFT gradient, OOMP2, (MP2 Hessian; deprecated post 5.0) 
  Lucas Lang             : DCDCAS                                        
  Marvin Lechner         : AUTO-CI (C++ implementation), FIC-MRCC        
  Spencer Leger          : CASSCF response                               
  Dagmar Lenk            : GEPOL surface, SMD, ORCA-2-JSON               
  Dimitrios Liakos       : Extrapolation schemes; Compound Job, initial MDCI parallelization 
  Dimitrios Manganas     : Further ROCIS development; embedding schemes. LFT, Crystal Embedding 
  Dimitrios Pantazis     : SARC Basis sets                               
  Anastasios Papadopoulos: AUTO-CI, single reference methods and gradients 
  Taras Petrenko         : pre 6.0 DFT Hessian and TD-DFT gradient, (ASA, deprecated), ECA, 1-Electron XAS/XES, NRVS 
  Peter Pinski           : DLPNO-MP2, DLPNO-MP2 Gradient                 
  Christoph Reimann      : Effective Core Potentials                     
  Marius Retegan         : Local ZFS, SOC                                
  Christoph Riplinger    : Optimizer, TS searches, QM/MM, DLPNO-CCSD(T), (RO)-DLPNO pert. Triples 
  Michael Roemelt        : Original ROCIS implementation                 
  Masaaki Saitow         : Open-shell DLPNO-CCSD energy and density      
  Barbara Sandhoefer     : DKH picture change effects                    
  Kantharuban Sivalingam : CASSCF convergence/infrastructure, NEVPT2 and variants, FIC-MRCI 
  Bernardo de Souza      : ESD, SOC TD-DFT                               
  Georgi L. Stoychev     : AutoAux, RI-MP2 NMR, DLPNO-MP2 response, X2C  
  Van Anh Tran           : RI-MP2 g-tensors                              
  Willem Van den Heuvel  : Paramagnetic NMR                              
  Zikuan Wang            : NOTCH, Electric field optimization            
  Frank Wennmohs         : Technical directorship and infrastructure     
  Hang Xu                : AUTO-CI-Response properties                   
                                                                         
[FACCTs GmbH]                                                            
  Markus Bursch, Miquel Garcia-Rates, Christoph Riplinger, Bernardo de Souza, Georgi L. Stoychev 
                                                                 
  APM, Basis sets (HGBS, AHGBS, def-TZVP (Ac-Lr), def2-XVPD (La-Lu)), CI-OPT, improved COSX, DLPNO-Multilevel,           
  DOCKER, DRACO, updates on ESD, GOAT, IRC, LR-CPCM, MBIS, meta-GGA TD-DFT gradient, ML-optimized integration grids, 
  MM, NACMEs, nearIR, NEB, NEB-TS, NL-DFT gradient (VV10), 2- and 3-layer-ONIOM, interface openCOSMO-RS, QMMM,   
  Crystal-QMMM, SF, symmetry and pop. for TD-DFT, r2SCAN hybrids, SOLVATOR                                   
                                                                         
[Other institutions]                                                     
  V. Asgeirsson          : NEB                                           
  Christoph Bannwarth    : sTDA-DFT, sTD-DFT, PBEh-3c, B97-3c, D3        
  Sebastian Ehlert       : rSCAN, r2SCAN, r2SCAN-3c, D4, dhf basis sets  
  Marvin Friede          : D4 for Fr, Ra, Ac-Lr                          
  Lars Goerigk           : TD-DFT with DH, B97 family of functionals     
  Stefan Grimme          : VdW corrections, initial TS optimization, DFT functionals, gCP, sTDA/sTD-DF 
  Waldemar Hujo          : DFT-NL                                        
  H. Jonsson             : NEB                                           
  Holger Kruse           : gCP                                           
  Marcel Mueller         : wB97X-3c, vDZP basis set                      
  Hagen Neugebauer       : wr2SCAN                                       
  Tobias Risthaus        : range-separated hybrid DFT                    
  Lukas Wittmann         : regularized MP2, r2SCAN double-hybrids, wr2SCAN        
                                                                         
We gratefully acknowledge several colleagues who have allowed us to      
interface, adapt or use parts of their codes:                            
  Ed Valeev, F. Pavosevic, A. Kumar             : LibInt (2-el integral package), F12 methods 
  Garnet Chan, S. Sharma, J. Yang, R. Olivares  : DMRG                   
  Ulf Ekstrom                                   : XCFun DFT Library      
  Mihaly Kallay                                 : mrcc  (arbitrary order and MRCC methods)
  Frank Weinhold                                : gennbo (NPA and NBO analysis)           
  Simon Mueller                                 : openCOSMO-RS                            
  Christopher J. Cramer and Donald G. Truhlar   : smd solvation model                     
  S Lehtola, MJT Oliveira, MAL Marques          : LibXC Library                           
  Liviu Ungur et al                             : ANISO software                          


 Your calculation uses the libint2 library for the computation of 2-el integrals
 For citations please refer to: http://libint.valeyev.net

 Your ORCA version has been built with support for libXC version: 6.2.2
 For citations please refer to: https://libxc.gitlab.io

 This ORCA versions uses:
   CBLAS   interface :  Fast vector & matrix operations
   LAPACKE interface :  Fast linear algebra routines
   SCALAPACK package :  Parallel linear algebra routines
   Shared memory     :  Shared parallel matrices
   BLAS/LAPACK       :  OpenBLAS 0.3.27  USE64BITINT DYNAMIC_ARCH NO_AFFINITY SkylakeX SINGLE_THREADED
        Core in use  :  SkylakeX
   Copyright (c) 2011-2014, The OpenBLAS Project


NOTE: MaxCore=8000 MB was set to SCF,MP2,MDCI,CIPSI,MRCI and CIS
      => If you want to overwrite this, your respective input block should be placed after the MaxCore statement
Your calculation utilizes the atom-pairwise dispersion correction
with the Becke-Johnson damping scheme (D3BJ)


Your calculation utilizes the SMD solvation module
Please cite in your paper:
A.V. Marenich, C.J. Cramer, D.G. Truhlar J. Phys. Chem. B, 113, (2009), 6378 

Warning: RI is on but no J-basis has been assigned. Assigning Def2/J (nothing to worry about!)
================================================================================

----- Orbital basis set information -----
Your calculation utilizes the basis: def2-TZVP
   F. Weigend and R. Ahlrichs, Phys. Chem. Chem. Phys. 7, 3297 (2005).

----- AuxJ basis set information -----
Your calculation utilizes the auxiliary basis: def2/J
   F. Weigend, Phys. Chem. Chem. Phys. 8, 1057 (2006).

================================================================================
                                        WARNINGS
                       Please study these warnings very carefully!
================================================================================


WARNING: your system is open-shell and RHF/RKS was chosen
  ===> : WILL SWITCH to UHF/UKS


================================================================================
                                       INPUT FILE
================================================================================
NAME = rf_mecn_opt_TP_D_A.inp
|  1> !TPSSh def2-TZVP freq d3 TightSCF SlowConv defgrid2
|  2>  
|  3> %pal
|  4> nprocs 20
|  5> end
|  6>  
|  7> %scf
|  8> MaxIter 1500
|  9> end
| 10>  
| 11> %maxcore 8000
| 12>  
| 13> !CPCM
| 14> %cpcm smd true
| 15> SMDsolvent "ACETONITRILE"
| 16> end
| 17>  
| 18> * xyz -2 2
| 19> 6        4.998807000      0.209001000     -0.291898000
| 20> 8        5.467221000     -0.272632000     -1.340122000
| 21> 8        5.375721000      1.170379000      0.407391000
| 22> 6        3.689726000     -0.486996000      0.243441000
| 23> 6        2.386567000      0.311254000     -0.056249000
| 24> 6        1.005348000     -0.412883000      0.039039000
| 25> 6       -0.358393000      0.357313000      0.031661000
| 26> 6       -1.823022000     -0.243556000     -0.009736000
| 27> 6       -3.209270000      0.489358000     -0.013729000
| 28> 6       -4.585261000     -0.212163000     -0.050291000
| 29> 9        3.536911000     -1.744599000     -0.291117000
| 30> 9        3.760308000     -0.668837000      1.605260000
| 31> 9        2.352936000      1.378652000      0.798445000
| 32> 9        2.493138000      0.808936000     -1.327616000
| 33> 9        0.957832000     -1.288074000     -1.022377000
| 34> 9        1.026362000     -1.147509000      1.203178000
| 35> 9       -0.338705000      1.147297000      1.171492000
| 36> 9       -0.293570000      1.181801000     -1.089739000
| 37> 9       -1.883213000     -1.073560000      1.112225000
| 38> 9       -1.848675000     -1.027053000     -1.160874000
| 39> 9       -3.209759000      1.315159000     -1.121504000
| 40> 9       -3.243127000      1.270069000      1.124810000
| 41> 9       -4.744794000     -1.009254000      1.021677000
| 42> 9       -5.654481000      0.646857000     -0.051208000
| 43> 9       -4.707200000     -0.965406000     -1.158615000
| 44> *
| 45> 
| 46>                          ****END OF INPUT****
================================================================================

                       ****************************
                       * Single Point Calculation *
                       ****************************

---------------------------------
CARTESIAN COORDINATES (ANGSTROEM)
---------------------------------
  C      4.998807    0.209001   -0.291898
  O      5.467221   -0.272632   -1.340122
  O      5.375721    1.170379    0.407391
  C      3.689726   -0.486996    0.243441
  C      2.386567    0.311254   -0.056249
  C      1.005348   -0.412883    0.039039
  C     -0.358393    0.357313    0.031661
  C     -1.823022   -0.243556   -0.009736
  C     -3.209270    0.489358   -0.013729
  C     -4.585261   -0.212163   -0.050291
  F      3.536911   -1.744599   -0.291117
  F      3.760308   -0.668837    1.605260
  F      2.352936    1.378652    0.798445
  F      2.493138    0.808936   -1.327616
  F      0.957832   -1.288074   -1.022377
  F      1.026362   -1.147509    1.203178
  F     -0.338705    1.147297    1.171492
  F     -0.293570    1.181801   -1.089739
  F     -1.883213   -1.073560    1.112225
  F     -1.848675   -1.027053   -1.160874
  F     -3.209759    1.315159   -1.121504
  F     -3.243127    1.270069    1.124810
  F     -4.744794   -1.009254    1.021677
  F     -5.654481    0.646857   -0.051208
  F     -4.707200   -0.965406   -1.158615

----------------------------
CARTESIAN COORDINATES (A.U.)
----------------------------
  NO LB      ZA    FRAG     MASS         X           Y           Z
   0 C     6.0000    0    12.011    9.446376    0.394955   -0.551607
   1 O     8.0000    0    15.999   10.331550   -0.515200   -2.532464
   2 O     8.0000    0    15.999   10.158640    2.211696    0.769857
   3 C     6.0000    0    12.011    6.972572   -0.920289    0.460037
   4 C     6.0000    0    12.011    4.509958    0.588185   -0.106295
   5 C     6.0000    0    12.011    1.899832   -0.780236    0.073773
   6 C     6.0000    0    12.011   -0.677265    0.675224    0.059831
   7 C     6.0000    0    12.011   -3.445012   -0.460254   -0.018398
   8 C     6.0000    0    12.011   -6.064641    0.924753   -0.025944
   9 C     6.0000    0    12.011   -8.664888   -0.400930   -0.095036
  10 F     9.0000    0    18.998    6.683793   -3.296814   -0.550131
  11 F     9.0000    0    18.998    7.105952   -1.263919    3.033502
  12 F     9.0000    0    18.998    4.446405    2.605275    1.508842
  13 F     9.0000    0    18.998    4.711348    1.528667   -2.508831
  14 F     9.0000    0    18.998    1.810040   -2.434107   -1.932013
  15 F     9.0000    0    18.998    1.939543   -2.168478    2.273677
  16 F     9.0000    0    18.998   -0.640060    2.168077    2.213799
  17 F     9.0000    0    18.998   -0.554767    2.233280   -2.059308
  18 F     9.0000    0    18.998   -3.558757   -2.028734    2.101801
  19 F     9.0000    0    18.998   -3.493489   -1.940849   -2.193734
  20 F     9.0000    0    18.998   -6.065565    2.485290   -2.119335
  21 F     9.0000    0    18.998   -6.128622    2.400083    2.125583
  22 F     9.0000    0    18.998   -8.966361   -1.907214    1.930690
  23 F     9.0000    0    18.998  -10.685421    1.222383   -0.096769
  24 F     9.0000    0    18.998   -8.895319   -1.824353   -2.189465

--------------------------------
INTERNAL COORDINATES (ANGSTROEM)
--------------------------------
 C      0   0   0     0.000000000000     0.00000000     0.00000000
 O      1   0   0     1.245052439161     0.00000000     0.00000000
 O      1   2   0     1.247123461331   131.03941250     0.00000000
 C      1   2   3     1.576290815012   115.31338451   178.72630902
 C      4   1   2     1.557318380384   113.78234146   257.52683823
 C      5   4   1     1.562440438440   119.36955153   162.78150169
 C      6   5   4     1.566220236231   122.78792229   167.76736495
 C      7   6   5     1.583633598536   128.23066702   173.97116059
 C      8   7   6     1.568076016317   129.81686702   179.77753436
 C      9   8   7     1.544933566651   125.11340982   180.27341566
 F      4   1   2     1.375016358157   111.35236750    19.22543766
 F      4   1   2     1.375717615198   110.60616816   136.37408832
 F      5   4   1     1.367834554396   107.47699135   285.48505820
 F      5   4   1     1.369459309309   107.44651941    40.75570534
 F      6   5   4     1.376524965917   106.15038019   289.90871196
 F      6   5   4     1.376712228243   106.58190404    45.15674130
 F      7   6   5     1.386966851140   105.29926877   297.09213237
 F      7   6   5     1.393384528216   104.72989602    51.85906051
 F      8   7   6     1.396898737210   104.14049096    57.46788697
 F      8   7   6     1.392711140353   104.60146968   302.88389143
 F      9   8   7     1.381706546755   106.36183634    58.42767906
 F      9   8   7     1.380915282156   106.48843331   302.44493270
 F     10   9   8     1.345332759355   110.84207947    60.29982176
 F     10   9   8     1.371549346429   114.20126190   180.20773969
 F     10   9   8     1.345595119546   110.75605893   300.07035331

---------------------------
INTERNAL COORDINATES (A.U.)
---------------------------
 C      0   0   0     0.000000000000     0.00000000     0.00000000
 O      1   0   0     2.352808132385     0.00000000     0.00000000
 O      1   2   0     2.356721797103   131.03941250     0.00000000
 C      1   2   3     2.978757947788   115.31338451   178.72630902
 C      4   1   2     2.942905242247   113.78234146   257.52683823
 C      5   4   1     2.952584529216   119.36955153   162.78150169
 C      6   5   4     2.959727311883   122.78792229   167.76736495
 C      7   6   5     2.992633797709   128.23066702   173.97116059
 C      8   7   6     2.963234228010   129.81686702   179.77753436
 C      9   8   7     2.919501336073   125.11340982   180.27341566
 F      4   1   2     2.598404346578   111.35236750    19.22543766
 F      4   1   2     2.599729530335   110.60616816   136.37408832
 F      5   4   1     2.584832704324   107.47699135   285.48505820
 F      5   4   1     2.587903046144   107.44651941    40.75570534
 F      6   5   4     2.601255202089   106.15038019   289.90871196
 F      6   5   4     2.601609076599   106.58190404    45.15674130
 F      7   6   5     2.620987505482   105.29926877   297.09213237
 F      7   6   5     2.633115157572   104.72989602    51.85906051
 F      8   7   6     2.639756050147   104.14049096    57.46788697
 F      8   7   6     2.631842638927   104.60146968   302.88389143
 F      9   8   7     2.611046970814   106.36183634    58.42767906
 F      9   8   7     2.609551697421   106.48843331   302.44493270
 F     10   9   8     2.542310474174   110.84207947    60.29982176
 F     10   9   8     2.591852643909   114.20126190   180.20773969
 F     10   9   8     2.542806263083   110.75605893   300.07035331

---------------------
BASIS SET INFORMATION
---------------------
There are 3 groups of distinct atoms

 Group   1 Type C   : 11s6p2d1f contracted to 5s3p2d1f pattern {62111/411/11/1}
 Group   2 Type O   : 11s6p2d1f contracted to 5s3p2d1f pattern {62111/411/11/1}
 Group   3 Type F   : 11s6p2d1f contracted to 5s3p2d1f pattern {62111/411/11/1}

Atom   0C    basis set group =>   1
Atom   1O    basis set group =>   2
Atom   2O    basis set group =>   2
Atom   3C    basis set group =>   1
Atom   4C    basis set group =>   1
Atom   5C    basis set group =>   1
Atom   6C    basis set group =>   1
Atom   7C    basis set group =>   1
Atom   8C    basis set group =>   1
Atom   9C    basis set group =>   1
Atom  10F    basis set group =>   3
Atom  11F    basis set group =>   3
Atom  12F    basis set group =>   3
Atom  13F    basis set group =>   3
Atom  14F    basis set group =>   3
Atom  15F    basis set group =>   3
Atom  16F    basis set group =>   3
Atom  17F    basis set group =>   3
Atom  18F    basis set group =>   3
Atom  19F    basis set group =>   3
Atom  20F    basis set group =>   3
Atom  21F    basis set group =>   3
Atom  22F    basis set group =>   3
Atom  23F    basis set group =>   3
Atom  24F    basis set group =>   3
---------------------------------
AUXILIARY/J BASIS SET INFORMATION
---------------------------------
There are 3 groups of distinct atoms

 Group   1 Type C   : 12s5p4d2f1g contracted to 6s4p3d1f1g pattern {711111/2111/211/2/1}
 Group   2 Type O   : 12s5p4d2f1g contracted to 6s4p3d1f1g pattern {711111/2111/211/2/1}
 Group   3 Type F   : 12s5p4d2f1g contracted to 6s4p3d1f1g pattern {711111/2111/211/2/1}

Atom   0C    basis set group =>   1
Atom   1O    basis set group =>   2
Atom   2O    basis set group =>   2
Atom   3C    basis set group =>   1
Atom   4C    basis set group =>   1
Atom   5C    basis set group =>   1
Atom   6C    basis set group =>   1
Atom   7C    basis set group =>   1
Atom   8C    basis set group =>   1
Atom   9C    basis set group =>   1
Atom  10F    basis set group =>   3
Atom  11F    basis set group =>   3
Atom  12F    basis set group =>   3
Atom  13F    basis set group =>   3
Atom  14F    basis set group =>   3
Atom  15F    basis set group =>   3
Atom  16F    basis set group =>   3
Atom  17F    basis set group =>   3
Atom  18F    basis set group =>   3
Atom  19F    basis set group =>   3
Atom  20F    basis set group =>   3
Atom  21F    basis set group =>   3
Atom  22F    basis set group =>   3
Atom  23F    basis set group =>   3
Atom  24F    basis set group =>   3


           ************************************************************
           *        Program running with 20 parallel MPI-processes    *
           *              working on a common directory               *
           ************************************************************
------------------------------------------------------------------------------
                             ORCA STARTUP CALCULATIONS
                           -- RI-GTO INTEGRALS CHOSEN --
------------------------------------------------------------------------------
------------------------------------------------------------------------------
                   ___                                                        
                  /   \      - P O W E R E D   B Y -                         
                 /     \                                                     
                 |  |  |   _    _      __       _____    __    __             
                 |  |  |  | |  | |    /  \     |  _  \  |  |  /  |          
                  \  \/   | |  | |   /    \    | | | |  |  | /  /          
                 / \  \   | |__| |  /  /\  \   | |_| |  |  |/  /          
                |  |  |   |  __  | /  /__\  \  |    /   |      \           
                |  |  |   | |  | | |   __   |  |    \   |  |\   \          
                \     /   | |  | | |  |  |  |  | |\  \  |  | \   \       
                 \___/    |_|  |_| |__|  |__|  |_| \__\ |__|  \__/        
                                                                              
                      - O R C A' S   B I G   F R I E N D -                    
                                      &                                       
                       - I N T E G R A L  F E E D E R -                       
                                                                              
 v1 FN, 2020, v2 2021, v3 2022-2024                                           
------------------------------------------------------------------------------


----------------------
SHARK INTEGRAL PACKAGE
----------------------

Number of atoms                             ...     25
Number of basis functions                   ...    775
Number of shells                            ...    275
Maximum angular momentum                    ...      3
Integral batch strategy                     ... SHARK/LIBINT Hybrid
RI-J (if used) integral strategy            ... SPLIT-RIJ (Revised 2003 algorithm where possible)
Printlevel                                  ...      1
Contraction scheme used                     ... SEGMENTED contraction
Prescreening option                         ... SCHWARTZ
   Thresh                                   ... 2.500e-11
   Tcut                                     ... 2.500e-12
   Tpresel                                  ... 2.500e-12 
Coulomb Range Separation                    ... NOT USED
Exchange Range Separation                   ... NOT USED
Multipole approximations                    ... NOT USED
Finite Nucleus Model                        ... NOT USED
CABS basis                                  ... NOT available
Auxiliary Coulomb fitting basis             ... AVAILABLE
   # of basis functions in Aux-J            ...   1225
   # of shells in Aux-J                     ...    375
   Maximum angular momentum in Aux-J        ...      4
Auxiliary J/K fitting basis                 ... NOT available
Auxiliary Correlation fitting basis         ... NOT available
Auxiliary 'external' fitting basis          ... NOT available

Checking pre-screening integrals            ... done (  0.0 sec) Dimension = 275
Check shell pair data                       ... done (  0.0 sec)
Shell pair information
Shell pair cut-off parameter TPreSel        ...   2.5e-12
Total number of shell pairs                 ...     37950
Shell pairs after pre-screening             ...     22785
Total number of primitive shell pairs       ...    125800
Primitive shell pairs kept                  ...     48396
          la=0 lb=0:   4226 shell pairs
          la=1 lb=0:   6235 shell pairs
          la=1 lb=1:   2168 shell pairs
          la=2 lb=0:   3382 shell pairs
          la=2 lb=1:   2497 shell pairs
          la=2 lb=2:    704 shell pairs
          la=3 lb=0:   1546 shell pairs
          la=3 lb=1:   1215 shell pairs
          la=3 lb=2:    655 shell pairs
          la=3 lb=3:    157 shell pairs

Calculating one electron integrals          ... done (  0.0 sec)
Calculating RI/J V-Matrix + Cholesky decomp.... done (  0.1 sec)
Calculating Nuclear repulsion               ... done (  0.0 sec) ENN=   2800.672402256565 Eh

Diagonalization of the overlap matrix:
Smallest eigenvalue                        ... 9.767e-05
Time for diagonalization                   ...    0.130 sec
Threshold for overlap eigenvalues          ... 1.000e-07
Number of eigenvalues below threshold      ... 0
Time for construction of square roots      ...    0.059 sec
Total time needed                          ...    0.196 sec

-------------------
DFT GRID GENERATION
-------------------

General Integration Accuracy     IntAcc      ... 4.388
Radial Grid Type                 RadialGrid  ... OptM3 with GC (2021)
Angular Grid (max. ang.)         AngularGrid ... 4 (Lebedev-302)
Angular grid pruning method      GridPruning ... 4 (adaptive)
Weight generation scheme         WeightScheme... mBecke (2022)
Basis function cutoff            BFCut       ... 1.0000e-11
Integration weight cutoff        WCut        ... 1.0000e-14
Partially contracted basis set               ... off
Rotationally invariant grid construction     ... off
Angular grids for H and He will be reduced by one unit

Total number of grid points                  ...   151616
Total number of batches                      ...     2383
Average number of points per batch           ...       63
Average number of grid points per atom       ...     6065

--------------------
COSX GRID GENERATION
--------------------

GRIDX 1
-------
General Integration Accuracy     IntAcc      ... 3.816
Radial Grid Type                 RadialGrid  ... OptM3 with GC (2021)
Angular Grid (max. ang.)         AngularGrid ... 1 (Lebedev-50)
Angular grid pruning method      GridPruning ... 4 (adaptive)
Weight generation scheme         WeightScheme... mBecke (2022)
Basis function cutoff            BFCut       ... 1.0000e-11
Integration weight cutoff        WCut        ... 1.0000e-14
Partially contracted basis set               ... on
Rotationally invariant grid construction     ... off
Angular grids for H and He will be reduced by one unit

Total number of grid points                  ...    19010
Total number of batches                      ...      159
Average number of points per batch           ...      119
Average number of grid points per atom       ...      760
UseSFitting                                  ... on

GRIDX 2
-------
General Integration Accuracy     IntAcc      ... 4.020
Radial Grid Type                 RadialGrid  ... OptM3 with GC (2021)
Angular Grid (max. ang.)         AngularGrid ... 2 (Lebedev-110)
Angular grid pruning method      GridPruning ... 4 (adaptive)
Weight generation scheme         WeightScheme... mBecke (2022)
Basis function cutoff            BFCut       ... 1.0000e-11
Integration weight cutoff        WCut        ... 1.0000e-14
Partially contracted basis set               ... on
Rotationally invariant grid construction     ... off
Angular grids for H and He will be reduced by one unit

Total number of grid points                  ...    45123
Total number of batches                      ...      366
Average number of points per batch           ...      123
Average number of grid points per atom       ...     1805
UseSFitting                                  ... on

GRIDX 3
-------
General Integration Accuracy     IntAcc      ... 4.338
Radial Grid Type                 RadialGrid  ... OptM3 with GC (2021)
Angular Grid (max. ang.)         AngularGrid ... 3 (Lebedev-194)
Angular grid pruning method      GridPruning ... 4 (adaptive)
Weight generation scheme         WeightScheme... mBecke (2022)
Basis function cutoff            BFCut       ... 1.0000e-11
Integration weight cutoff        WCut        ... 1.0000e-14
Partially contracted basis set               ... on
Rotationally invariant grid construction     ... off
Angular grids for H and He will be reduced by one unit

Total number of grid points                  ...   100151
Total number of batches                      ...      795
Average number of points per batch           ...      125
Average number of grid points per atom       ...     4006
UseSFitting                                  ... on
Initializing property integral containers    ... done (  0.0 sec)

SHARK setup successfully completed in   3.6 seconds

Maximum memory used throughout the entire STARTUP-calculation: 58.7 MB


           ************************************************************
           *        Program running with 20 parallel MPI-processes    *
           *              working on a common directory               *
           ************************************************************
-------------------------------------------------------------------------------
                                 ORCA GUESS
                   Start orbitals & Density for SCF / CASSCF
-------------------------------------------------------------------------------

------------
SCF SETTINGS
------------
Hamiltonian:
 Density Functional     Method          .... DFT(GTOs)
 Exchange Functional    Exchange        .... TPSS
 Correlation Functional Correlation     .... TPSS
 LDA part of GGA corr.  LDAOpt          .... PW91-LDA
 Gradients option       PostSCFGGA      .... off
 Hybrid DFT is turned on
   Fraction HF Exchange ScalHFX         ....  0.100000
   Scaling of DF-GGA-X  ScalDFX         ....  0.900000
   Scaling of DF-GGA-C  ScalDFC         ....  1.000000
   Scaling of DF-LDA-C  ScalLDAC        ....  1.000000
   Perturbative correction              ....  0.000000
   NL short-range parameter             ....  5.200000
 RI-approximation to the Coulomb term is turned on
   Number of AuxJ basis functions       .... 1225
   RIJ-COSX (HFX calculated with COS-X)).... on


General Settings:
 Integral files         IntName         .... rf_mecn_opt_TP_D_A
 Hartree-Fock type      HFTyp           .... UHF
 Total Charge           Charge          ....   -2
 Multiplicity           Mult            ....    2
 Number of Electrons    NEL             ....  201
 Basis Dimension        Dim             ....  775
 Nuclear Repulsion      ENuc            ....   2800.6724022566 Eh

Convergence Acceleration:
 AO-DIIS                CNVDIIS         .... on
   Start iteration      DIISMaxIt       ....     0
   Startup error        DIISStart       ....  0.200000
   # of expansion vecs  DIISMaxEq       ....     5
   Bias factor          DIISBfac        ....   1.050
   Max. coefficient     DIISMaxC        ....  10.000
 MO-DIIS                CNVKDIIS        .... off
 Trust-Rad. Augm. Hess. CNVTRAH         .... auto
   Auto Start mean grad. ratio tolernc. ....  1.125000
   Auto Start start iteration           ....    50
   Auto Start num. interpolation iter.  ....    10
   Max. Number of Micro iterations      ....    24
   Max. Number of Macro iterations      .... Maxiter - #DIIS iter
   Number of Davidson start vectors     ....     2
   Converg. threshold    (grad. norm)   ....   1.000e-05
   Grad. Scal. Fac. for Micro threshold ....   0.100
   Minimum threshold for Micro iter.    ....   1.000e-02
   NR start threshold (gradient norm)   ....   1.000e-04
   Initial trust radius                 ....   0.400
   Minimum AH scaling param. (alpha)    ....   1.000
   Maximum AH scaling param. (alpha)    .... 1000.000
   Quad. conv. algorithm                .... NR
   White noise on init. David. guess    .... on
   Maximum white noise                  ....   0.010
   Pseudo random numbers                .... off
   Inactive MOs                         .... canonical
   Orbital update algorithm             .... Taylor
   Preconditioner                       .... Diag
   Full preconditioner red. dimension   ....   250
 SOSCF                  CNVSOSCF        .... on
   Start iteration      SOSCFMaxIt      ....   150
   Startup grad/error   SOSCFStart      ....  0.001000
   Hessian update       SOSCFHessUp     .... L-BFGS
 Level Shifting         CNVShift        .... on
   Level shift para.    LevelShift      ....    0.2500
   Turn off err/grad.   ShiftErr        ....    0.0000
 Zerner damping         CNVZerner       .... off
 Static damping         CNVDamp         .... on
   Fraction old density DampFac         ....    0.8500
   Max. Damping (<1)    DampMax         ....    0.9800
   Min. Damping (>=0)   DampMin         ....    0.0000
   Turn off err/grad.   DampErr         ....    0.0300

SCF Procedure:
 Maximum # iterations   MaxIter         ....  1500
 SCF integral mode      SCFMode         .... Direct
   Integral package                     .... SHARK and LIBINT hybrid scheme
 Reset frequency        DirectResetFreq ....    20
 Integral Threshold     Thresh          ....  2.500e-11 Eh
 Primitive CutOff       TCut            ....  2.500e-12 Eh

Convergence Tolerance:
 Convergence Check Mode ConvCheckMode   .... Total+1el-Energy
 Convergence forced     ConvForced      .... 0
 Energy Change          TolE            ....  1.000e-08 Eh
 1-El. energy change                    ....  1.000e-05 Eh
 Orbital Gradient       TolG            ....  1.000e-05
 Orbital Rotation angle TolX            ....  1.000e-05
 DIIS Error             TolErr          ....  5.000e-07

------------------------------
INITIAL GUESS: MODEL POTENTIAL
------------------------------
Loading Hartree-Fock densities                     ... done
Calculating cut-offs                               ... done
Initializing the effective Hamiltonian             ... done
Setting up the integral package (SHARK)            ... done
Starting the Coulomb interaction                   ... done (   0.2 sec)
Making the grid                                    ... done (   0.5 sec)
Mapping shells                                     ... done
Starting the XC term evaluation                    ... done (   0.2 sec)
  promolecular density results
     # of electrons  =    199.001456794
     EX              =   -207.081404220
     EC              =     -6.976657468
     EX+EC           =   -214.058061688
Transforming the Hamiltonian                       ... done (   0.1 sec)
Diagonalizing the Hamiltonian                      ... done (   0.1 sec)
Back transforming the eigenvectors                 ... done (   0.0 sec)
Now organizing SCF variables                       ... done
                      ------------------
                      INITIAL GUESS DONE (   1.2 sec)
                      ------------------
             **** ENERGY FILE WAS UPDATED (rf_mecn_opt_TP_D_A.en.tmp) ****
Finished Guess after   1.9 sec
Maximum memory used throughout the entire GUESS-calculation: 47.8 MB


           ************************************************************
           *        Program running with 20 parallel MPI-processes    *
           *              working on a common directory               *
           ************************************************************

-------------------------------------------------------------------------------------------
                                      ORCA LEAN-SCF
                              memory conserving SCF solver
-------------------------------------------------------------------------------------------

--------------------
CPCM SOLVATION MODEL
--------------------
CPCM parameters:
  Epsilon                                         ...      35.6880
  Refrac                                          ...       1.3442
  Rsolv                                           ...       1.3000
  Surface type                                    ... GAUSSIAN VDW
  Discretization scheme                           ... Constant charge density
    Threshold for H atoms                         ...       5.0000 (charges/Ang^2)
    Threshold for non-H atoms                     ...       5.0000 (charges/Ang^2)
  Epsilon function type                           ...         CPCM
Solvent:                                          ... ACETONITRILE
SMD-CDS solvent descriptors:
  Soln                                            ...       1.3442
  Soln25                                          ...       1.3416
  Sola                                            ...       0.0700
  Solb                                            ...       0.3200
  Solg                                            ...      41.2500
  Solc                                            ...       0.0000
  Solh                                            ...       0.0000
Radii:
  Scheme                                          ... Element-dependent radii
  Radius for C  used is    3.4960 Bohr (=   1.8500 Ang.)
  Radius for O  used is    4.0969 Bohr (=   2.1680 Ang.)
  Radius for F  used is    3.2692 Bohr (=   1.7300 Ang.)
Calculating surface                               ...        done! (  0.0s)
Cavity surface points                             ...         2210
Cavity Volume                                     ...    2210.0084
Cavity Surface-area                               ...    1156.7954
Calculating surface distance matrix               ...        done! (  0.1s)
Performing Cholesky decomposition & store         ...        done! (  0.1s)
Overall time for CPCM initialization              ...                 0.2s

----------------------------------------D-I-I-S--------------------------------------------
Iteration    Energy (Eh)           Delta-E    RMSDP     MaxDP     DIISErr   Damp  Time(sec)
-------------------------------------------------------------------------------------------
               ***  Starting incremental Fock matrix formation  ***
    1    -1953.2248796683470573     0.00e+00  6.93e-04  1.01e-01  1.82e-01  0.850   8.0
Warning: op=0 Small HOMO/LUMO gap (   0.006) - skipping pre-diagonalization
         Will do a full diagonalization
    2    -1953.4599287067858313    -2.35e-01  8.21e-04  1.44e-01  1.12e-01  0.850   5.7
                               ***Turning on AO-DIIS***
    3    -1953.5592132073406901    -9.93e-02  7.26e-04  1.29e-01  5.89e-02  0.850   5.0
    4    -1953.6046985422617581    -4.55e-02  4.86e-04  8.86e-02  3.72e-02  0.850   5.0
    5    -1953.6370099580417445    -3.23e-02  3.14e-04  5.61e-02  2.83e-02  0.850   4.8
    6    -1953.6701816394552225    -3.32e-02  1.75e-03  2.55e-01  2.63e-02  0.000   4.7
    7    -1953.8808998097802032    -2.11e-01  4.56e-04  7.28e-02  2.74e-02  0.000   5.1
    8    -1953.8986721478886466    -1.78e-02  3.48e-04  4.90e-02  1.35e-02  0.000   4.7
    9    -1953.9070859681378352    -8.41e-03  1.64e-04  2.84e-02  4.84e-03  0.000   4.6
   10    -1953.9097750909759270    -2.69e-03  1.22e-04  2.51e-02  3.05e-03  0.000   4.5
   11    -1953.9108626356392051    -1.09e-03  9.30e-05  1.80e-02  2.63e-03  0.000   4.5
   12    -1953.9114146394658746    -5.52e-04  7.21e-05  1.58e-02  1.27e-03  0.000   4.4
                              *** Initializing SOSCF ***
---------------------------------------S-O-S-C-F--------------------------------------
Iteration    Energy (Eh)           Delta-E    RMSDP     MaxDP     MaxGrad    Time(sec)
--------------------------------------------------------------------------------------
   13    -1953.9116672829650270    -2.53e-04  5.27e-05  1.14e-02  8.70e-04     4.9
               *** Restarting incremental Fock matrix formation ***
   14    -1953.9117944997060476    -1.27e-04  1.22e-04  2.65e-02  2.91e-03     7.8
   15    -1953.9118942072118443    -9.97e-05  7.37e-05  1.52e-02  1.00e-03     6.3
   16    -1953.9118819549539694     1.23e-05  4.26e-05  8.54e-03  1.57e-03     6.1
   17    -1953.9119211553497735    -3.92e-05  1.51e-05  2.09e-03  2.81e-04     5.9
   18    -1953.9119197444797464     1.41e-06  9.24e-06  1.61e-03  2.15e-04     5.5
   19    -1953.9119247067628748    -4.96e-06  2.95e-06  5.00e-04  3.69e-05     5.3
   20    -1953.9119245597657937     1.47e-07  1.72e-06  2.97e-04  3.61e-05     4.8
   21    -1953.9119249036129986    -3.44e-07  7.09e-07  1.93e-04  4.77e-06     4.4
   22    -1953.9119249056775516    -2.06e-09  1.36e-07  1.51e-05  8.72e-06     3.7
                 **** Energy Check signals convergence ****

               *****************************************************
               *                     SUCCESS                       *
               *           SCF CONVERGED AFTER  22 CYCLES          *
               *****************************************************

Recomputing exchange energy using gridx3       ... done (    9.268 sec)
Old exchange energy                            :    -20.923666941 Eh
New exchange energy                            :    -20.923702843 Eh
Exchange energy change after final integration :     -0.000035902 Eh
Total energy after final integration           :  -1953.911960807 Eh

SMD CDS free energy correction energy :                 3.41797     Kcal/mol
Total Energy after SMD CDS correction =             -1953.906513930 Eh
             **** ENERGY FILE WAS UPDATED (rf_mecn_opt_TP_D_A.en.tmp) ****

----------------
TOTAL SCF ENERGY
----------------

Total Energy       :      -1953.90651392986524 Eh          -53168.49928 eV

Components:
Nuclear Repulsion  :       2800.67240225656496 Eh           76210.17052 eV
Electronic Energy  :      -4754.35254705940133 Eh         -129372.50998 eV
One Electron Energy:      -8347.25675042080911 Eh         -227140.40377 eV
Two Electron Energy:       3592.90420336140733 Eh           97767.89380 eV
CPCM Dielectric    :         -0.23178010284069 Eh              -6.30706 eV
SMD CDS (Gcds)     :          0.00544687753892 Eh               0.14822 eV

Virial components:
Potential Energy   :      -3901.21619963727335 Eh         -106157.48973 eV
Kinetic Energy     :       1947.30968570740833 Eh           52988.99046 eV
Virial Ratio       :          2.00338766261518

DFT components:
N(Alpha)           :      101.000003975482 electrons
N(Beta)            :       99.999995016838 electrons
N(Total)           :      200.999998992320 electrons
E(X)               :     -190.200451642418 Eh       
E(C)               :       -7.070094474447 Eh       
E(XC)              :     -197.270546116865 Eh       

CPCM Solvation Model Properties:
Surface-charge          :          1.98876908264699
Corrected charge        :          2.00000000000000
Outlying charge corr.   :          0.00000677439037 Eh               0.00018 eV
Free-energy (cav+disp)  :          0.00544687753892 Eh               0.14822 eV

---------------
SCF CONVERGENCE
---------------

  Last Energy change         ...    2.0646e-09  Tolerance :   1.0000e-08
  Last MAX-Density change    ...    1.5134e-05  Tolerance :   1.0000e-07
  Last RMS-Density change    ...    1.3636e-07  Tolerance :   5.0000e-09
  Last DIIS Error            ...    8.7029e-04  Tolerance :   5.0000e-07
  Last Orbital Gradient      ...    8.7240e-06  Tolerance :   1.0000e-05
  Last Orbital Rotation      ...    1.0809e-05  Tolerance :   1.0000e-05


----------------------
UHF SPIN CONTAMINATION
----------------------

Warning: in a DFT calculation there is little theoretical justification to 
         calculate <S**2> as in Hartree-Fock theory. We will do it anyways
         but you should keep in mind that the values have only limited relevance

Expectation value of <S**2>     :     0.754625
Ideal value S*(S+1) for S=0.5   :     0.750000
Deviation                       :     0.004625

----------------
ORBITAL ENERGIES
----------------
                 SPIN UP ORBITALS
  NO   OCC          E(Eh)            E(eV) 
   0   1.0000     -24.634060      -670.3268 
   1   1.0000     -24.633965      -670.3243 
   2   1.0000     -24.624559      -670.0683 
   3   1.0000     -24.614961      -669.8071 
   4   1.0000     -24.614258      -669.7880 
   5   1.0000     -24.613895      -669.7781 
   6   1.0000     -24.612644      -669.7441 
   7   1.0000     -24.611182      -669.7043 
   8   1.0000     -24.609135      -669.6486 
   9   1.0000     -24.600874      -669.4238 
  10   1.0000     -24.600474      -669.4129 
  11   1.0000     -24.599917      -669.3978 
  12   1.0000     -24.599516      -669.3869 
  13   1.0000     -24.599447      -669.3850 
  14   1.0000     -24.598139      -669.3494 
  15   1.0000     -18.977613      -516.4071 
  16   1.0000     -18.976628      -516.3803 
  17   1.0000     -10.358080      -281.8577 
  18   1.0000     -10.288279      -279.9583 
  19   1.0000     -10.286959      -279.9224 
  20   1.0000     -10.283641      -279.8321 
  21   1.0000     -10.272908      -279.5400 
  22   1.0000     -10.272629      -279.5325 
  23   1.0000     -10.262635      -279.2605 
  24   1.0000     -10.178581      -276.9733 
  25   1.0000      -1.285172       -34.9713 
  26   1.0000      -1.243419       -33.8351 
  27   1.0000      -1.231422       -33.5087 
  28   1.0000      -1.224355       -33.3164 
  29   1.0000      -1.214305       -33.0429 
  30   1.0000      -1.212104       -32.9830 
  31   1.0000      -1.204904       -32.7871 
  32   1.0000      -1.202316       -32.7167 
  33   1.0000      -1.191694       -32.4276 
  34   1.0000      -1.182889       -32.1880 
  35   1.0000      -1.178139       -32.0588 
  36   1.0000      -1.172241       -31.8983 
  37   1.0000      -1.164097       -31.6767 
  38   1.0000      -1.158939       -31.5363 
  39   1.0000      -1.157010       -31.4839 
  40   1.0000      -0.985336       -26.8123 
  41   1.0000      -0.903106       -24.5748 
  42   1.0000      -0.765309       -20.8251 
  43   1.0000      -0.759788       -20.6749 
  44   1.0000      -0.730116       -19.8675 
  45   1.0000      -0.698266       -19.0008 
  46   1.0000      -0.659714       -17.9517 
  47   1.0000      -0.627961       -17.0877 
  48   1.0000      -0.605017       -16.4633 
  49   1.0000      -0.574976       -15.6459 
  50   1.0000      -0.572992       -15.5919 
  51   1.0000      -0.571624       -15.5547 
  52   1.0000      -0.560385       -15.2488 
  53   1.0000      -0.554989       -15.1020 
  54   1.0000      -0.552478       -15.0337 
  55   1.0000      -0.539426       -14.6785 
  56   1.0000      -0.536017       -14.5858 
  57   1.0000      -0.528029       -14.3684 
  58   1.0000      -0.526421       -14.3246 
  59   1.0000      -0.519540       -14.1374 
  60   1.0000      -0.512331       -13.9412 
  61   1.0000      -0.507590       -13.8122 
  62   1.0000      -0.502099       -13.6628 
  63   1.0000      -0.494284       -13.4501 
  64   1.0000      -0.445803       -12.1309 
  65   1.0000      -0.445768       -12.1300 
  66   1.0000      -0.439901       -11.9703 
  67   1.0000      -0.431655       -11.7459 
  68   1.0000      -0.428644       -11.6640 
  69   1.0000      -0.426363       -11.6019 
  70   1.0000      -0.421007       -11.4562 
  71   1.0000      -0.419011       -11.4019 
  72   1.0000      -0.416248       -11.3267 
  73   1.0000      -0.415244       -11.2994 
  74   1.0000      -0.413097       -11.2409 
  75   1.0000      -0.409039       -11.1305 
  76   1.0000      -0.406232       -11.0541 
  77   1.0000      -0.400036       -10.8855 
  78   1.0000      -0.399223       -10.8634 
  79   1.0000      -0.394279       -10.7289 
  80   1.0000      -0.388183       -10.5630 
  81   1.0000      -0.387245       -10.5375 
  82   1.0000      -0.386918       -10.5286 
  83   1.0000      -0.380830       -10.3629 
  84   1.0000      -0.378625       -10.3029 
  85   1.0000      -0.376566       -10.2469 
  86   1.0000      -0.373007       -10.1500 
  87   1.0000      -0.370599       -10.0845 
  88   1.0000      -0.367210        -9.9923 
  89   1.0000      -0.366776        -9.9805 
  90   1.0000      -0.364053        -9.9064 
  91   1.0000      -0.361328        -9.8322 
  92   1.0000      -0.353021        -9.6062 
  93   1.0000      -0.352018        -9.5789 
  94   1.0000      -0.342450        -9.3185 
  95   1.0000      -0.320451        -8.7199 
  96   1.0000      -0.290461        -7.9038 
  97   1.0000      -0.222378        -6.0512 
  98   1.0000      -0.208855        -5.6832 
  99   1.0000      -0.204754        -5.5716 
 100   1.0000      -0.070521        -1.9190 
 101   0.0000       0.017744         0.4828 
 102   0.0000       0.033178         0.9028 
 103   0.0000       0.046122         1.2551 
 104   0.0000       0.063375         1.7245 
 105   0.0000       0.087894         2.3917 
 106   0.0000       0.108493         2.9522 
 107   0.0000       0.115837         3.1521 
 108   0.0000       0.121869         3.3162 
 109   0.0000       0.133250         3.6259 
 110   0.0000       0.145597         3.9619 
 111   0.0000       0.149123         4.0579 

                 SPIN DOWN ORBITALS
  NO   OCC          E(Eh)            E(eV) 
   0   1.0000     -24.634033      -670.3261 
   1   1.0000     -24.633939      -670.3236 
   2   1.0000     -24.623234      -670.0323 
   3   1.0000     -24.614923      -669.8061 
   4   1.0000     -24.613897      -669.7782 
   5   1.0000     -24.613516      -669.7678 
   6   1.0000     -24.612534      -669.7411 
   7   1.0000     -24.610985      -669.6989 
   8   1.0000     -24.608888      -669.6419 
   9   1.0000     -24.600439      -669.4120 
  10   1.0000     -24.599934      -669.3982 
  11   1.0000     -24.599436      -669.3847 
  12   1.0000     -24.599414      -669.3841 
  13   1.0000     -24.598933      -669.3710 
  14   1.0000     -24.598079      -669.3477 
  15   1.0000     -18.977439      -516.4024 
  16   1.0000     -18.976489      -516.3765 
  17   1.0000     -10.356285      -281.8089 
  18   1.0000     -10.285812      -279.8912 
  19   1.0000     -10.285535      -279.8836 
  20   1.0000     -10.281378      -279.7705 
  21   1.0000     -10.269008      -279.4339 
  22   1.0000     -10.268884      -279.4305 
  23   1.0000     -10.262127      -279.2467 
  24   1.0000     -10.178424      -276.9690 
  25   1.0000      -1.284178       -34.9443 
  26   1.0000      -1.242620       -33.8134 
  27   1.0000      -1.229972       -33.4692 
  28   1.0000      -1.223517       -33.2936 
  29   1.0000      -1.213928       -33.0327 
  30   1.0000      -1.210938       -32.9513 
  31   1.0000      -1.204744       -32.7828 
  32   1.0000      -1.200831       -32.6763 
  33   1.0000      -1.189666       -32.3725 
  34   1.0000      -1.182449       -32.1761 
  35   1.0000      -1.177270       -32.0351 
  36   1.0000      -1.171733       -31.8845 
  37   1.0000      -1.163098       -31.6495 
  38   1.0000      -1.158790       -31.5323 
  39   1.0000      -1.155972       -31.4556 
  40   1.0000      -0.985031       -26.8041 
  41   1.0000      -0.902806       -24.5666 
  42   1.0000      -0.758078       -20.6284 
  43   1.0000      -0.752671       -20.4812 
  44   1.0000      -0.722638       -19.6640 
  45   1.0000      -0.692365       -18.8402 
  46   1.0000      -0.656244       -17.8573 
  47   1.0000      -0.625901       -17.0316 
  48   1.0000      -0.603101       -16.4112 
  49   1.0000      -0.573829       -15.6147 
  50   1.0000      -0.569379       -15.4936 
  51   1.0000      -0.567716       -15.4483 
  52   1.0000      -0.558458       -15.1964 
  53   1.0000      -0.551924       -15.0186 
  54   1.0000      -0.550683       -14.9848 
  55   1.0000      -0.537384       -14.6230 
  56   1.0000      -0.532282       -14.4841 
  57   1.0000      -0.526146       -14.3172 
  58   1.0000      -0.523373       -14.2417 
  59   1.0000      -0.518272       -14.1029 
  60   1.0000      -0.511093       -13.9076 
  61   1.0000      -0.503131       -13.6909 
  62   1.0000      -0.499674       -13.5968 
  63   1.0000      -0.493160       -13.4196 
  64   1.0000      -0.445309       -12.1175 
  65   1.0000      -0.443697       -12.0736 
  66   1.0000      -0.439071       -11.9477 
  67   1.0000      -0.431153       -11.7323 
  68   1.0000      -0.427933       -11.6447 
  69   1.0000      -0.426026       -11.5928 
  70   1.0000      -0.420497       -11.4423 
  71   1.0000      -0.418149       -11.3784 
  72   1.0000      -0.415349       -11.3022 
  73   1.0000      -0.414274       -11.2730 
  74   1.0000      -0.412466       -11.2238 
  75   1.0000      -0.408035       -11.1032 
  76   1.0000      -0.405462       -11.0332 
  77   1.0000      -0.398971       -10.8565 
  78   1.0000      -0.398184       -10.8351 
  79   1.0000      -0.393708       -10.7133 
  80   1.0000      -0.387215       -10.5367 
  81   1.0000      -0.386421       -10.5151 
  82   1.0000      -0.386272       -10.5110 
  83   1.0000      -0.379920       -10.3382 
  84   1.0000      -0.377627       -10.2758 
  85   1.0000      -0.376058       -10.2331 
  86   1.0000      -0.371322       -10.1042 
  87   1.0000      -0.367592       -10.0027 
  88   1.0000      -0.365783        -9.9535 
  89   1.0000      -0.364405        -9.9160 
  90   1.0000      -0.363367        -9.8877 
  91   1.0000      -0.358918        -9.7667 
  92   1.0000      -0.351421        -9.5627 
  93   1.0000      -0.347610        -9.4590 
  94   1.0000      -0.337897        -9.1947 
  95   1.0000      -0.317451        -8.6383 
  96   1.0000      -0.289528        -7.8785 
  97   1.0000      -0.221677        -6.0321 
  98   1.0000      -0.208126        -5.6634 
  99   1.0000      -0.204557        -5.5663 
 100   0.0000      -0.013848        -0.3768 
 101   0.0000       0.026278         0.7151 
 102   0.0000       0.041893         1.1400 
 103   0.0000       0.054400         1.4803 
 104   0.0000       0.072439         1.9712 
 105   0.0000       0.096059         2.6139 
 106   0.0000       0.113716         3.0944 
 107   0.0000       0.120905         3.2900 
 108   0.0000       0.122468         3.3325 
 109   0.0000       0.140855         3.8329 
 110   0.0000       0.148665         4.0454 
*Only the first 10 virtual orbitals were printed.

                    ********************************
                    * MULLIKEN POPULATION ANALYSIS *
                    ********************************

--------------------------------------------
MULLIKEN ATOMIC CHARGES AND SPIN POPULATIONS
--------------------------------------------
   0 C :    0.166811    0.007601
   1 O :   -0.499530    0.005086
   2 O :   -0.507071    0.004354
   3 C :    0.307308    0.023267
   4 C :    0.247809    0.059251
   5 C :    0.254739    0.135505
   6 C :    0.221593    0.246843
   7 C :    0.195648    0.265832
   8 C :    0.251106    0.155324
   9 C :    0.376216    0.086168
  10 F :   -0.209766   -0.000061
  11 F :   -0.213920   -0.000041
  12 F :   -0.193433   -0.000211
  13 F :   -0.197494   -0.000807
  14 F :   -0.202424   -0.000930
  15 F :   -0.204209   -0.001489
  16 F :   -0.217355   -0.000544
  17 F :   -0.222799   -0.000209
  18 F :   -0.226465    0.000956
  19 F :   -0.222383    0.000635
  20 F :   -0.201755    0.000718
  21 F :   -0.201197    0.000616
  22 F :   -0.162151   -0.001464
  23 F :   -0.177000    0.015082
  24 F :   -0.162279   -0.001481
Sum of atomic charges         :   -2.0000000
Sum of atomic spin populations:    1.0000000

-----------------------------------------------------
MULLIKEN REDUCED ORBITAL CHARGES AND SPIN POPULATIONS
-----------------------------------------------------
CHARGE
  0 C s       :     3.036223  s :     3.036223
      pz      :     0.807496  p :     2.527500
      px      :     0.885183
      py      :     0.834820
      dz2     :     0.066509  d :     0.245375
      dxz     :     0.047482
      dyz     :     0.047055
      dx2y2   :     0.040665
      dxy     :     0.043665
      f0      :     0.003294  f :     0.024092
      f+1     :     0.002703
      f-1     :     0.005544
      f+2     :     0.004635
      f-2     :     0.003436
      f+3     :     0.002172
      f-3     :     0.002306

  1 O s       :     3.785816  s :     3.785816
      pz      :     1.409303  p :     4.684904
      px      :     1.645388
      py      :     1.630214
      dz2     :     0.009076  d :     0.027055
      dxz     :     0.006371
      dyz     :     0.006684
      dx2y2   :     0.002061
      dxy     :     0.002863
      f0      :     0.000467  f :     0.001755
      f+1     :     0.000303
      f-1     :     0.000327
      f+2     :     0.000235
      f-2     :     0.000293
      f+3     :     0.000065
      f-3     :     0.000065

  2 O s       :     3.786322  s :     3.786322
      pz      :     1.585581  p :     4.692073
      px      :     1.674199
      py      :     1.432293
      dz2     :     0.004951  d :     0.026932
      dxz     :     0.003697
      dyz     :     0.007281
      dx2y2   :     0.006119
      dxy     :     0.004884
      f0      :     0.000157  f :     0.001744
      f+1     :     0.000106
      f-1     :     0.000397
      f+2     :     0.000336
      f-2     :     0.000322
      f+3     :     0.000180
      f-3     :     0.000246

  3 C s       :     3.110778  s :     3.110778
      pz      :     0.615223  p :     2.297873
      px      :     0.986927
      py      :     0.695723
      dz2     :     0.052081  d :     0.257836
      dxz     :     0.051173
      dyz     :     0.062680
      dx2y2   :     0.041576
      dxy     :     0.050326
      f0      :     0.003531  f :     0.026204
      f+1     :     0.004590
      f-1     :     0.007354
      f+2     :     0.002322
      f-2     :     0.002159
      f+3     :     0.003757
      f-3     :     0.002491

  4 C s       :     3.145020  s :     3.145020
      pz      :     0.583715  p :     2.294316
      px      :     0.957982
      py      :     0.752619
      dz2     :     0.069420  d :     0.285632
      dxz     :     0.056298
      dyz     :     0.055178
      dx2y2   :     0.049530
      dxy     :     0.055205
      f0      :     0.004700  f :     0.027223
      f+1     :     0.004048
      f-1     :     0.006090
      f+2     :     0.003143
      f-2     :     0.004172
      f+3     :     0.003008
      f-3     :     0.002062

  5 C s       :     3.132272  s :     3.132272
      pz      :     0.565876  p :     2.292467
      px      :     0.922117
      py      :     0.804474
      dz2     :     0.076234  d :     0.293898
      dxz     :     0.056602
      dyz     :     0.050262
      dx2y2   :     0.058957
      dxy     :     0.051843
      f0      :     0.005657  f :     0.026623
      f+1     :     0.003712
      f-1     :     0.004400
      f+2     :     0.003752
      f-2     :     0.004797
      f+3     :     0.002442
      f-3     :     0.001863

  6 C s       :     3.134818  s :     3.134818
      pz      :     0.555800  p :     2.319467
      px      :     0.901661
      py      :     0.862006
      dz2     :     0.076781  d :     0.298390
      dxz     :     0.054351
      dyz     :     0.047299
      dx2y2   :     0.070957
      dxy     :     0.049002
      f0      :     0.005500  f :     0.025732
      f+1     :     0.003659
      f-1     :     0.004262
      f+2     :     0.003629
      f-2     :     0.004564
      f+3     :     0.002326
      f-3     :     0.001792

  7 C s       :     3.147891  s :     3.147891
      pz      :     0.554378  p :     2.329107
      px      :     0.906783
      py      :     0.867946
      dz2     :     0.077992  d :     0.301848
      dxz     :     0.054036
      dyz     :     0.046684
      dx2y2   :     0.075561
      dxy     :     0.047576
      f0      :     0.005429  f :     0.025506
      f+1     :     0.003680
      f-1     :     0.004279
      f+2     :     0.003572
      f-2     :     0.004458
      f+3     :     0.002298
      f-3     :     0.001790

  8 C s       :     3.105811  s :     3.105811
      pz      :     0.564257  p :     2.324095
      px      :     0.932174
      py      :     0.827663
      dz2     :     0.077074  d :     0.292673
      dxz     :     0.055808
      dyz     :     0.049840
      dx2y2   :     0.060915
      dxy     :     0.049035
      f0      :     0.005736  f :     0.026316
      f+1     :     0.003691
      f-1     :     0.004256
      f+2     :     0.003721
      f-2     :     0.004804
      f+3     :     0.002214
      f-3     :     0.001895

  9 C s       :     3.049210  s :     3.049210
      pz      :     0.627825  p :     2.195275
      px      :     0.831878
      py      :     0.735572
      dz2     :     0.076016  d :     0.340765
      dxz     :     0.071893
      dyz     :     0.062694
      dx2y2   :     0.072233
      dxy     :     0.057929
      f0      :     0.008376  f :     0.038535
      f+1     :     0.004389
      f-1     :     0.004585
      f+2     :     0.004184
      f-2     :     0.008335
      f+3     :     0.005214
      f-3     :     0.003453

 10 F s       :     3.909993  s :     3.909993
      pz      :     1.839616  p :     5.284889
      px      :     1.910981
      py      :     1.534292
      dz2     :     0.001822  d :     0.014243
      dxz     :     0.000709
      dyz     :     0.004161
      dx2y2   :     0.004452
      dxy     :     0.003099
      f0      :     0.000071  f :     0.000642
      f+1     :     0.000005
      f-1     :     0.000103
      f+2     :     0.000158
      f-2     :     0.000053
      f+3     :     0.000111
      f-3     :     0.000140

 11 F s       :     3.910755  s :     3.910755
      pz      :     1.477274  p :     5.288385
      px      :     1.918006
      py      :     1.893105
      dz2     :     0.007367  d :     0.014140
      dxz     :     0.003402
      dyz     :     0.002938
      dx2y2   :     0.000181
      dxy     :     0.000251
      f0      :     0.000325  f :     0.000641
      f+1     :     0.000143
      f-1     :     0.000147
      f+2     :     0.000009
      f-2     :     0.000014
      f+3     :     0.000001
      f-3     :     0.000001

 12 F s       :     3.912569  s :     3.912569
      pz      :     1.729467  p :     5.265498
      px      :     1.915277
      py      :     1.620755
      dz2     :     0.002232  d :     0.014703
      dxz     :     0.001319
      dyz     :     0.005801
      dx2y2   :     0.003048
      dxy     :     0.002304
      f0      :     0.000072  f :     0.000662
      f+1     :     0.000010
      f-1     :     0.000166
      f+2     :     0.000194
      f-2     :     0.000089
      f+3     :     0.000060
      f-3     :     0.000072

 13 F s       :     3.915141  s :     3.915141
      pz      :     1.522090  p :     5.267041
      px      :     1.912388
      py      :     1.832563
      dz2     :     0.005984  d :     0.014657
      dxz     :     0.002990
      dyz     :     0.004314
      dx2y2   :     0.000675
      dxy     :     0.000693
      f0      :     0.000217  f :     0.000655
      f+1     :     0.000104
      f-1     :     0.000222
      f+2     :     0.000050
      f-2     :     0.000054
      f+3     :     0.000005
      f-3     :     0.000004

 14 F s       :     3.913243  s :     3.913243
      pz      :     1.641970  p :     5.274289
      px      :     1.917714
      py      :     1.714605
      dz2     :     0.003229  d :     0.014258
      dxz     :     0.001906
      dyz     :     0.005690
      dx2y2   :     0.001873
      dxy     :     0.001559
      f0      :     0.000085  f :     0.000634
      f+1     :     0.000033
      f-1     :     0.000226
      f+2     :     0.000144
      f-2     :     0.000090
      f+3     :     0.000026
      f-3     :     0.000030

 15 F s       :     3.914524  s :     3.914524
      pz      :     1.590090  p :     5.274830
      px      :     1.918399
      py      :     1.766341
      dz2     :     0.004230  d :     0.014225
      dxz     :     0.002284
      dyz     :     0.005240
      dx2y2   :     0.001321
      dxy     :     0.001150
      f0      :     0.000121  f :     0.000630
      f+1     :     0.000055
      f-1     :     0.000243
      f+2     :     0.000104
      f-2     :     0.000078
      f+3     :     0.000014
      f-3     :     0.000015

 16 F s       :     3.914169  s :     3.914169
      pz      :     1.613197  p :     5.288845
      px      :     1.921073
      py      :     1.754576
      dz2     :     0.003718  d :     0.013738
      dxz     :     0.002034
      dyz     :     0.005212
      dx2y2   :     0.001561
      dxy     :     0.001213
      f0      :     0.000100  f :     0.000602
      f+1     :     0.000044
      f-1     :     0.000230
      f+2     :     0.000115
      f-2     :     0.000077
      f+3     :     0.000016
      f-3     :     0.000020

 17 F s       :     3.915016  s :     3.915016
      pz      :     1.627489  p :     5.293811
      px      :     1.922034
      py      :     1.744288
      dz2     :     0.003393  d :     0.013389
      dxz     :     0.001908
      dyz     :     0.005179
      dx2y2   :     0.001640
      dxy     :     0.001269
      f0      :     0.000088  f :     0.000583
      f+1     :     0.000038
      f-1     :     0.000219
      f+2     :     0.000119
      f-2     :     0.000078
      f+3     :     0.000018
      f-3     :     0.000022

 18 F s       :     3.915937  s :     3.915937
      pz      :     1.629378  p :     5.296685
      px      :     1.922824
      py      :     1.744483
      dz2     :     0.003344  d :     0.013270
      dxz     :     0.001867
      dyz     :     0.005146
      dx2y2   :     0.001663
      dxy     :     0.001250
      f0      :     0.000086  f :     0.000574
      f+1     :     0.000036
      f-1     :     0.000216
      f+2     :     0.000119
      f-2     :     0.000077
      f+3     :     0.000018
      f-3     :     0.000022

 19 F s       :     3.915612  s :     3.915612
      pz      :     1.611459  p :     5.292697
      px      :     1.922294
      py      :     1.758944
      dz2     :     0.003718  d :     0.013489
      dxz     :     0.002006
      dyz     :     0.005081
      dx2y2   :     0.001524
      dxy     :     0.001160
      f0      :     0.000099  f :     0.000585
      f+1     :     0.000043
      f-1     :     0.000225
      f+2     :     0.000110
      f-2     :     0.000074
      f+3     :     0.000014
      f-3     :     0.000019

 20 F s       :     3.913683  s :     3.913683
      pz      :     1.619943  p :     5.273446
      px      :     1.917336
      py      :     1.736168
      dz2     :     0.003533  d :     0.014008
      dxz     :     0.001970
      dyz     :     0.005486
      dx2y2   :     0.001650
      dxy     :     0.001368
      f0      :     0.000093  f :     0.000618
      f+1     :     0.000039
      f-1     :     0.000232
      f+2     :     0.000127
      f-2     :     0.000084
      f+3     :     0.000021
      f-3     :     0.000023

 21 F s       :     3.913784  s :     3.913784
      pz      :     1.603439  p :     5.272741
      px      :     1.917006
      py      :     1.752297
      dz2     :     0.003865  d :     0.014051
      dxz     :     0.002103
      dyz     :     0.005355
      dx2y2   :     0.001476
      dxy     :     0.001252
      f0      :     0.000105  f :     0.000620
      f+1     :     0.000046
      f-1     :     0.000237
      f+2     :     0.000115
      f-2     :     0.000081
      f+3     :     0.000017
      f-3     :     0.000019

 22 F s       :     3.909109  s :     3.909109
      pz      :     1.613445  p :     5.236826
      px      :     1.892238
      py      :     1.731142
      dz2     :     0.004087  d :     0.015483
      dxz     :     0.002234
      dyz     :     0.006045
      dx2y2   :     0.001622
      dxy     :     0.001494
      f0      :     0.000115  f :     0.000734
      f+1     :     0.000053
      f-1     :     0.000266
      f+2     :     0.000144
      f-2     :     0.000104
      f+3     :     0.000027
      f-3     :     0.000025

 23 F s       :     3.908306  s :     3.908306
      pz      :     1.900390  p :     5.253724
      px      :     1.618489
      py      :     1.734845
      dz2     :     0.002125  d :     0.014311
      dxz     :     0.001587
      dyz     :     0.001289
      dx2y2   :     0.003411
      dxy     :     0.005899
      f0      :     0.000051  f :     0.000660
      f+1     :     0.000087
      f-1     :     0.000062
      f+2     :     0.000008
      f-2     :     0.000084
      f+3     :     0.000162
      f-3     :     0.000204

 24 F s       :     3.909165  s :     3.909165
      pz      :     1.593891  p :     5.236907
      px      :     1.895128
      py      :     1.747889
      dz2     :     0.004476  d :     0.015473
      dxz     :     0.002328
      dyz     :     0.005928
      dx2y2   :     0.001422
      dxy     :     0.001320
      f0      :     0.000130  f :     0.000734
      f+1     :     0.000059
      f-1     :     0.000276
      f+2     :     0.000131
      f-2     :     0.000096
      f+3     :     0.000021
      f-3     :     0.000020


SPIN
  0 C s       :     0.002777  s :     0.002777
      pz      :     0.001814  p :     0.004082
      px      :    -0.000764
      py      :     0.003032
      dz2     :     0.000014  d :     0.000709
      dxz     :    -0.000017
      dyz     :     0.000101
      dx2y2   :     0.000482
      dxy     :     0.000129
      f0      :     0.000006  f :     0.000033
      f+1     :    -0.000003
      f-1     :    -0.000018
      f+2     :     0.000016
      f-2     :    -0.000005
      f+3     :     0.000030
      f-3     :     0.000008

  1 O s       :     0.000017  s :     0.000017
      pz      :     0.002552  p :     0.005058
      px      :    -0.001084
      py      :     0.003590
      dz2     :    -0.000017  d :     0.000011
      dxz     :     0.000001
      dyz     :     0.000022
      dx2y2   :     0.000002
      dxy     :     0.000004
      f0      :    -0.000000  f :    -0.000000
      f+1     :     0.000001
      f-1     :    -0.000000
      f+2     :     0.000000
      f-2     :    -0.000000
      f+3     :    -0.000000
      f-3     :    -0.000000

  2 O s       :     0.000166  s :     0.000166
      pz      :     0.001205  p :     0.004183
      px      :    -0.000290
      py      :     0.003267
      dz2     :    -0.000001  d :     0.000006
      dxz     :    -0.000000
      dyz     :     0.000009
      dx2y2   :    -0.000008
      dxy     :     0.000006
      f0      :    -0.000000  f :    -0.000001
      f+1     :     0.000000
      f-1     :    -0.000001
      f+2     :    -0.000000
      f-2     :    -0.000001
      f+3     :     0.000001
      f-3     :    -0.000000

  3 C s       :    -0.003919  s :    -0.003919
      pz      :     0.000912  p :     0.022191
      px      :     0.005484
      py      :     0.015795
      dz2     :     0.000699  d :     0.004936
      dxz     :    -0.000021
      dyz     :     0.000030
      dx2y2   :     0.004037
      dxy     :     0.000191
      f0      :    -0.000018  f :     0.000060
      f+1     :     0.000006
      f-1     :     0.000003
      f+2     :     0.000012
      f-2     :    -0.000002
      f+3     :     0.000079
      f-3     :    -0.000021

  4 C s       :    -0.009207  s :    -0.009207
      pz      :     0.002323  p :     0.056542
      px      :     0.001821
      py      :     0.052398
      dz2     :     0.002197  d :     0.011909
      dxz     :     0.000031
      dyz     :     0.000194
      dx2y2   :     0.008664
      dxy     :     0.000823
      f0      :    -0.000030  f :     0.000007
      f+1     :     0.000007
      f-1     :    -0.000010
      f+2     :     0.000007
      f-2     :    -0.000004
      f+3     :     0.000123
      f-3     :    -0.000085

  5 C s       :    -0.023506  s :    -0.023506
      pz      :     0.004630  p :     0.133861
      px      :    -0.007456
      py      :     0.136686
      dz2     :     0.005389  d :     0.025377
      dxz     :     0.000023
      dyz     :     0.000344
      dx2y2   :     0.019767
      dxy     :    -0.000146
      f0      :    -0.000031  f :    -0.000226
      f+1     :     0.000004
      f-1     :    -0.000051
      f+2     :     0.000004
      f-2     :     0.000008
      f+3     :     0.000096
      f-3     :    -0.000257

  6 C s       :    -0.019212  s :    -0.019212
      pz      :     0.007026  p :     0.226428
      px      :    -0.012198
      py      :     0.231600
      dz2     :     0.008698  d :     0.040220
      dxz     :     0.000012
      dyz     :     0.000495
      dx2y2   :     0.030722
      dxy     :     0.000293
      f0      :    -0.000045  f :    -0.000593
      f+1     :    -0.000012
      f-1     :    -0.000083
      f+2     :     0.000013
      f-2     :     0.000012
      f+3     :    -0.000063
      f-3     :    -0.000415

  7 C s       :    -0.011179  s :    -0.011179
      pz      :     0.007525  p :     0.232223
      px      :    -0.018921
      py      :     0.243620
      dz2     :     0.009964  d :     0.045464
      dxz     :     0.000044
      dyz     :     0.000497
      dx2y2   :     0.035105
      dxy     :    -0.000146
      f0      :    -0.000050  f :    -0.000676
      f+1     :    -0.000016
      f-1     :    -0.000078
      f+2     :     0.000015
      f-2     :     0.000012
      f+3     :    -0.000086
      f-3     :    -0.000472

  8 C s       :    -0.021011  s :    -0.021011
      pz      :     0.004877  p :     0.143969
      px      :    -0.009160
      py      :     0.148251
      dz2     :     0.006746  d :     0.032685
      dxz     :     0.000038
      dyz     :     0.000358
      dx2y2   :     0.025929
      dxy     :    -0.000387
      f0      :    -0.000035  f :    -0.000319
      f+1     :     0.000016
      f-1     :    -0.000037
      f+2     :     0.000000
      f-2     :     0.000013
      f+3     :     0.000058
      f-3     :    -0.000334

  9 C s       :     0.020798  s :     0.020798
      pz      :     0.003766  p :     0.054297
      px      :    -0.007769
      py      :     0.058300
      dz2     :     0.002044  d :     0.010832
      dxz     :    -0.000072
      dyz     :     0.000270
      dx2y2   :     0.005453
      dxy     :     0.003137
      f0      :    -0.000002  f :     0.000240
      f+1     :     0.000003
      f-1     :    -0.000078
      f+2     :     0.000004
      f-2     :    -0.000012
      f+3     :     0.000400
      f-3     :    -0.000074

 10 F s       :    -0.000115  s :    -0.000115
      pz      :     0.000248  p :     0.000009
      px      :    -0.000333
      py      :     0.000094
      dz2     :     0.000007  d :     0.000043
      dxz     :     0.000007
      dyz     :     0.000002
      dx2y2   :     0.000025
      dxy     :     0.000002
      f0      :     0.000000  f :     0.000002
      f+1     :    -0.000000
      f-1     :     0.000000
      f+2     :    -0.000000
      f-2     :     0.000000
      f+3     :     0.000000
      f-3     :     0.000002

 11 F s       :    -0.000012  s :    -0.000012
      pz      :    -0.000488  p :    -0.000096
      px      :     0.000026
      py      :     0.000366
      dz2     :     0.000005  d :     0.000066
      dxz     :     0.000023
      dyz     :     0.000017
      dx2y2   :     0.000020
      dxy     :     0.000000
      f0      :    -0.000000  f :     0.000002
      f+1     :     0.000001
      f-1     :     0.000000
      f+2     :     0.000000
      f-2     :     0.000000
      f+3     :     0.000000
      f-3     :     0.000000

 12 F s       :     0.000002  s :     0.000002
      pz      :     0.001551  p :    -0.000308
      px      :    -0.000779
      py      :    -0.001080
      dz2     :     0.000001  d :     0.000091
      dxz     :    -0.000002
      dyz     :     0.000011
      dx2y2   :     0.000083
      dxy     :    -0.000001
      f0      :    -0.000000  f :     0.000003
      f+1     :     0.000000
[...]
 11:     56.93   0.000426    2.15  0.002333  (-0.032295  0.007403  0.035146)
 12:     62.72   0.000056    0.28  0.000278  (-0.006534  0.013642 -0.006998)
 13:     71.96   0.000240    1.21  0.001042  (-0.031489  0.007119  0.000383)
 14:     94.14   0.001873    9.47  0.006209  (-0.072758  0.026380 -0.014821)
 15:     98.75   0.000598    3.02  0.001890  ( 0.040812  0.012552 -0.008177)
 16:    128.50   0.029384  148.50  0.071361  ( 0.264926 -0.032851  0.009811)
 17:    157.89   0.015797   79.83  0.031223  (-0.175923 -0.010817  0.012544)
 18:    178.06   0.000524    2.65  0.000918  (-0.026936  0.003885 -0.013321)
 19:    195.82   0.001036    5.24  0.001652  (-0.007231 -0.003753 -0.039817)
 20:    204.47   0.000108    0.55  0.000165  ( 0.010478  0.005652  0.004831)
 21:    222.46   0.002023   10.22  0.002838  ( 0.047934  0.003955  0.022909)
 22:    225.60   0.021392  108.11  0.029591  ( 0.171974  0.001765 -0.003562)
 23:    238.79   0.000004    0.02  0.000005  (-0.000375  0.002172  0.000512)
 24:    245.56   0.000062    0.31  0.000079  ( 0.006717 -0.001002 -0.005740)
 25:    253.25   0.000027    0.14  0.000033  ( 0.004019  0.000163  0.004104)
 26:    259.58   0.000269    1.36  0.000323  (-0.013828 -0.002849  0.011132)
 27:    308.30   0.001001    5.06  0.001013  ( 0.031650  0.003202 -0.001219)
 28:    315.73   0.008997   45.46  0.008892  (-0.094296 -0.000120  0.000554)
 29:    316.75   0.006075   30.70  0.005985  ( 0.077357 -0.000831  0.000823)
 30:    323.04   0.000021    0.11  0.000020  ( 0.000342 -0.004511 -0.000104)
 31:    331.12   0.005246   26.51  0.004944  ( 0.069676 -0.009177  0.002200)
 32:    340.90   0.003802   19.21  0.003480  ( 0.058941 -0.000135 -0.002441)
 33:    354.62   0.000064    0.32  0.000056  (-0.007053 -0.000050  0.002529)
 34:    358.83   0.000457    2.31  0.000398  ( 0.014685 -0.004656  0.012668)
 35:    367.27   0.000384    1.94  0.000327  (-0.016973  0.006053 -0.001353)
 36:    411.66   0.000016    0.08  0.000012  ( 0.003119  0.000532  0.001355)
 37:    456.56   0.000739    3.74  0.000505  (-0.016235 -0.013652 -0.007434)
 38:    461.07   0.000460    2.32  0.000311  (-0.009565 -0.007825  0.012585)
 39:    499.12   0.004238   21.42  0.002650  ( 0.050824 -0.006369  0.005109)
 40:    504.91   0.000150    0.76  0.000093  (-0.008225  0.001304  0.004858)
 41:    522.87   0.001866    9.43  0.001114  (-0.015203 -0.025784  0.014757)
 42:    538.25   0.001195    6.04  0.000693  (-0.024668 -0.009073 -0.001361)
 43:    555.90   0.007487   37.84  0.004203  (-0.062753  0.015540 -0.004848)
 44:    566.05   0.002193   11.08  0.001209  (-0.024668 -0.020176  0.013916)
 45:    581.80   0.000951    4.80  0.000510  ( 0.021566  0.002582  0.006170)
 46:    596.92   0.001105    5.58  0.000578  ( 0.019966  0.011005  0.007615)
 47:    609.45   0.033377  168.67  0.017091  ( 0.130513 -0.007048  0.002676)
 48:    625.17   0.074081  374.37  0.036979  (-0.192178 -0.006600  0.001656)
 49:    658.73   0.039766  200.96  0.018839  ( 0.136619 -0.012928  0.002587)
 50:    669.33   0.012816   64.77  0.005975  ( 0.076954  0.001293 -0.007175)
 51:    705.90   0.006158   31.12  0.002722  (-0.052162 -0.001117  0.000155)
 52:    723.76   0.023883  120.69  0.010297  (-0.097823  0.026936  0.001585)
 53:    782.18   0.032626  164.88  0.013017  (-0.097640 -0.046316  0.036577)
 54:    810.42   0.055568  280.82  0.021397  (-0.145281  0.017049  0.000165)
 55:    845.74   0.025452  128.62  0.009391  ( 0.095917 -0.013819  0.000530)
 56:    864.78   0.001699    8.59  0.000613  ( 0.019415 -0.002517  0.015162)
 57:    943.29   0.079366  401.08  0.026256  (-0.143376 -0.041685  0.062943)
 58:    959.03   0.014588   73.72  0.004747  (-0.062611 -0.023892  0.016000)
 59:    969.97   0.138029  697.54  0.044407  ( 0.208689  0.027985  0.008552)
 60:    976.30   0.172866  873.59  0.055255  (-0.183457  0.146234 -0.014623)
 61:    995.68   0.049260  248.94  0.015439  ( 0.067879 -0.006641  0.103862)
 62:    998.14   0.039093  197.56  0.012222  ( 0.054759 -0.019330 -0.094074)
 63:   1025.53   0.088101  445.22  0.026809  (-0.098735  0.079659  0.103511)
 64:   1030.17   0.173432  876.46  0.052537  ( 0.163111 -0.134683  0.088273)
 65:   1059.94   0.052517  265.40  0.015462  ( 0.063025 -0.074038 -0.077512)
 66:   1063.33   0.109394  552.83  0.032105  (-0.072101 -0.093021 -0.135104)
 67:   1078.33   0.095529  482.76  0.027646  ( 0.008166  0.059264 -0.155135)
 68:   1094.32   0.038288  193.49  0.010919  (-0.013494  0.102640  0.014194)
 69:   1123.44   0.118792  600.33  0.032998  (-0.096828 -0.010427 -0.153340)
 70:   1124.48   0.199857  1009.99  0.055464  ( 0.217257  0.030524 -0.085623)
 71:   1142.80   0.125925  636.37  0.034386  (-0.178309 -0.045046 -0.023725)
 72:   1250.78   0.112411  568.08  0.028046  ( 0.160812  0.043722 -0.016546)
 73:   1345.85   0.113691  574.55  0.026362  (-0.159173 -0.023332  0.021935)
 74:   1701.26   0.157469  795.78  0.028885  ( 0.007766 -0.108016 -0.130984)

* The epsilon (eps) is given for a Dirac delta lineshape.
** The dipole moment derivative (T) already includes vibrational overlap.

The first frequency considered to be a vibration is 6
The total number of vibrations considered is 69


--------------------------
THERMOCHEMISTRY AT 298.15K
--------------------------

Temperature         ...   298.15 K
Pressure            ...     1.00 atm
Total Mass          ...   413.06 AMU
Quasi RRHO          ...     True
Cut-Off Frequency   ...     1.00 cm^-1

Throughout the following assumptions are being made:
  (1) The electronic state is orbitally nondegenerate
      but the spin degeneracy is treated
  (2) There are no thermally accessible electronically excited states
  (3) Hindered rotations indicated by low frequency modes are not
      treated as such but are treated as vibrations and this may
      cause some error
  (4) All equations used are the standard statistical mechanics
      equations for an ideal gas
  (5) All vibrations are strictly harmonic

freq.      23.44  E(vib)   ...       0.56 
freq.      33.91  E(vib)   ...       0.55 
freq.      35.06  E(vib)   ...       0.54 
freq.      39.07  E(vib)   ...       0.54 
freq.      46.00  E(vib)   ...       0.53 
freq.      56.93  E(vib)   ...       0.51 
freq.      62.72  E(vib)   ...       0.51 
freq.      71.96  E(vib)   ...       0.50 
freq.      94.14  E(vib)   ...       0.47 
freq.      98.75  E(vib)   ...       0.46 
freq.     128.50  E(vib)   ...       0.43 
freq.     157.89  E(vib)   ...       0.40 
freq.     178.06  E(vib)   ...       0.37 
freq.     195.82  E(vib)   ...       0.36 
freq.     204.47  E(vib)   ...       0.35 
freq.     222.46  E(vib)   ...       0.33 
freq.     225.60  E(vib)   ...       0.33 
freq.     238.79  E(vib)   ...       0.32 
freq.     245.56  E(vib)   ...       0.31 
freq.     253.25  E(vib)   ...       0.30 
freq.     259.58  E(vib)   ...       0.30 
freq.     308.30  E(vib)   ...       0.26 
freq.     315.73  E(vib)   ...       0.25 
freq.     316.75  E(vib)   ...       0.25 
freq.     323.04  E(vib)   ...       0.25 
freq.     331.12  E(vib)   ...       0.24 
freq.     340.90  E(vib)   ...       0.23 
freq.     354.62  E(vib)   ...       0.22 
freq.     358.83  E(vib)   ...       0.22 
freq.     367.27  E(vib)   ...       0.21 
freq.     411.66  E(vib)   ...       0.19 
freq.     456.56  E(vib)   ...       0.16 
freq.     461.07  E(vib)   ...       0.16 
freq.     499.12  E(vib)   ...       0.14 
freq.     504.91  E(vib)   ...       0.14 
freq.     522.87  E(vib)   ...       0.13 
freq.     538.25  E(vib)   ...       0.12 
freq.     555.90  E(vib)   ...       0.12 
freq.     566.05  E(vib)   ...       0.11 
freq.     581.80  E(vib)   ...       0.11 
freq.     596.92  E(vib)   ...       0.10 
freq.     609.45  E(vib)   ...       0.10 
freq.     625.17  E(vib)   ...       0.09 
freq.     658.73  E(vib)   ...       0.08 
freq.     669.33  E(vib)   ...       0.08 
freq.     705.90  E(vib)   ...       0.07 
freq.     723.76  E(vib)   ...       0.06 
freq.     782.18  E(vib)   ...       0.05 
freq.     810.42  E(vib)   ...       0.05 
freq.     845.74  E(vib)   ...       0.04 
freq.     864.78  E(vib)   ...       0.04 
freq.     943.29  E(vib)   ...       0.03 
freq.     959.03  E(vib)   ...       0.03 
freq.     969.97  E(vib)   ...       0.03 
freq.     976.30  E(vib)   ...       0.03 
freq.     995.68  E(vib)   ...       0.02 
freq.     998.14  E(vib)   ...       0.02 
freq.    1025.53  E(vib)   ...       0.02 
freq.    1030.17  E(vib)   ...       0.02 
freq.    1059.94  E(vib)   ...       0.02 
freq.    1063.33  E(vib)   ...       0.02 
freq.    1078.33  E(vib)   ...       0.02 
freq.    1094.32  E(vib)   ...       0.02 
freq.    1123.44  E(vib)   ...       0.01 
freq.    1124.48  E(vib)   ...       0.01 
freq.    1142.80  E(vib)   ...       0.01 
freq.    1250.78  E(vib)   ...       0.01 
freq.    1345.85  E(vib)   ...       0.01 
freq.    1701.26  E(vib)   ...       0.00 

------------
INNER ENERGY
------------

The inner energy is: U= E(el) + E(ZPE) + E(vib) + E(rot) + E(trans)
    E(el)   - is the total energy from the electronic structure calculation
              = E(kin-el) + E(nuc-el) + E(el-el) + E(nuc-nuc)
    E(ZPE)  - the the zero temperature vibrational energy from the frequency calculation
    E(vib)  - the the finite temperature correction to E(ZPE) due to population
              of excited vibrational states
    E(rot)  - is the rotational thermal energy
    E(trans)- is the translational thermal energy

Summary of contributions to the inner energy U:
Electronic energy                ...  -1953.93590879 Eh
Zero point energy                ...      0.08830574 Eh      55.41 kcal/mol
Thermal vibrational correction   ...      0.02159526 Eh      13.55 kcal/mol
Thermal rotational correction    ...      0.00141627 Eh       0.89 kcal/mol
Thermal translational correction ...      0.00141627 Eh       0.89 kcal/mol
-----------------------------------------------------------------------
Total thermal energy                  -1953.82317524 Eh


Summary of corrections to the electronic energy:
(perhaps to be used in another calculation)
Total thermal correction                  0.02442781 Eh      15.33 kcal/mol
Non-thermal (ZPE) correction              0.08830574 Eh      55.41 kcal/mol
-----------------------------------------------------------------------
Total correction                          0.11273355 Eh      70.74 kcal/mol


--------
ENTHALPY
--------

The enthalpy is H = U + kB*T
                kB is Boltzmann's constant
Total thermal energy              ...  -1953.82317524 Eh 
Thermal Enthalpy correction       ...      0.00094421 Eh       0.59 kcal/mol
-----------------------------------------------------------------------
Total Enthalpy                    ...  -1953.82223103 Eh


Note: Only C1 symmetry has been detected, increase convergence thresholds 
      if your molecule has a higher symmetry. Symmetry factor of 1.0 is   
      used for the rotational entropy correction. 
 

Note: Rotational entropy computed according to Herzberg 
Infrared and Raman Spectra, Chapter V,1, Van Nostrand Reinhold, 1945 
Point Group:  C1, Symmetry Number:   1  
Rotational constants in cm-1:     0.021720     0.003356     0.003329 

Vibrational entropy computed according to the QRRHO of S. Grimme
Chem.Eur.J. 2012 18 9955 using a reference frequency of 100.0 cm-1


-------
ENTROPY
-------

The entropy contributions are T*S = T*(S(el)+S(vib)+S(rot)+S(trans))
     S(el)   - electronic entropy
     S(vib)  - vibrational entropy
     S(rot)  - rotational entropy
     S(trans)- translational entropy
The entropies will be listed as multiplied by the temperature to get
units of energy

Electronic entropy                ...      0.00065446 Eh      0.41 kcal/mol
Vibrational entropy               ...      0.03875468 Eh     24.32 kcal/mol
Rotational entropy                ...      0.01670159 Eh     10.48 kcal/mol
Translational entropy             ...      0.02088010 Eh     13.10 kcal/mol
-----------------------------------------------------------------------
Final entropy term                ...      0.07699083 Eh     48.31 kcal/mol

In case the symmetry of your molecule has not been determined correctly
or in case you have a reason to use a different symmetry number we print 
out the resulting rotational entropy values for sn=1,12:

 non-linear molecules -----------------------------------
|  sn= 1 | S(rot)=       0.01670159 Eh     10.48 kcal/mol|
|  sn= 2 | S(rot)=       0.01604714 Eh     10.07 kcal/mol|
|  sn= 3 | S(rot)=       0.01566430 Eh      9.83 kcal/mol|
|  sn= 4 | S(rot)=       0.01539268 Eh      9.66 kcal/mol|
|  sn= 5 | S(rot)=       0.01518199 Eh      9.53 kcal/mol|
|  sn= 6 | S(rot)=       0.01500985 Eh      9.42 kcal/mol|
|  sn= 7 | S(rot)=       0.01486430 Eh      9.33 kcal/mol|
|  sn= 8 | S(rot)=       0.01473822 Eh      9.25 kcal/mol|
|  sn= 9 | S(rot)=       0.01462701 Eh      9.18 kcal/mol|
|  sn=10 | S(rot)=       0.01452753 Eh      9.12 kcal/mol|
|  sn=11 | S(rot)=       0.01443754 Eh      9.06 kcal/mol|
|  sn=12 | S(rot)=       0.01435539 Eh      9.01 kcal/mol|
 linear molecules ---------------------------------------
|  Dinfh | S(rot)=       0.01071251 Eh      6.72 kcal/mol|
|  Cinfv | S(rot)=       0.01136696 Eh      7.13 kcal/mol|
 --------------------------------------------------------


-------------------
GIBBS FREE ENERGY
-------------------

The Gibbs free energy is G = H - T*S

Total enthalpy                    ...  -1953.82223103 Eh 
Total entropy correction          ...     -0.07699083 Eh    -48.31 kcal/mol
-----------------------------------------------------------------------
Final Gibbs free energy         ...  -1953.89922186 Eh

For completeness - the Gibbs free energy minus the electronic energy
G-E(el)                           ...      0.03668693 Eh     23.02 kcal/mol


Maximum memory used throughout the entire PROP-calculation: 563.8 MB

--------------------------------
SUGGESTED CITATIONS FOR THIS RUN
--------------------------------

Below you find a list of papers that are relevant to this ORCA run
We neither can nor want to force you to cite these papers, but we appreciate if you do
You receive ORCA, which is the product of decades of hard work by many enthusiastic individuals, for free
The only thing we kindly ask in return is that you cite our papers,
We deeply appreciate it, if you show your appreciation for ORCA by not just citing the generic ORCA reference.

Please note that relegating all ORCA citations to the supporting information does *not* help us.
SI sections are not indexed - citations you put there will not count into any citation statistics
But we need these citations in order to attract the funding resources that allow us to do what we are doing

Therefore, if you are a happy ORCA user, please consider citing a few of the papers listed below in the main body of your paper

In addition to the list printed below, the program has created the file rf_mecn_opt_TP_D_A.bibtex that contains the list in bibtex format
You can import this file easily into all common literature databanks and citation aid programs


List of essential papers. We consider these as the minimum necessary citations

  1. Neese,F.
     Software update: the ORCA program system, version 5.0
     WIRES Comput. Molec. Sci., 2022 12(1)e1606
     doi.org/10.1002/wcms.1606

List of papers to cite with high priority. The work reported in these papers was absolutely
necessary for this run to complete.
Our perspective: the developers of density functionals and basis sets usually get cited in chemistry papers
Good! But without the algorithms to do something with them, the functionals or basis sets would not do anything.
Hence, in our opinion, the algorithm design and method developments papers are equally worthy of getting cited

  1. Neese,F.
     An improvement of the resolution of the identity approximation for the formation of the Coulomb matrix
     J. Comp. Chem., 2003 24(14)1740-1747
     doi.org/10.1002/jcc.10318
  2. Neese,F.; Wennmohs,F.; Hansen,A.; Becker,U.
     Efficient, approximate and parallel Hartree-Fock and hybrid DFT calculations. A 'chain-of-spheres' algorithm for the Hartree-Fock exchange
     Chem. Phys., 2009 356(1-3)98-109
     doi.org/10.1016/j.chemphys.2008.10.036
  3. Bykov,D.; Petrenko,T.; Izsak,R.; Kossmann,S.; Becker,U.; Valeev,E.; Neese,F.
     Efficient implementation of the analytic second derivatives of Hartree-Fock and hybrid DFT energies: a detailed analysis of different approximations
     Molec. Phys., 2015 113 1961-1977
     doi.org/10.1080/00268976.2015.1025114
  4. Garcia-Rates,M.; Neese,F.
     Efficient implementation of the analytical second derivatives of hartree-fock and hybrid DFT energies within the framework of the conductor-like polarizable continuum model
     J. Comput. Chem., 2019 40 1816-1828
     doi.org/10.1002/jcc.25833
  5. Garcia-Rates,M.; Neese,F.
     Effect of the Solute Cavity on the Solvation Energy and its Derivatives within the Framework of the Gaussian Charge Scheme
     J. Comput. Chem., 2020 41 922-939
     doi.org/10.1002/jcc.26139
  6. Helmich-Paris,B.; de Souza,B.; Neese,F.; Izsák,R.
     An improved chain of spheres for exchange algorithm
     J. Chem. Phys., 2021 155 104109
     doi.org/doi: 10.1063/5.0058766.
  7. Neese,F.
     The SHARK Integral Generation and Digestion System
     J. Comp. Chem., 2022  1-16
     doi.org/10.1002/jcc.26942
  8. Grimme,S.; Antony,J.; Ehrlich,S.; Krieg,H.
     A consistent and accurate ab initio parametrization of density functional dispersion correction (DFT-D) for the 94 elements H-Pu
     J. Chem. Phys., 2010 132 154104
     doi.org/10.1063/1.3382344
  9. Grimme,S.; Ehrlich,S.; Goerigk,L.
     Effect of the damping function in dispersion corrected density functional theory
     J. Comput. Chem., 2011 32(7)1456-1465
     doi.org/10.1002/jcc.21759

List of suggested additional citations. These are papers that are important in the 'surrounding' of 
of this run, or papers that preceded the highly important papers. If you like your results we are grateful for a citation.

  1. Izsak,R.; Neese,F.
     An overlap fitted chain of spheres exchange method
     J. Chem. Phys., 2011 135 144105
     doi.org/10.1063/1.3646921
  2. Izsak,R.; Hansen,A.; Neese,F.
     The resolution of identity and chain of spheres approximations for the LPNO-CCSD singles Fock term
     Molec. Phys., 2012 110 2413-2417
     doi.org/10.1080/00268976.2012.687466
  3. Neese,F.
     The ORCA program system
     WIRES Comput. Molec. Sci., 2012 2(1)73-78
     doi.org/10.1002/wcms.81
  4. Izsak,R.; Neese,F.; Klopper,W.
     Robust fitting techniques in the chain of spheres approximation to the Fock exchange: The role of the complementary space
     J. Chem. Phys., 2013 139 
     doi.org/10.1063/1.4819264
  5. Neese,F.
     Software update: the ORCA program system, version 4.0
     WIRES Comput. Molec. Sci., 2018 8(1)1-6
     doi.org/10.1002/wcms.1327
  6. Neese,F.; Wennmohs,F.; Becker,U.; Riplinger,C.
     The ORCA quantum chemistry program package
     J. Chem. Phys., 2020 152 Art. No. L224108
     doi.org/10.1063/5.0004608

List of optional additional citations

  1. Neese,F.
     Approximate second-order SCF convergence for spin unrestricted wavefunctions
     Chem. Phys. Lett., 2000 325(1-3)93-98
     doi.org/10.1016/s0009-2614(00)00662-x

Timings for individual modules:

Sum of individual times          ...     1534.101 sec (=  25.568 min)
Startup calculation              ...        4.149 sec (=   0.069 min)   0.3 %
SCF iterations                   ...      130.476 sec (=   2.175 min)   8.5 %
Property integrals               ...      400.431 sec (=   6.674 min)  26.1 %
SCF Response                     ...      723.308 sec (=  12.055 min)  47.1 %
Property calculations            ...      275.737 sec (=   4.596 min)  18.0 %
                             ****ORCA TERMINATED NORMALLY****
TOTAL RUN TIME: 0 days 0 hours 25 minutes 34 seconds 833 msec
