
                                 *****************
                                 * O   R   C   A *
                                 *****************

                                            #,                                       
                                            ###                                      
                                            ####                                     
                                            #####                                    
                                            ######                                   
                                           ########,                                 
                                     ,,################,,,,,                         
                               ,,#################################,,                 
                          ,,##########################################,,             
                       ,#########################################, ''#####,          
                    ,#############################################,,   '####,        
                  ,##################################################,,,,####,       
                ,###########''''           ''''###############################       
              ,#####''   ,,,,##########,,,,          '''####'''          '####       
            ,##' ,,,,###########################,,,                        '##       
           ' ,,###''''                  '''############,,,                           
         ,,##''                                '''############,,,,        ,,,,,,###''
      ,#''                                            '''#######################'''  
     '                                                          ''''####''''         
             ,#######,   #######,   ,#######,      ##                                
            ,#'     '#,  ##    ##  ,#'     '#,    #''#        ######   ,####,        
            ##       ##  ##   ,#'  ##            #'  '#       #        #'  '#        
            ##       ##  #######   ##           ,######,      #####,   #    #        
            '#,     ,#'  ##    ##  '#,     ,#' ,#      #,         ##   #,  ,#        
             '#######'   ##     ##  '#######'  #'      '#     #####' # '####'        



                  #######################################################
                  #                        -***-                        #
                  #          Department of theory and spectroscopy      #
                  #    Directorship and core code : Frank Neese         #
                  #        Max Planck Institute fuer Kohlenforschung    #
                  #                Kaiser Wilhelm Platz 1               #
                  #                 D-45470 Muelheim/Ruhr               #
                  #                      Germany                        #
                  #                                                     #
                  #                  All rights reserved                #
                  #                        -***-                        #
                  #######################################################


                         Program Version 5.0.3 -  RELEASE  -


 With contributions from (in alphabetic order):
   Daniel Aravena         : Magnetic Suceptibility
   Michael Atanasov       : Ab Initio Ligand Field Theory (pilot matlab implementation)
   Alexander A. Auer      : GIAO ZORA, VPT2 properties, NMR spectrum
   Ute Becker             : Parallelization
   Giovanni Bistoni       : ED, misc. LED, open-shell LED, HFLD
   Martin Brehm           : Molecular dynamics
   Dmytro Bykov           : SCF Hessian
   Vijay G. Chilkuri      : MRCI spin determinant printing, contributions to CSF-ICE
   Dipayan Datta          : RHF DLPNO-CCSD density
   Achintya Kumar Dutta   : EOM-CC, STEOM-CC
   Dmitry Ganyushin       : Spin-Orbit,Spin-Spin,Magnetic field MRCI
   Miquel Garcia          : C-PCM and meta-GGA Hessian, CC/C-PCM, Gaussian charge scheme
   Yang Guo               : DLPNO-NEVPT2, F12-NEVPT2, CIM, IAO-localization
   Andreas Hansen         : Spin unrestricted coupled pair/coupled cluster methods
   Benjamin Helmich-Paris : MC-RPA, TRAH-SCF, COSX integrals
   Lee Huntington         : MR-EOM, pCC
   Robert Izsak           : Overlap fitted RIJCOSX, COSX-SCS-MP3, EOM
   Marcus Kettner         : VPT2
   Christian Kollmar      : KDIIS, OOCD, Brueckner-CCSD(T), CCSD density, CASPT2, CASPT2-K
   Simone Kossmann        : Meta GGA functionals, TD-DFT gradient, OOMP2, MP2 Hessian
   Martin Krupicka        : Initial AUTO-CI
   Lucas Lang             : DCDCAS
   Marvin Lechner         : AUTO-CI (C++ implementation), FIC-MRCC
   Dagmar Lenk            : GEPOL surface, SMD
   Dimitrios Liakos       : Extrapolation schemes; Compound Job, initial MDCI parallelization
   Dimitrios Manganas     : Further ROCIS development; embedding schemes
   Dimitrios Pantazis     : SARC Basis sets
   Anastasios Papadopoulos: AUTO-CI, single reference methods and gradients
   Taras Petrenko         : DFT Hessian,TD-DFT gradient, ASA, ECA, R-Raman, ABS, FL, XAS/XES, NRVS
   Peter Pinski           : DLPNO-MP2, DLPNO-MP2 Gradient
   Christoph Reimann      : Effective Core Potentials
   Marius Retegan         : Local ZFS, SOC
   Christoph Riplinger    : Optimizer, TS searches, QM/MM, DLPNO-CCSD(T), (RO)-DLPNO pert. Triples
   Tobias Risthaus        : Range-separated hybrids, TD-DFT gradient, RPA, STAB
   Michael Roemelt        : Original ROCIS implementation
   Masaaki Saitow         : Open-shell DLPNO-CCSD energy and density
   Barbara Sandhoefer     : DKH picture change effects
   Avijit Sen             : IP-ROCIS
   Kantharuban Sivalingam : CASSCF convergence, NEVPT2, FIC-MRCI
   Bernardo de Souza      : ESD, SOC TD-DFT
   Georgi Stoychev        : AutoAux, RI-MP2 NMR, DLPNO-MP2 response
   Willem Van den Heuvel  : Paramagnetic NMR
   Boris Wezisla          : Elementary symmetry handling
   Frank Wennmohs         : Technical directorship


 We gratefully acknowledge several colleagues who have allowed us to
 interface, adapt or use parts of their codes:
   Stefan Grimme, W. Hujo, H. Kruse, P. Pracht,  : VdW corrections, initial TS optimization,
                  C. Bannwarth, S. Ehlert          DFT functionals, gCP, sTDA/sTD-DF
   Ed Valeev, F. Pavosevic, A. Kumar             : LibInt (2-el integral package), F12 methods
   Garnet Chan, S. Sharma, J. Yang, R. Olivares  : DMRG
   Ulf Ekstrom                                   : XCFun DFT Library
   Mihaly Kallay                                 : mrcc  (arbitrary order and MRCC methods)
   Jiri Pittner, Ondrej Demel                    : Mk-CCSD
   Frank Weinhold                                : gennbo (NPA and NBO analysis)
   Christopher J. Cramer and Donald G. Truhlar   : smd solvation model
   Lars Goerigk                                  : TD-DFT with DH, B97 family of functionals
   V. Asgeirsson, H. Jonsson                     : NEB implementation
   FAccTs GmbH                                   : IRC, NEB, NEB-TS, DLPNO-Multilevel, CI-OPT
                                                   MM, QMMM, 2- and 3-layer-ONIOM, Crystal-QMMM,
                                                   LR-CPCM, SF, NACMEs, symmetry and pop. for TD-DFT,
                                                   nearIR, NL-DFT gradient (VV10), updates on ESD,
                                                   ML-optimized integration grids
   S Lehtola, MJT Oliveira, MAL Marques          : LibXC Library
   Liviu Ungur et al                             : ANISO software


 Your calculation uses the libint2 library for the computation of 2-el integrals
 For citations please refer to: http://libint.valeyev.net

 Your ORCA version has been built with support for libXC version: 5.1.0
 For citations please refer to: https://tddft.org/programs/libxc/

 This ORCA versions uses:
   CBLAS   interface :  Fast vector & matrix operations
   LAPACKE interface :  Fast linear algebra routines
   SCALAPACK package :  Parallel linear algebra routines
   Shared memory     :  Shared parallel matrices
   BLAS/LAPACK       :  OpenBLAS 0.3.15  USE64BITINT DYNAMIC_ARCH NO_AFFINITY SkylakeX SINGLE_THREADED
        Core in use  :  SkylakeX
   Copyright (c) 2011-2014, The OpenBLAS Project


Your calculation utilizes the atom-pairwise dispersion correction
with the Becke-Johnson damping scheme (D3BJ)
Cite in your paper:
S.Grimme, S.Ehrlich, L.Goerigk, J Comput Chem, (2011), 32, 1456–1465 
S.Grimme, J.Antony, S.Ehrlich and H.Krieg, J.Chem.Phys., 132, (2010), 154104 
   

Your calculation utilizes the SMD solvation module
Please cite in your paper:
A.V. Marenich, C.J. Cramer, D.G. Truhlar J. Phys. Chem. B, 113, (2009), 6378 

================================================================================

----- Orbital basis set information -----
Your calculation utilizes the basis: def2-TZVP
   F. Weigend and R. Ahlrichs, Phys. Chem. Chem. Phys. 7, 3297 (2005).

----- AuxJ basis set information -----
Your calculation utilizes the auxiliary basis: def2/J
   F. Weigend, Phys. Chem. Chem. Phys. 8, 1057 (2006).

================================================================================
                                        WARNINGS
                       Please study these warnings very carefully!
================================================================================


WARNING: your system is open-shell and RHF/RKS was chosen
  ===> : WILL SWITCH to UHF/UKS


WARNING: Geometry Optimization
  ===> : Switching off AutoStart
         For restart on a previous wavefunction, please use MOREAD

INFO   : the flag for use of the SHARK integral package has been found!

================================================================================
                                       INPUT FILE
================================================================================
NAME = rf_mecn_opt_TPS_C7_D_B.inp
|  1> !TPSSh def2-TZVP opt d3 TightSCF SlowConv defgrid2
|  2>  
|  3> %pal
|  4> nprocs 20
|  5> end
|  6>  
|  7> %scf
|  8> MaxIter 1500
|  9> end
| 10>  
| 11> %maxcore 8000
| 12>  
| 13> !CPCM
| 14> %cpcm smd true
| 15> SMDsolvent "ACETONITRILE"
| 16> end
| 17>  
| 18> * xyz -1 2
| 19> 6        4.790427000     -0.033865800     -0.529943200
| 20> 8        5.449345000     -1.206924000     -0.894594600
| 21> 8        4.978223000      1.323071000     -0.737377200
| 22> 6        3.506687600     -0.338741600      0.376153800
| 23> 6        2.222300000      0.400524800     -0.110681600
| 24> 6        0.900506800     -0.386389800      0.175703000
| 25> 6       -0.395261200      0.487294000      0.065549000
| 26> 6       -1.705693600     -0.364773800     -0.068373600
| 27> 6       -3.005136200      0.445344800      0.258164000
| 28> 6       -4.319880200     -0.214526000     -0.270540800
| 29> 9        3.211587400     -1.692050400      0.412735200
| 30> 9        3.741061800      0.055285800      1.689948800
| 31> 9        2.125696800      1.616867800      0.483236600
| 32> 9        2.314152400      0.589704000     -1.455769200
| 33> 9        0.794028800     -1.413561400     -0.700839000
| 34> 9        0.958350600     -0.884509000      1.435093400
| 35> 9       -0.498373400      1.260265600      1.173340200
| 36> 9       -0.299075000      1.289512600     -1.020910800
| 37> 9       -1.641790400     -1.418189000      0.779523800
| 38> 9       -1.792381400     -0.831391600     -1.336863600
| 39> 9       -3.119771000      0.573779800      1.598579800
| 40> 9       -4.383115600     -1.504377600      0.089127600
| 41> 9       -5.365669800      0.430528600      0.260394200
| 42> 9       -4.396020400     -0.128550600     -1.602941800
| 43> *
| 44> 
| 45>                          ****END OF INPUT****
================================================================================

                       *****************************
                       * Geometry Optimization Run *
                       *****************************

Geometry optimization settings:
Update method            Update   .... BFGS
Choice of coordinates    CoordSys .... Z-matrix Internals
Initial Hessian          InHess   .... Almoef's Model

Convergence Tolerances:
Energy Change            TolE     ....  5.0000e-06 Eh
Max. Gradient            TolMAXG  ....  3.0000e-04 Eh/bohr
RMS Gradient             TolRMSG  ....  1.0000e-04 Eh/bohr
Max. Displacement        TolMAXD  ....  4.0000e-03 bohr
RMS Displacement         TolRMSD  ....  2.0000e-03 bohr
Strict Convergence                ....  False
------------------------------------------------------------------------------
                        ORCA OPTIMIZATION COORDINATE SETUP
------------------------------------------------------------------------------

The optimization will be done in new redundant internal coordinates
Making redundant internal coordinates   ...  (new redundants) done
Evaluating the initial hessian          ...  (Almloef) done
Evaluating the coordinates              ...  done
Calculating the B-matrix                .... done
Calculating the G-matrix                .... done
Diagonalizing the G-matrix              .... done
Small eigenvalue found = 5.867e-03
Small eigenvalue found = 1.603e-02
The first mode is                       ....   53
The number of degrees of freedom        ....   66

    -----------------------------------------------------------------
                    Redundant Internal Coordinates


    -----------------------------------------------------------------
         Definition                    Initial Value    Approx d2E/dq
    -----------------------------------------------------------------
      1. B(O   1,C   0)                  1.3940         0.551454   
      2. B(O   2,C   0)                  1.3855         0.568952   
      3. B(C   3,C   0)                  1.6006         0.288221   
      4. B(C   4,C   3)                  1.5599         0.334759   
      5. B(C   5,C   4)                  1.5647         0.328824   
      6. B(C   6,C   5)                  1.5667         0.326486   
      7. B(C   7,C   6)                  1.5688         0.323927   
      8. B(C   8,C   7)                  1.5657         0.327637   
      9. B(C   9,C   8)                  1.5632         0.330714   
     10. B(F  10,C   3)                  1.3856         0.528443   
     11. B(F  11,C   3)                  1.3915         0.517117   
     12. B(F  12,C   4)                  1.3570         0.586881   
     13. B(F  13,C   4)                  1.3614         0.577499   
     14. B(F  14,C   5)                  1.3545         0.592326   
     15. B(F  15,C   5)                  1.3556         0.590092   
     16. B(F  16,C   6)                  1.3547         0.591865   
     17. B(F  17,C   6)                  1.3540         0.593567   
     18. B(F  18,C   7)                  1.3538         0.593973   
     19. B(F  19,C   7)                  1.3544         0.592672   
     20. B(F  20,C   8)                  1.3514         0.599114   
     21. B(F  21,C   9)                  1.3406         0.623533   
     22. B(F  22,C   9)                  1.3385         0.628179   
     23. B(F  23,C   9)                  1.3373         0.630929   
     24. A(O   1,C   0,C   3)          111.5249         0.369222   
     25. A(O   2,C   0,C   3)          112.3347         0.371210   
     26. A(O   1,C   0,O   2)          136.1318         0.413163   
     27. A(C   4,C   3,F  10)          107.2033         0.374492   
     28. A(C   4,C   3,F  11)          107.4072         0.373095   
     29. A(F  10,C   3,F  11)          106.7094         0.399684   
     30. A(C   0,C   3,C   4)          113.1687         0.341363   
     31. A(C   0,C   3,F  11)          110.2099         0.363632   
     32. A(C   0,C   3,F  10)          111.8265         0.364982   
     33. A(C   3,C   4,F  12)          110.2926         0.381351   
     34. A(F  12,C   4,F  13)          108.2194         0.415201   
     35. A(C   3,C   4,C   5)          113.5839         0.349005   
     36. A(C   5,C   4,F  13)          107.9208         0.379109   
     37. A(C   3,C   4,F  13)          108.5818         0.380286   
     38. A(C   5,C   4,F  12)          108.0911         0.380169   
     39. A(F  14,C   5,F  15)          109.0206         0.417483   
     40. A(C   4,C   5,C   6)          113.9128         0.347536   
     41. A(C   6,C   5,F  15)          107.7906         0.380059   
     42. A(C   4,C   5,F  15)          108.5900         0.380529   
     43. A(C   4,C   5,F  14)          109.2282         0.380779   
     44. A(C   6,C   5,F  14)          108.2026         0.380308   
     45. A(C   5,C   6,C   7)          113.2023         0.346660   
     46. A(F  16,C   6,F  17)          108.8752         0.417862   
     47. A(C   7,C   6,F  17)          108.2186         0.379927   
     48. A(C   5,C   6,F  17)          109.1523         0.380446   
     49. A(C   7,C   6,F  16)          108.4284         0.379738   
     50. A(C   5,C   6,F  16)          108.8835         0.380256   
     51. A(C   8,C   7,F  18)          108.1296         0.380723   
     52. A(C   6,C   7,F  18)          109.2524         0.379972   
     53. A(F  18,C   7,F  19)          108.7561         0.418014   
     54. A(C   6,C   7,C   8)          113.2298         0.346865   
     55. A(C   8,C   7,F  19)          108.6915         0.380579   
     56. A(C   6,C   7,F  19)          108.6955         0.379828   
     57. A(C   9,C   8,F  20)          107.7127         0.381912   
     58. A(C   7,C   8,C   9)          114.1471         0.348078   
     59. A(C   7,C   8,F  20)          109.0521         0.381293   
     60. A(F  22,C   9,F  23)          108.6464         0.426961   
     61. A(F  21,C   9,F  23)          109.0552         0.426394   
     62. A(C   8,C   9,F  23)          110.9604         0.385362   
     63. A(F  21,C   9,F  22)          108.6877         0.426061   
     64. A(C   8,C   9,F  22)          108.6349         0.385069   
     65. A(C   8,C   9,F  21)          110.7995         0.384572   
     66. D(F  10,C   3,C   0,O   1)     -9.8890         0.006601   
     67. D(F  11,C   3,C   0,O   2)    -70.4768         0.006601   
     68. D(C   4,C   3,C   0,O   1)   -131.0839         0.006601   
     69. D(F  10,C   3,C   0,O   2)    171.0025         0.006601   
     70. D(C   4,C   3,C   0,O   2)     49.8076         0.006601   
     71. D(F  11,C   3,C   0,O   1)    108.6317         0.006601   
     72. D(C   5,C   4,C   3,C   0)    148.6429         0.009100   
     73. D(F  12,C   4,C   3,F  11)     32.0233         0.009100   
     74. D(F  13,C   4,C   3,F  11)    150.4470         0.009100   
     75. D(C   5,C   4,C   3,F  11)    -89.4885         0.009100   
     76. D(F  12,C   4,C   3,F  10)    146.3851         0.009100   
     77. D(F  13,C   4,C   3,C   0)     28.5784         0.009100   
     78. D(F  12,C   4,C   3,C   0)    -89.8453         0.009100   
     79. D(F  13,C   4,C   3,F  10)    -95.1911         0.009100   
     80. D(C   5,C   4,C   3,F  10)     24.8733         0.009100   
     81. D(F  15,C   5,C   4,F  13)    164.2540         0.008811   
     82. D(F  15,C   5,C   4,C   3)     43.8158         0.008811   
     83. D(F  14,C   5,C   4,F  12)    162.3014         0.008811   
     84. D(F  14,C   5,C   4,C   3)    -74.9661         0.008811   
     85. D(C   6,C   5,C   4,F  13)    -75.6292         0.008811   
     86. D(F  14,C   5,C   4,F  13)     45.4721         0.008811   
     87. D(F  15,C   5,C   4,F  12)    -78.9166         0.008811   
     88. D(C   6,C   5,C   4,F  12)     41.2001         0.008811   
     89. D(C   6,C   5,C   4,C   3)    163.9326         0.008811   
     90. D(F  16,C   6,C   5,F  15)     44.2190         0.008700   
     91. D(F  16,C   6,C   5,F  14)    161.9826         0.008700   
     92. D(F  16,C   6,C   5,C   4)    -76.3465         0.008700   
     93. D(C   7,C   6,C   5,F  15)    -76.4529         0.008700   
     94. D(C   7,C   6,C   5,F  14)     41.3107         0.008700   
     95. D(F  17,C   6,C   5,C   4)     42.3872         0.008700   
     96. D(C   7,C   6,C   5,C   4)    162.9815         0.008700   
     97. D(F  17,C   6,C   5,F  15)    162.9527         0.008700   
     98. D(F  17,C   6,C   5,F  14)    -79.2837         0.008700   
     99. D(F  19,C   7,C   6,F  17)     44.3783         0.008578   
    100. D(F  19,C   7,C   6,F  16)    162.3257         0.008578   
    101. D(F  19,C   7,C   6,C   5)    -76.7446         0.008578   
    102. D(F  18,C   7,C   6,F  17)    162.9167         0.008578   
    103. D(F  18,C   7,C   6,F  16)    -79.1358         0.008578   
    104. D(F  18,C   7,C   6,C   5)     41.7939         0.008578   
    105. D(C   8,C   7,C   6,F  17)    -76.5134         0.008578   
    106. D(C   8,C   7,C   6,F  16)     41.4341         0.008578   
    107. D(C   8,C   7,C   6,C   5)    162.3638         0.008578   
    108. D(F  20,C   8,C   7,F  19)    162.0243         0.008223   
    109. D(F  20,C   8,C   7,F  18)     44.1231         0.008223   
    110. D(F  20,C   8,C   7,C   6)    -77.0818         0.008223   
    111. D(C   9,C   8,C   7,F  19)     41.5227         0.008223   
    112. D(C   9,C   8,C   7,F  18)    -76.3785         0.008223   
    113. D(C   9,C   8,C   7,C   6)    162.4166         0.008223   
    114. D(F  23,C   9,C   8,F  20)    167.4828         0.008360   
    115. D(F  23,C   9,C   8,C   7)    -71.2711         0.008360   
    116. D(F  22,C   9,C   8,F  20)     48.1091         0.008360   
    117. D(F  22,C   9,C   8,C   7)    169.3552         0.008360   
    118. D(F  21,C   9,C   8,F  20)    -71.2185         0.008360   
    119. D(F  21,C   9,C   8,C   7)     50.0276         0.008360   
    -----------------------------------------------------------------

Number of atoms                         .... 24
Number of degrees of freedom            .... 119

         *************************************************************
         *                GEOMETRY OPTIMIZATION CYCLE   1            *
         *************************************************************
---------------------------------
CARTESIAN COORDINATES (ANGSTROEM)
---------------------------------
  C      4.790427   -0.033866   -0.529943
  O      5.449345   -1.206924   -0.894595
  O      4.978223    1.323071   -0.737377
  C      3.506688   -0.338742    0.376154
  C      2.222300    0.400525   -0.110682
  C      0.900507   -0.386390    0.175703
  C     -0.395261    0.487294    0.065549
  C     -1.705694   -0.364774   -0.068374
  C     -3.005136    0.445345    0.258164
  C     -4.319880   -0.214526   -0.270541
  F      3.211587   -1.692050    0.412735
  F      3.741062    0.055286    1.689949
  F      2.125697    1.616868    0.483237
  F      2.314152    0.589704   -1.455769
  F      0.794029   -1.413561   -0.700839
  F      0.958351   -0.884509    1.435093
  F     -0.498373    1.260266    1.173340
  F     -0.299075    1.289513   -1.020911
  F     -1.641790   -1.418189    0.779524
  F     -1.792381   -0.831392   -1.336864
  F     -3.119771    0.573780    1.598580
  F     -4.383116   -1.504378    0.089128
  F     -5.365670    0.430529    0.260394
  F     -4.396020   -0.128551   -1.602942

----------------------------
CARTESIAN COORDINATES (A.U.)
----------------------------
  NO LB      ZA    FRAG     MASS         X           Y           Z
   0 C     6.0000    0    12.011    9.052595   -0.063997   -1.001448
   1 O     8.0000    0    15.999   10.297770   -2.280756   -1.690539
   2 O     8.0000    0    15.999    9.407478    2.500242   -1.393441
   3 C     6.0000    0    12.011    6.626679   -0.640129    0.710828
   4 C     6.0000    0    12.011    4.199538    0.756882   -0.209158
   5 C     6.0000    0    12.011    1.701711   -0.730171    0.332031
   6 C     6.0000    0    12.011   -0.746935    0.920852    0.123870
   7 C     6.0000    0    12.011   -3.223294   -0.689323   -0.129207
   8 C     6.0000    0    12.011   -5.678884    0.841580    0.487859
   9 C     6.0000    0    12.011   -8.163391   -0.405395   -0.511248
  10 F     9.0000    0    18.998    6.069021   -3.197512    0.779956
  11 F     9.0000    0    18.998    7.069582    0.104475    3.193540
  12 F     9.0000    0    18.998    4.016985    3.055437    0.913185
  13 F     9.0000    0    18.998    4.373114    1.114379   -2.751005
  14 F     9.0000    0    18.998    1.500497   -2.671244   -1.324394
  15 F     9.0000    0    18.998    1.811020   -1.671480    2.711934
  16 F     9.0000    0    18.998   -0.941789    2.381557    2.217292
  17 F     9.0000    0    18.998   -0.565170    2.436826   -1.929242
  18 F     9.0000    0    18.998   -3.102534   -2.679989    1.473086
  19 F     9.0000    0    18.998   -3.387110   -1.571102   -2.526306
  20 F     9.0000    0    18.998   -5.895513    1.084287    3.020878
  21 F     9.0000    0    18.998   -8.282888   -2.842862    0.168427
  22 F     9.0000    0    18.998  -10.139646    0.813581    0.492074
  23 F     9.0000    0    18.998   -8.307275   -0.242925   -3.029121

--------------------------------
INTERNAL COORDINATES (ANGSTROEM)
--------------------------------
 C      0   0   0     0.000000000000     0.00000000     0.00000000
 O      1   0   0     1.393990356793     0.00000000     0.00000000
 O      1   2   0     1.385486802956   136.13177198     0.00000000
 C      1   2   3     1.600608594862   111.52489317   181.18992567
 C      4   1   2     1.559863783763   113.16872737   228.91614990
 C      5   4   1     1.564732561934   113.58394786   148.64287440
 C      6   5   4     1.566675459667   113.91280616   163.93256239
 C      7   6   5     1.568817348692   113.20226571   162.98152714
 C      8   7   6     1.565717094808   113.22984595   162.36375422
 C      9   8   7     1.563173062643   114.14707705   162.41661495
 F      4   1   2     1.385592665621   111.82651119   350.11101305
 F      4   1   2     1.391490625050   110.20991618   108.63170802
 F      5   4   1     1.357041377479   110.29260564   270.15468021
 F      5   4   1     1.361428031433   108.58179722    28.57841973
 F      6   5   4     1.354527570075   109.22822656   285.03385927
 F      6   5   4     1.355556277776   108.59004089    43.81583148
 F      7   6   5     1.354739297058   108.88346185   283.65347401
 F      7   6   5     1.353957667090   109.15230848    42.38718856
 F      8   7   6     1.353771473879   109.25240264    41.79387651
 F      8   7   6     1.354368423305   108.69554158   283.25540020
 F      9   8   7     1.351425618925   109.05210362   282.91820052
 F     10   9   8     1.340551089588   110.79953142    50.02756898
 F     10   9   8     1.338530275591   108.63493714   169.35523750
 F     10   9   8     1.337341214598   110.96044107   288.72891896

---------------------------
INTERNAL COORDINATES (A.U.)
---------------------------
 C      0   0   0     0.000000000000     0.00000000     0.00000000
 O      1   0   0     2.634260007667     0.00000000     0.00000000
 O      1   2   0     2.618190619750   136.13177198     0.00000000
 C      1   2   3     3.024711891890   111.52489317   181.18992567
 C      4   1   2     2.947715357535   113.16872737   228.91614990
 C      5   4   1     2.956916014884   113.58394786   148.64287440
 C      6   5   4     2.960587559506   113.91280616   163.93256239
 C      7   6   5     2.964635143173   113.20226571   162.98152714
 C      8   7   6     2.958776512386   113.22984595   162.36375422
 C      9   8   7     2.953968988318   114.14707705   162.41661495
 F      4   1   2     2.618390671194   111.82651119   350.11101305
 F      4   1   2     2.629536199263   110.20991618   108.63170802
 F      5   4   1     2.564436555835   110.29260564   270.15468021
 F      5   4   1     2.572726130452   108.58179722    28.57841973
 F      6   5   4     2.559686148288   109.22822656   285.03385927
 F      6   5   4     2.561630124115   108.59004089    43.81583148
 F      7   6   5     2.560086254300   108.88346185   283.65347401
 F      7   6   5     2.558609187723   109.15230848    42.38718856
 F      8   7   6     2.558257333546   109.25240264    41.79387651
 F      8   7   6     2.559385404477   108.69554158   283.25540020
 F      9   8   7     2.553824310132   109.05210362   282.91820052
 F     10   9   8     2.533274427850   110.79953142    50.02756898
 F     10   9   8     2.529455642830   108.63493714   169.35523750
 F     10   9   8     2.527208643196   110.96044107   288.72891896

---------------------
BASIS SET INFORMATION
---------------------
There are 3 groups of distinct atoms

 Group   1 Type C   : 11s6p2d1f contracted to 5s3p2d1f pattern {62111/411/11/1}
 Group   2 Type O   : 11s6p2d1f contracted to 5s3p2d1f pattern {62111/411/11/1}
 Group   3 Type F   : 11s6p2d1f contracted to 5s3p2d1f pattern {62111/411/11/1}

Atom   0C    basis set group =>   1
Atom   1O    basis set group =>   2
Atom   2O    basis set group =>   2
Atom   3C    basis set group =>   1
Atom   4C    basis set group =>   1
Atom   5C    basis set group =>   1
Atom   6C    basis set group =>   1
Atom   7C    basis set group =>   1
Atom   8C    basis set group =>   1
Atom   9C    basis set group =>   1
Atom  10F    basis set group =>   3
Atom  11F    basis set group =>   3
Atom  12F    basis set group =>   3
Atom  13F    basis set group =>   3
Atom  14F    basis set group =>   3
Atom  15F    basis set group =>   3
Atom  16F    basis set group =>   3
Atom  17F    basis set group =>   3
Atom  18F    basis set group =>   3
Atom  19F    basis set group =>   3
Atom  20F    basis set group =>   3
Atom  21F    basis set group =>   3
Atom  22F    basis set group =>   3
Atom  23F    basis set group =>   3
---------------------------------
AUXILIARY/J BASIS SET INFORMATION
---------------------------------
There are 3 groups of distinct atoms

 Group   1 Type C   : 12s5p4d2f1g contracted to 6s4p3d1f1g pattern {711111/2111/211/2/1}
 Group   2 Type O   : 12s5p4d2f1g contracted to 6s4p3d1f1g pattern {711111/2111/211/2/1}
 Group   3 Type F   : 12s5p4d2f1g contracted to 6s4p3d1f1g pattern {711111/2111/211/2/1}

Atom   0C    basis set group =>   1
Atom   1O    basis set group =>   2
Atom   2O    basis set group =>   2
Atom   3C    basis set group =>   1
Atom   4C    basis set group =>   1
Atom   5C    basis set group =>   1
Atom   6C    basis set group =>   1
Atom   7C    basis set group =>   1
Atom   8C    basis set group =>   1
Atom   9C    basis set group =>   1
Atom  10F    basis set group =>   3
Atom  11F    basis set group =>   3
Atom  12F    basis set group =>   3
Atom  13F    basis set group =>   3
Atom  14F    basis set group =>   3
Atom  15F    basis set group =>   3
Atom  16F    basis set group =>   3
Atom  17F    basis set group =>   3
Atom  18F    basis set group =>   3
Atom  19F    basis set group =>   3
Atom  20F    basis set group =>   3
Atom  21F    basis set group =>   3
Atom  22F    basis set group =>   3
Atom  23F    basis set group =>   3


           ************************************************************
           *        Program running with 20 parallel MPI-processes    *
           *              working on a common directory               *
           ************************************************************
------------------------------------------------------------------------------
                           ORCA GTO INTEGRAL CALCULATION
                           -- RI-GTO INTEGRALS CHOSEN --
------------------------------------------------------------------------------
------------------------------------------------------------------------------
                   ___                                                        
                  /   \      - P O W E R E D   B Y -                         
                 /     \                                                     
                 |  |  |   _    _      __       _____    __    __             
                 |  |  |  | |  | |    /  \     |  _  \  |  |  /  |          
                  \  \/   | |  | |   /    \    | | | |  |  | /  /          
                 / \  \   | |__| |  /  /\  \   | |_| |  |  |/  /          
                |  |  |   |  __  | /  /__\  \  |    /   |      \           
                |  |  |   | |  | | |   __   |  |    \   |  |\   \          
                \     /   | |  | | |  |  |  |  | |\  \  |  | \   \       
                 \___/    |_|  |_| |__|  |__|  |_| \__\ |__|  \__/        
                                                                              
                      - O R C A' S   B I G   F R I E N D -                    
                                      &                                       
                       - I N T E G R A L  F E E D E R -                       
                                                                              
 v1 FN, 2020, v2 2021                                                         
------------------------------------------------------------------------------


Reading SHARK input file rf_mecn_opt_TPS_C7_D_B.SHARKINP.tmp ... ok
----------------------
SHARK INTEGRAL PACKAGE
----------------------

Number of atoms                             ...     24
Number of basis functions                   ...    744
Number of shells                            ...    264
Maximum angular momentum                    ...      3
Integral batch strategy                     ... SHARK/LIBINT Hybrid
RI-J (if used) integral strategy            ... SPLIT-RIJ (Revised 2003 algorithm where possible)
Printlevel                                  ...      1
Contraction scheme used                     ... SEGMENTED contraction
Coulomb Range Separation                    ... NOT USED
Exchange Range Separation                   ... NOT USED
Finite Nucleus Model                        ... NOT USED
Auxiliary Coulomb fitting basis             ... AVAILABLE
   # of basis functions in Aux-J            ...   1176
   # of shells in Aux-J                     ...    360
   Maximum angular momentum in Aux-J        ...      4
Auxiliary J/K fitting basis                 ... NOT available
Auxiliary Correlation fitting basis         ... NOT available
Auxiliary 'external' fitting basis          ... NOT available
Integral threshold                          ...     2.500000e-11
Primitive cut-off                           ...     2.500000e-12
Primitive pair pre-selection threshold      ...     2.500000e-12

Calculating pre-screening integrals         ... done (  0.1 sec) Dimension = 264
Organizing shell pair data                  ... done (  0.3 sec)
Shell pair information
Total number of shell pairs                 ...     34980
Shell pairs after pre-screening             ...     21668
Total number of primitive shell pairs       ...    115968
Primitive shell pairs kept                  ...     46075
          la=0 lb=0:   4043 shell pairs
          la=1 lb=0:   5886 shell pairs
          la=1 lb=1:   2062 shell pairs
          la=2 lb=0:   3223 shell pairs
          la=2 lb=1:   2393 shell pairs
          la=2 lb=2:    678 shell pairs
          la=3 lb=0:   1464 shell pairs
          la=3 lb=1:   1151 shell pairs
          la=3 lb=2:    619 shell pairs
          la=3 lb=3:    149 shell pairs

Calculating one electron integrals          ... done (  0.0 sec)
Calculating RI/J V-Matrix + Cholesky decomp.... done (  0.1 sec)
Calculating Nuclear repulsion               ... done (  0.0 sec) ENN=   2610.666930956155 Eh

SHARK setup successfully completed in   0.9 seconds

Maximum memory used throughout the entire GTOINT-calculation: 38.5 MB


           ************************************************************
           *        Program running with 20 parallel MPI-processes    *
           *              working on a common directory               *
           ************************************************************
-------------------------------------------------------------------------------
                                 ORCA SCF
-------------------------------------------------------------------------------

------------
SCF SETTINGS
------------
Hamiltonian:
 Density Functional     Method          .... DFT(GTOs)
 Exchange Functional    Exchange        .... TPSS
 Correlation Functional Correlation     .... TPSS
 LDA part of GGA corr.  LDAOpt          .... PW91-LDA
 Gradients option       PostSCFGGA      .... off
 Hybrid DFT is turned on
   Fraction HF Exchange ScalHFX         ....  0.100000
   Scaling of DF-GGA-X  ScalDFX         ....  0.900000
   Scaling of DF-GGA-C  ScalDFC         ....  1.000000
   Scaling of DF-LDA-C  ScalLDAC        ....  1.000000
   Perturbative correction              ....  0.000000
   Density functional embedding theory  .... OFF
   NL short-range parameter             ....  5.200000
 RI-approximation to the Coulomb term is turned on
   Number of AuxJ basis functions       .... 1176
   RIJ-COSX (HFX calculated with COS-X)).... on


General Settings:
 Integral files         IntName         .... rf_mecn_opt_TPS_C7_D_B
 Hartree-Fock type      HFTyp           .... UHF
 Total Charge           Charge          ....   -1
 Multiplicity           Mult            ....    2
 Number of Electrons    NEL             ....  191
 Basis Dimension        Dim             ....  744
 Nuclear Repulsion      ENuc            ....   2610.6669309562 Eh

Convergence Acceleration:
 DIIS                   CNVDIIS         .... on
   Start iteration      DIISMaxIt       ....     0
   Startup error        DIISStart       ....  0.200000
   # of expansion vecs  DIISMaxEq       ....     5
   Bias factor          DIISBfac        ....   1.050
   Max. coefficient     DIISMaxC        ....  10.000
 Trust-Rad. Augm. Hess. CNVTRAH         .... auto
   Auto Start mean grad. ratio tolernc. ....  1.125000
   Auto Start start iteration           ....    20
   Auto Start num. interpolation iter.  ....    10
   Max. Number of Micro iterations      ....    16
   Max. Number of Macro iterations      .... Maxiter - #DIIS iter
   Number of Davidson start vectors     ....     2
   Converg. threshold I  (grad. norm)   ....   1.000e-05
   Converg. threshold II (energy diff.) ....   1.000e-08
   Grad. Scal. Fac. for Micro threshold ....   0.100
   Minimum threshold for Micro iter.    ....   0.010
   NR start threshold (gradient norm)   ....   0.001
   Initial trust radius                 ....   0.400
   Minimum AH scaling param. (alpha)    ....   1.000
   Maximum AH scaling param. (alpha)    .... 1000.000
   Orbital update algorithm             .... Taylor
   White noise on init. David. guess    .... on
   Maximum white noise                  ....   0.010
   Quad. conv. algorithm                .... NR
 SOSCF                  CNVSOSCF        .... off
 Level Shifting         CNVShift        .... on
   Level shift para.    LevelShift      ....    0.2500
   Turn off err/grad.   ShiftErr        ....    0.0000
 Zerner damping         CNVZerner       .... off
 Static damping         CNVDamp         .... on
   Fraction old density DampFac         ....    0.8500
   Max. Damping (<1)    DampMax         ....    0.9800
   Min. Damping (>=0)   DampMin         ....    0.0000
   Turn off err/grad.   DampErr         ....    0.0300
 Fernandez-Rico         CNVRico         .... off

SCF Procedure:
 Maximum # iterations   MaxIter         ....  1500
 SCF integral mode      SCFMode         .... Direct
   Integral package                     .... SHARK and LIBINT hybrid scheme
 Reset frequency        DirectResetFreq ....    20
 Integral Threshold     Thresh          ....  2.500e-11 Eh
 Primitive CutOff       TCut            ....  2.500e-12 Eh

Convergence Tolerance:
 Convergence Check Mode ConvCheckMode   .... Total+1el-Energy
 Convergence forced     ConvForced      .... 0
 Energy Change          TolE            ....  1.000e-08 Eh
 1-El. energy change                    ....  1.000e-05 Eh
 DIIS Error             TolErr          ....  5.000e-07


Diagonalization of the overlap matrix:
Smallest eigenvalue                        ... 6.480e-05
Time for diagonalization                   ...    0.142 sec
Threshold for overlap eigenvalues          ... 1.000e-08
Number of eigenvalues below threshold      ... 0
Time for construction of square roots      ...    0.065 sec
Total time needed                          ...    0.213 sec

Time for model grid setup =    0.199 sec

------------------------------
INITIAL GUESS: MODEL POTENTIAL
------------------------------
Loading Hartree-Fock densities                     ... done
Calculating cut-offs                               ... done
Initializing the effective Hamiltonian             ... done
Setting up the integral package (SHARK)            ... done
Starting the Coulomb interaction                   ... done (   0.3 sec)
Reading the grid                                   ... done
Mapping shells                                     ... done
Starting the XC term evaluation                    ... done (   0.1 sec)
  promolecular density results
     # of electrons  =    190.000661905
     EX              =   -197.018600771
     EC              =     -6.648268381
     EX+EC           =   -203.666869152
Transforming the Hamiltonian                       ... done (   0.1 sec)
Diagonalizing the Hamiltonian                      ... done (   0.1 sec)
Back transforming the eigenvectors                 ... done (   0.0 sec)
Now organizing SCF variables                       ... done
                      ------------------
                      INITIAL GUESS DONE (   1.0 sec)
                      ------------------
-------------------
DFT GRID GENERATION
-------------------

General Integration Accuracy     IntAcc      ... 4.388
Radial Grid Type                 RadialGrid  ... OptM3 with GC (2021)
Angular Grid (max. ang.)         AngularGrid ... 4 (Lebedev-302)
Angular grid pruning method      GridPruning ... 4 (adaptive)
Weight generation scheme         WeightScheme... Becke
Basis function cutoff            BFCut       ... 1.0000e-11
Integration weight cutoff        WCut        ... 1.0000e-14
Angular grids for H and He will be reduced by one unit
Partially contracted basis set               ... off
Rotationally invariant grid construction     ... off

Total number of grid points                  ...   145480
Total number of batches                      ...     2286
Average number of points per batch           ...       63
Average number of grid points per atom       ...     6062
Time for grid setup =    0.924 sec

--------------------
COSX GRID GENERATION
--------------------

GRIDX 1
-------
General Integration Accuracy     IntAcc      ... 3.816
Radial Grid Type                 RadialGrid  ... OptM3 with GC (2021)
Angular Grid (max. ang.)         AngularGrid ... 1 (Lebedev-50)
Angular grid pruning method      GridPruning ... 4 (adaptive)
Weight generation scheme         WeightScheme... Becke
Basis function cutoff            BFCut       ... 1.0000e-11
Integration weight cutoff        WCut        ... 1.0000e-14
Angular grids for H and He will be reduced by one unit
Partially contracted basis set               ... on
Rotationally invariant grid construction     ... off

Total number of grid points                  ...    18277
Total number of batches                      ...      297
Average number of points per batch           ...       61
Average number of grid points per atom       ...      762
UseSFitting                                  ... on

GRIDX 2
-------
General Integration Accuracy     IntAcc      ... 4.020
Radial Grid Type                 RadialGrid  ... OptM3 with GC (2021)
Angular Grid (max. ang.)         AngularGrid ... 2 (Lebedev-110)
Angular grid pruning method      GridPruning ... 4 (adaptive)
Weight generation scheme         WeightScheme... Becke
Basis function cutoff            BFCut       ... 1.0000e-11
Integration weight cutoff        WCut        ... 1.0000e-14
Angular grids for H and He will be reduced by one unit
Partially contracted basis set               ... on
Rotationally invariant grid construction     ... off

Total number of grid points                  ...    43354
Total number of batches                      ...      692
Average number of points per batch           ...       62
Average number of grid points per atom       ...     1806
UseSFitting                                  ... on

GRIDX 3
-------
General Integration Accuracy     IntAcc      ... 4.338
Radial Grid Type                 RadialGrid  ... OptM3 with GC (2021)
Angular Grid (max. ang.)         AngularGrid ... 3 (Lebedev-194)
Angular grid pruning method      GridPruning ... 4 (adaptive)
Weight generation scheme         WeightScheme... Becke
Basis function cutoff            BFCut       ... 1.0000e-11
Integration weight cutoff        WCut        ... 1.0000e-14
Angular grids for H and He will be reduced by one unit
Partially contracted basis set               ... on
Rotationally invariant grid construction     ... off

Total number of grid points                  ...    96058
Total number of batches                      ...     1512
Average number of points per batch           ...       63
Average number of grid points per atom       ...     4002
UseSFitting                                  ... on

Time for X-Grid setup             =    1.673 sec


--------------------
CPCM SOLVATION MODEL
--------------------
CPCM parameters:
  Epsilon                                         ...      35.6880
  Refrac                                          ...       1.3442
  Rsolv                                           ...       1.3000
  Surface type                                    ... GAUSSIAN VDW
  Epsilon function type                           ...         CPCM
Solvent:                                     ... ACETONITRILE
SMD-CDS solvent descriptors:
  Soln                                       ...    1.3442
  Soln25                                     ...    1.3416
  Sola                                       ...    0.0700
  Solb                                       ...    0.3200
  Solg                                       ...   41.2500
  Solc                                       ...    0.0000
  Solh                                       ...    0.0000
Radii:
 Radius for C  used is    3.4960 Bohr (=   1.8500 Ang.)
 Radius for O  used is    4.0969 Bohr (=   2.1680 Ang.)
 Radius for F  used is    3.2692 Bohr (=   1.7300 Ang.)
Calculating surface                               ...        done! (  0.0s)
GEPOL surface points                              ...         1269
GEPOL Volume                                      ...    2142.9701
GEPOL Surface-area                                ...    1112.7342
Calculating surface distance matrix               ...        done! (  0.0s)
Performing Cholesky decomposition & store         ...        done! (  0.1s)
Overall time for CPCM initialization              ...                 0.1s
--------------
SCF ITERATIONS
--------------
ITER       Energy         Delta-E        Max-DP      RMS-DP      [F,P]     Damp
               ***  Starting incremental Fock matrix formation  ***
  0  -1853.4069232882   0.000000000000 0.03702517  0.00018877  0.1563508 0.8500
  1  -1853.5602415498  -0.153318261618 0.05777219  0.00021464  0.1023303 0.8500
                               ***Turning on DIIS***
  2  -1853.6369545039  -0.076712954121 0.04392686  0.00015614  0.0575771 0.8500
  3  -1853.6775743666  -0.040619862694 0.11322035  0.00048359  0.0292615 0.0000
  4  -1853.8469804056  -0.169406039000 0.01199675  0.00003845  0.0342666 0.8500
  5  -1853.8520563150  -0.005075909362 0.10083561  0.00032144  0.0292380 0.0000
  6  -1853.8696785970  -0.017622281984 0.01245235  0.00005225  0.0081068 0.0000
  7  -1853.8705869823  -0.000908385338 0.00161553  0.00001323  0.0023958 0.0000
  8  -1853.8706513464  -0.000064364151 0.00074280  0.00000624  0.0024739 0.0000
  9  -1853.8706948542  -0.000043507794 0.00034588  0.00000327  0.0004055 0.0000
               *** Restarting incremental Fock matrix formation ***
                                   *** Resetting DIIS ***
 10  -1853.8707080967  -0.000013242457 0.00034327  0.00000230  0.0002662 0.0000
 11  -1853.8707094025  -0.000001305833 0.00011088  0.00000100  0.0004155 0.0000
 12  -1853.8707111537  -0.000001751193 0.00009809  0.00000076  0.0000847 0.0000
 13  -1853.8707115861  -0.000000432362 0.00005360  0.00000050  0.0000669 0.0000
 14  -1853.8707117949  -0.000000208835 0.00004225  0.00000035  0.0000531 0.0000
 15  -1853.8707119350  -0.000000140113 0.00003406  0.00000027  0.0000417 0.0000
 16  -1853.8707119946  -0.000000059537 0.00002628  0.00000020  0.0000328 0.0000
 17  -1853.8707120202  -0.000000025662 0.00002115  0.00000017  0.0000259 0.0000
 18  -1853.8707120710  -0.000000050740 0.00001673  0.00000014  0.0000202 0.0000
 19  -1853.8707120706   0.000000000394 0.00001394  0.00000011  0.0000158 0.0000
 20  -1853.8707121094  -0.000000038777 0.00001038  0.00000009  0.0000123 0.0000
 21  -1853.8707120886   0.000000020787 0.00000803  0.00000008  0.0000095 0.0000
 22  -1853.8707120997  -0.000000011128 0.00000618  0.00000006  0.0000074 0.0000
 23  -1853.8707121116  -0.000000011917 0.00000567  0.00000006  0.0000057 0.0000
 24  -1853.8707120803   0.000000031289 0.00000720  0.00000004  0.0000045 0.0000
 25  -1853.8707121369  -0.000000056553 0.00000963  0.00000005  0.0000035 0.0000
 26  -1853.8707121281   0.000000008783 0.00000728  0.00000004  0.0000027 0.0000
 27  -1853.8707121318  -0.000000003749 0.00000839  0.00000005  0.0000021 0.0000
 28  -1853.8707121316   0.000000000247 0.00000575  0.00000003  0.0000016 0.0000
                 **** Energy Check signals convergence ****

               *****************************************************
               *                     SUCCESS                       *
               *           SCF CONVERGED AFTER  29 CYCLES          *
               *****************************************************

Old exchange energy                            =    -19.872127552 Eh
New exchange energy                            =    -19.872139771 Eh
Exchange energy change after final integration =     -0.000012219 Eh
Total energy after final integration           =  -1853.870724342 Eh
Final COS-X integration done in                =    10.876 sec

SMD CDS free energy correction energy :                 3.58525     Kcal/mol
Total Energy after SMD CDS correction =             -1853.865010891 Eh

----------------
TOTAL SCF ENERGY
----------------

Total Energy       :        -1853.86501089 Eh          -50446.23158 eV

Components:
Nuclear Repulsion  :         2610.66693096 Eh           71039.85879 eV
Electronic Energy  :        -4464.53194185 Eh         -121486.09037 eV
One Electron Energy:        -7796.29492838 Eh         -212147.97040 eV
Two Electron Energy:         3331.76298653 Eh           90661.88002 eV
Max COSX asymmetry :            0.00000031 Eh               0.00001 eV
CPCM Dielectric    :           -0.08383412 Eh              -2.28124 eV
SMD CDS (Gcds)     :            0.00571345 Eh               0.15547 eV

Virial components:
Potential Energy   :        -3700.48946293 Eh         -100695.43754 eV
Kinetic Energy     :         1846.62445204 Eh           50249.20596 eV
Virial Ratio       :            2.00392097


DFT components:
N(Alpha)           :       95.999987754533 electrons
N(Beta)            :       94.999976331987 electrons
N(Total)           :      190.999964086520 electrons
E(X)               :     -180.650071073822 Eh       
E(C)               :       -6.696800114646 Eh       
E(XC)              :     -187.346871188469 Eh       
DFET-embed. en.    :        0.000000000000 Eh       
CPCM Solvation Model Properties:
Surface-charge          :            0.98981333
Charge-correction       :           -0.00098592 Eh              -0.02683 eV
Free-energy (cav+disp)  :            0.00571345 Eh               0.15547 eV

---------------
SCF CONVERGENCE
---------------

  Last Energy change         ...    8.4106e-09  Tolerance :   1.0000e-08
  Last MAX-Density change    ...    0.0000e+00  Tolerance :   1.0000e-07
  Last RMS-Density change    ...    0.0000e+00  Tolerance :   5.0000e-09
  Last DIIS Error            ...    1.2675e-06  Tolerance :   5.0000e-07

             **** THE GBW FILE WAS UPDATED (rf_mecn_opt_TPS_C7_D_B.gbw) ****
             **** DENSITY rf_mecn_opt_TPS_C7_D_B.scfp WAS UPDATED ****
             **** ENERGY FILE WAS UPDATED (rf_mecn_opt_TPS_C7_D_B.en.tmp) ****
----------------------
UHF SPIN CONTAMINATION
----------------------

Warning: in a DFT calculation there is little theoretical justification to 
         calculate <S**2> as in Hartree-Fock theory. We will do it anyways
         but you should keep in mind that the values have only limited relevance

Expectation value of <S**2>     :     0.753807
Ideal value S*(S+1) for S=0.5   :     0.750000
Deviation                       :     0.003807

             **** THE GBW FILE WAS UPDATED (rf_mecn_opt_TPS_C7_D_B.gbw) ****
             **** DENSITY rf_mecn_opt_TPS_C7_D_B.scfp WAS UPDATED ****
----------------
ORBITAL ENERGIES
----------------
                 SPIN UP ORBITALS
  NO   OCC          E(Eh)            E(eV) 
   0   1.0000     -24.663208      -671.1200 
   1   1.0000     -24.657549      -670.9660 
   2   1.0000     -24.655374      -670.9068 
   3   1.0000     -24.654331      -670.8784 
   4   1.0000     -24.653618      -670.8590 
   5   1.0000     -24.653299      -670.8504 
   6   1.0000     -24.652758      -670.8357 
   7   1.0000     -24.652347      -670.8245 
   8   1.0000     -24.650609      -670.7772 
   9   1.0000     -24.648824      -670.7286 
  10   1.0000     -24.641152      -670.5198 
  11   1.0000     -24.637149      -670.4109 
  12   1.0000     -24.620028      -669.9450 
  13   1.0000     -24.617557      -669.8778 
  14   1.0000     -19.012834      -517.3655 
  15   1.0000     -19.010987      -517.3153 
  16   1.0000     -10.391709      -282.7728 
  17   1.0000     -10.340487      -281.3790 
  18   1.0000     -10.336285      -281.2646 
  19   1.0000     -10.332351      -281.1576 
  20   1.0000     -10.320974      -280.8480 
  21   1.0000     -10.297200      -280.2010 
  22   1.0000     -10.277736      -279.6714 
  23   1.0000     -10.228687      -278.3367 
  24   1.0000      -1.312410       -35.7125 
  25   1.0000      -1.292358       -35.1669 
  26   1.0000      -1.276430       -34.7334 
  27   1.0000      -1.268602       -34.5204 
  28   1.0000      -1.258834       -34.2546 
  29   1.0000      -1.251106       -34.0443 
  30   1.0000      -1.228518       -33.4297 
  31   1.0000      -1.227549       -33.4033 
  32   1.0000      -1.226295       -33.3692 
  33   1.0000      -1.223461       -33.2921 
  34   1.0000      -1.218273       -33.1509 
  35   1.0000      -1.213924       -33.0326 
  36   1.0000      -1.203576       -32.7510 
  37   1.0000      -1.176121       -32.0039 
  38   1.0000      -0.935542       -25.4574 
  39   1.0000      -0.877484       -23.8776 
  40   1.0000      -0.819234       -22.2925 
  41   1.0000      -0.799322       -21.7506 
  42   1.0000      -0.767816       -20.8933 
  43   1.0000      -0.726035       -19.7564 
  44   1.0000      -0.685263       -18.6470 
  45   1.0000      -0.652810       -17.7639 
  46   1.0000      -0.641789       -17.4640 
  47   1.0000      -0.608695       -16.5634 
  48   1.0000      -0.606165       -16.4946 
  49   1.0000      -0.599697       -16.3186 
  50   1.0000      -0.594863       -16.1870 
  51   1.0000      -0.592785       -16.1305 
  52   1.0000      -0.586738       -15.9660 
  53   1.0000      -0.576435       -15.6856 
  54   1.0000      -0.570483       -15.5236 
  55   1.0000      -0.563639       -15.3374 
  56   1.0000      -0.557750       -15.1771 
  57   1.0000      -0.550115       -14.9694 
  58   1.0000      -0.546951       -14.8833 
  59   1.0000      -0.538695       -14.6586 
  60   1.0000      -0.522984       -14.2311 
  61   1.0000      -0.497666       -13.5422 
  62   1.0000      -0.477252       -12.9867 
  63   1.0000      -0.472416       -12.8551 
  64   1.0000      -0.470269       -12.7967 
  65   1.0000      -0.465159       -12.6576 
  66   1.0000      -0.462347       -12.5811 
  67   1.0000      -0.457793       -12.4572 
  68   1.0000      -0.453474       -12.3397 
  69   1.0000      -0.448991       -12.2177 
  70   1.0000      -0.445189       -12.1142 
  71   1.0000      -0.440116       -11.9762 
  72   1.0000      -0.437431       -11.9031 
  73   1.0000      -0.433586       -11.7985 
  74   1.0000      -0.431747       -11.7484 
  75   1.0000      -0.429416       -11.6850 
  76   1.0000      -0.426308       -11.6004 
  77   1.0000      -0.421584       -11.4719 
  78   1.0000      -0.418558       -11.3895 
  79   1.0000      -0.413543       -11.2531 
  80   1.0000      -0.409911       -11.1542 
  81   1.0000      -0.408110       -11.1052 
  82   1.0000      -0.406318       -11.0565 
  83   1.0000      -0.402410       -10.9501 
  84   1.0000      -0.397917       -10.8279 
  85   1.0000      -0.387166       -10.5353 
  86   1.0000      -0.385847       -10.4994 
  87   1.0000      -0.372623       -10.1396 
  88   1.0000      -0.364284        -9.9127 
  89   1.0000      -0.348412        -9.4808 
  90   1.0000      -0.327658        -8.9160 
  91   1.0000      -0.316852        -8.6220 
  92   1.0000      -0.287395        -7.8204 
  93   1.0000      -0.231133        -6.2895 
  94   1.0000      -0.223715        -6.0876 
  95   1.0000      -0.221049        -6.0150 
  96   0.0000      -0.030957        -0.8424 
  97   0.0000      -0.009158        -0.2492 
  98   0.0000       0.001941         0.0528 
  99   0.0000       0.028430         0.7736 
 100   0.0000       0.063501         1.7279 
 101   0.0000       0.074007         2.0138 
 102   0.0000       0.096456         2.6247 
 103   0.0000       0.099719         2.7135 
 104   0.0000       0.102220         2.7816 
 105   0.0000       0.118008         3.2112 
 106   0.0000       0.119896         3.2625 
 107   0.0000       0.126994         3.4557 
 108   0.0000       0.139252         3.7892 
 109   0.0000       0.148535         4.0418 
 110   0.0000       0.164886         4.4868 
 111   0.0000       0.170734         4.6459 
 112   0.0000       0.179285         4.8786 
 113   0.0000       0.189791         5.1645 
 114   0.0000       0.197678         5.3791 
 115   0.0000       0.200492         5.4557 
 116   0.0000       0.207176         5.6375 
 117   0.0000       0.209870         5.7108 
 118   0.0000       0.213515         5.8100 
 119   0.0000       0.221267         6.0210 
 120   0.0000       0.224186         6.1004 
 121   0.0000       0.226174         6.1545 
 122   0.0000       0.233240         6.3468 
 123   0.0000       0.236017         6.4224 
 124   0.0000       0.242448         6.5973 
 125   0.0000       0.247354         6.7308 
 126   0.0000       0.251378         6.8403 
 127   0.0000       0.254612         6.9283 
 128   0.0000       0.268849         7.3157 
 129   0.0000       0.273531         7.4432 
 130   0.0000       0.279954         7.6179 
 131   0.0000       0.290522         7.9055 
 132   0.0000       0.293408         7.9840 
 133   0.0000       0.298129         8.1125 
 134   0.0000       0.306126         8.3301 
 135   0.0000       0.311093         8.4653 
 136   0.0000       0.318295         8.6612 
 137   0.0000       0.326422         8.8824 
 138   0.0000       0.330731         8.9996 
 139   0.0000       0.348561         9.4848 
 140   0.0000       0.351878         9.5751 
 141   0.0000       0.357782         9.7357 
 142   0.0000       0.377429        10.2704 
 143   0.0000       0.387118        10.5340 
 144   0.0000       0.397864        10.8264 
 145   0.0000       0.408205        11.1078 
 146   0.0000       0.420763        11.4495 
 147   0.0000       0.431572        11.7437 
 148   0.0000       0.437533        11.9059 
 149   0.0000       0.438465        11.9312 
 150   0.0000       0.442943        12.0531 
 151   0.0000       0.453341        12.3360 
 152   0.0000       0.459450        12.5023 
 153   0.0000       0.465764        12.6741 
 154   0.0000       0.480478        13.0745 
 155   0.0000       0.487278        13.2595 
 156   0.0000       0.493201        13.4207 
 157   0.0000       0.501082        13.6351 
 158   0.0000       0.511397        13.9158 
 159   0.0000       0.515105        14.0167 
 160   0.0000       0.522909        14.2291 
 161   0.0000       0.529357        14.4045 
 162   0.0000       0.532986        14.5033 
 163   0.0000       0.535446        14.5702 
 164   0.0000       0.540155        14.6984 
 165   0.0000       0.558245        15.1906 
 166   0.0000       0.575900        15.6710 
 167   0.0000       0.579485        15.7686 
 168   0.0000       0.588842        16.0232 
 169   0.0000       0.613992        16.7076 
 170   0.0000       0.621182        16.9032 
 171   0.0000       0.631183        17.1754 
 172   0.0000       0.640785        17.4367 
 173   0.0000       0.650374        17.6976 
 174   0.0000       0.657623        17.8948 
 175   0.0000       0.661397        17.9975 
 176   0.0000       0.674503        18.3542 
 177   0.0000       0.687424        18.7058 
 178   0.0000       0.693422        18.8690 
 179   0.0000       0.702844        19.1254 
 180   0.0000       0.706347        19.2207 
 181   0.0000       0.714200        19.4344 
 182   0.0000       0.723170        19.6785 
 183   0.0000       0.728516        19.8239 
 184   0.0000       0.730056        19.8658 
 185   0.0000       0.738460        20.0945 
 186   0.0000       0.743332        20.2271 
 187   0.0000       0.753271        20.4975 
 188   0.0000       0.757487        20.6123 
 189   0.0000       0.766555        20.8590 
 190   0.0000       0.777467        21.1559 
 191   0.0000       0.783675        21.3249 
 192   0.0000       0.788634        21.4598 
 193   0.0000       0.799394        21.7526 
 194   0.0000       0.808076        21.9889 
 195   0.0000       0.811841        22.0913 
 196   0.0000       0.823592        22.4111 
 197   0.0000       0.826870        22.5003 
 198   0.0000       0.842864        22.9355 
 199   0.0000       0.852062        23.1858 
 200   0.0000       0.855490        23.2791 
 201   0.0000       0.859306        23.3829 
 202   0.0000       0.873674        23.7739 
 203   0.0000       0.884125        24.0583 
 204   0.0000       0.887240        24.1430 
 205   0.0000       0.899731        24.4829 
 206   0.0000       0.905655        24.6441 
 207   0.0000       0.911288        24.7974 
 208   0.0000       0.920482        25.0476 
 209   0.0000       0.927120        25.2282 
 210   0.0000       0.934891        25.4397 
 211   0.0000       0.947169        25.7738 
 212   0.0000       0.960509        26.1368 
 213   0.0000       0.968201        26.3461 
 214   0.0000       0.977766        26.6064 
 215   0.0000       0.981761        26.7151 
 216   0.0000       0.984839        26.7988 
 217   0.0000       1.000819        27.2337 
 218   0.0000       1.002328        27.2747 
 219   0.0000       1.012011        27.5382 
 220   0.0000       1.028687        27.9920 
 221   0.0000       1.054275        28.6883 
 222   0.0000       1.069653        29.1067 
 223   0.0000       1.075174        29.2570 
 224   0.0000       1.085580        29.5401 
 225   0.0000       1.094034        29.7702 
 226   0.0000       1.103742        30.0343 
 227   0.0000       1.110130        30.2082 
 228   0.0000       1.115122        30.3440 
 229   0.0000       1.124954        30.6115 
 230   0.0000       1.138382        30.9769 
 231   0.0000       1.143046        31.1039 
 232   0.0000       1.147786        31.2329 
 233   0.0000       1.152945        31.3732 
 234   0.0000       1.163738        31.6669 
 235   0.0000       1.170461        31.8499 
 236   0.0000       1.173302        31.9272 
 237   0.0000       1.182665        32.1819 
 238   0.0000       1.203532        32.7498 
 239   0.0000       1.214942        33.0603 
 240   0.0000       1.227707        33.4076 
 241   0.0000       1.236667        33.6514 
 242   0.0000       1.239796        33.7366 
 243   0.0000       1.254576        34.1387 
 244   0.0000       1.269743        34.5515 
 245   0.0000       1.275671        34.7128 
 246   0.0000       1.289686        35.0941 
 247   0.0000       1.304229        35.4899 
 248   0.0000       1.305455        35.5232 
 249   0.0000       1.335720        36.3468 
 250   0.0000       1.352518        36.8039 
 251   0.0000       1.368363        37.2351 
 252   0.0000       1.368945        37.2509 
 253   0.0000       1.397320        38.0230 
 254   0.0000       1.423519        38.7359 
 255   0.0000       1.428024        38.8585 
 256   0.0000       1.438742        39.1502 
 257   0.0000       1.467365        39.9290 
 258   0.0000       1.484234        40.3880 
 259   0.0000       1.508429        41.0464 
 260   0.0000       1.540155        41.9098 
 261   0.0000       1.556746        42.3612 
 262   0.0000       1.560020        42.4503 
 263   0.0000       1.589540        43.2536 
 264   0.0000       1.605705        43.6935 
 265   0.0000       1.618406        44.0391 
 266   0.0000       1.628941        44.3257 
 267   0.0000       1.653929        45.0057 
 268   0.0000       1.667821        45.3837 
 269   0.0000       1.692004        46.0418 
 270   0.0000       1.710246        46.5382 
 271   0.0000       1.732171        47.1348 
 272   0.0000       1.752561        47.6896 
 273   0.0000       1.762570        47.9620 
 274   0.0000       1.772984        48.2453 
 275   0.0000       1.787434        48.6386 
 276   0.0000       1.800781        49.0017 
 277   0.0000       1.810660        49.2706 
 278   0.0000       1.825398        49.6716 
 279   0.0000       1.844524        50.1920 
 280   0.0000       1.844968        50.2041 
 281   0.0000       1.850027        50.3418 
 282   0.0000       1.863426        50.7064 
 283   0.0000       1.881750        51.2050 
 284   0.0000       1.888446        51.3872 
 285   0.0000       1.895678        51.5840 
 286   0.0000       1.897949        51.6458 
 287   0.0000       1.905315        51.8463 
 288   0.0000       1.912785        52.0495 
 289   0.0000       1.916979        52.1637 
 290   0.0000       1.934017        52.6273 
 291   0.0000       1.941436        52.8292 
 292   0.0000       1.943551        52.8867 
 293   0.0000       1.952931        53.1419 
 294   0.0000       1.959401        53.3180 
 295   0.0000       1.969871        53.6029 
 296   0.0000       1.993927        54.2575 
 297   0.0000       2.003850        54.5275 
 298   0.0000       2.011839        54.7449 
 299   0.0000       2.033144        55.3247 
 300   0.0000       2.040975        55.5377 
 301   0.0000       2.044019        55.6206 
 302   0.0000       2.058748        56.0214 
 303   0.0000       2.058947        56.0268 
 304   0.0000       2.062371        56.1200 
 305   0.0000       2.070262        56.3347 
 306   0.0000       2.074717        56.4559 
 307   0.0000       2.075745        56.4839 
 308   0.0000       2.084786        56.7299 
 309   0.0000       2.094541        56.9953 
 310   0.0000       2.096934        57.0605 
 311   0.0000       2.112855        57.4937 
 312   0.0000       2.122258        57.7496 
 313   0.0000       2.132099        58.0174 
 314   0.0000       2.139908        58.2299 
 315   0.0000       2.147462        58.4354 
 316   0.0000       2.155161        58.6449 
 317   0.0000       2.163251        58.8650 
 318   0.0000       2.168374        59.0045 
 319   0.0000       2.177305        59.2475 
 320   0.0000       2.198542        59.8254 
 321   0.0000       2.211145        60.1683 
 322   0.0000       2.236277        60.8522 
 323   0.0000       2.246415        61.1281 
 324   0.0000       2.256936        61.4144 
 325   0.0000       2.270975        61.7964 
 326   0.0000       2.277392        61.9710 
 327   0.0000       2.295526        62.4644 
 328   0.0000       2.297717        62.5240 
 329   0.0000       2.319089        63.1056 
 330   0.0000       2.326173        63.2984 
 331   0.0000       2.343076        63.7583 
 332   0.0000       2.355794        64.1044 
 333   0.0000       2.362425        64.2849 
 334   0.0000       2.378214        64.7145 
 335   0.0000       2.391975        65.0890 
 336   0.0000       2.400029        65.3081 
 337   0.0000       2.415159        65.7198 
 338   0.0000       2.426323        66.0236 
 339   0.0000       2.431125        66.1543 
 340   0.0000       2.446142        66.5629 
 341   0.0000       2.453456        66.7619 
 342   0.0000       2.459484        66.9260 
 343   0.0000       2.461939        66.9928 
 344   0.0000       2.469498        67.1985 
 345   0.0000       2.473445        67.3059 
 346   0.0000       2.474566        67.3364 
 347   0.0000       2.487239        67.6812 
 348   0.0000       2.498321        67.9828 
 349   0.0000       2.512970        68.3814 
 350   0.0000       2.529470        68.8304 
 351   0.0000       2.545813        69.2751 
 352   0.0000       2.570008        69.9335 
 353   0.0000       2.583827        70.3095 
 354   0.0000       2.591902        70.5292 
 355   0.0000       2.599688        70.7411 
 356   0.0000       2.611675        71.0673 
 357   0.0000       2.626340        71.4664 
 358   0.0000       2.632767        71.6412 
 359   0.0000       2.637299        71.7646 
 360   0.0000       2.666535        72.5601 
 361   0.0000       2.686192        73.0950 
 362   0.0000       2.707360        73.6710 
 363   0.0000       2.754136        74.9439 
 364   0.0000       2.763701        75.2041 
 365   0.0000       2.783755        75.7498 
 366   0.0000       2.806403        76.3661 
 367   0.0000       2.829233        76.9873 
 368   0.0000       2.847925        77.4960 
 369   0.0000       2.854142        77.6651 
 370   0.0000       2.861455        77.8641 
 371   0.0000       2.886969        78.5584 
 372   0.0000       2.901061        78.9419 
 373   0.0000       2.915230        79.3274 
 374   0.0000       2.919960        79.4561 
 375   0.0000       2.930329        79.7383 
 376   0.0000       2.938587        79.9630 
 377   0.0000       2.942330        80.0649 
 378   0.0000       2.956978        80.4635 
 379   0.0000       2.962895        80.6245 
 380   0.0000       2.971348        80.8545 
 381   0.0000       2.979913        81.0876 
 382   0.0000       2.985470        81.2388 
 383   0.0000       2.990665        81.3801 
 384   0.0000       3.005204        81.7758 
 385   0.0000       3.009452        81.8913 
 386   0.0000       3.019434        82.1630 
 387   0.0000       3.024186        82.2923 
 388   0.0000       3.033259        82.5392 
 389   0.0000       3.041843        82.7728 
 390   0.0000       3.056777        83.1791 
 391   0.0000       3.060222        83.2729 
 392   0.0000       3.069056        83.5132 
 393   0.0000       3.073635        83.6379 
 394   0.0000       3.088710        84.0481 
 395   0.0000       3.097863        84.2971 
 396   0.0000       3.107690        84.5645 
 397   0.0000       3.110459        84.6399 
 398   0.0000       3.121678        84.9452 
 399   0.0000       3.124899        85.0328 
 400   0.0000       3.127803        85.1118 
 401   0.0000       3.133254        85.2602 
 402   0.0000       3.147070        85.6361 
 403   0.0000       3.151178        85.7479 
 404   0.0000       3.154162        85.8291 
 405   0.0000       3.161486        86.0284 
 406   0.0000       3.163029        86.0704 
 407   0.0000       3.180866        86.5558 
 408   0.0000       3.187207        86.7283 
 409   0.0000       3.196365        86.9775 
 410   0.0000       3.200054        87.0779 
 411   0.0000       3.208011        87.2944 
 412   0.0000       3.215834        87.5073 
 413   0.0000       3.221902        87.6724 
 414   0.0000       3.230519        87.9069 
 415   0.0000       3.244212        88.2795 
 416   0.0000       3.249606        88.4263 
 417   0.0000       3.263550        88.8057 
 418   0.0000       3.270340        88.9905 
 419   0.0000       3.273547        89.0777 
 420   0.0000       3.277990        89.1986 
 421   0.0000       3.296515        89.7027 
 422   0.0000       3.302683        89.8706 
 423   0.0000       3.307205        89.9936 
 424   0.0000       3.316937        90.2584 
 425   0.0000       3.322745        90.4165 
 426   0.0000       3.329130        90.5902 
 427   0.0000       3.355232        91.3005 
 428   0.0000       3.364997        91.5662 
 429   0.0000       3.365668        91.5845 
 430   0.0000       3.394495        92.3689 
 431   0.0000       3.400499        92.5323 
 432   0.0000       3.410433        92.8026 
 433   0.0000       3.421511        93.1041 
 434   0.0000       3.445160        93.7476 
 435   0.0000       3.462246        94.2125 
 436   0.0000       3.473802        94.5270 
 437   0.0000       3.502606        95.3107 
 438   0.0000       3.508815        95.4797 
 439   0.0000       3.525105        95.9230 
 440   0.0000       3.539963        96.3273 
 441   0.0000       3.558533        96.8326 
 442   0.0000       3.573119        97.2295 
 443   0.0000       3.601320        97.9969 
 444   0.0000       3.611880        98.2843 
 445   0.0000       3.626292        98.6764 
 446   0.0000       3.643368        99.1411 
 447   0.0000       3.652683        99.3945 
 448   0.0000       3.669902        99.8631 
 449   0.0000       3.686481       100.3142 
 450   0.0000       3.719547       101.2140 
 451   0.0000       3.733703       101.5992 
 452   0.0000       3.739388       101.7539 
 453   0.0000       3.753447       102.1365 
 454   0.0000       3.765628       102.4679 
 455   0.0000       3.783566       102.9561 
 456   0.0000       3.797048       103.3229 
 457   0.0000       3.812919       103.7548 
 458   0.0000       3.815214       103.8172 
 459   0.0000       3.826876       104.1346 
 460   0.0000       3.848516       104.7234 
 461   0.0000       3.856583       104.9430 
 462   0.0000       3.864249       105.1516 
 463   0.0000       3.875667       105.4622 
 464   0.0000       3.882927       105.6598 
 465   0.0000       3.891756       105.9001 
 466   0.0000       3.907661       106.3329 
 467   0.0000       3.914851       106.5285 
 468   0.0000       3.922095       106.7256 
 469   0.0000       3.926921       106.8569 
 470   0.0000       3.942426       107.2789 
 471   0.0000       3.952610       107.5560 
 472   0.0000       3.958995       107.7297 
 473   0.0000       3.968530       107.9892 
 474   0.0000       3.985474       108.4503 
 475   0.0000       4.007798       109.0577 
 476   0.0000       4.013491       109.2126 
 477   0.0000       4.022277       109.4517 
 478   0.0000       4.034139       109.7745 
 479   0.0000       4.037068       109.8542 
 480   0.0000       4.057798       110.4183 
 481   0.0000       4.060710       110.4975 
 482   0.0000       4.070129       110.7538 
 483   0.0000       4.099177       111.5443 
 484   0.0000       4.100976       111.5932 
 485   0.0000       4.110297       111.8469 
 486   0.0000       4.114527       111.9620 
 487   0.0000       4.121643       112.1556 
 488   0.0000       4.123922       112.2176 
 489   0.0000       4.132775       112.4585 
 490   0.0000       4.140043       112.6563 
 491   0.0000       4.148319       112.8815 
 492   0.0000       4.152071       112.9836 
 493   0.0000       4.168488       113.4303 
 494   0.0000       4.191993       114.0699 
 495   0.0000       4.215971       114.7224 
 496   0.0000       4.223666       114.9318 
 497   0.0000       4.253221       115.7360 
 498   0.0000       4.264260       116.0364 
 499   0.0000       4.279614       116.4542 
 500   0.0000       4.302998       117.0905 
 501   0.0000       4.310116       117.2842 
 502   0.0000       4.331350       117.8620 
 503   0.0000       4.387168       119.3809 
 504   0.0000       4.421521       120.3157 
 505   0.0000       4.572929       124.4357 
 506   0.0000       4.606768       125.3565 
 507   0.0000       4.633140       126.0741 
 508   0.0000       4.684711       127.4775 
 509   0.0000       4.755685       129.4088 
 510   0.0000       4.778168       130.0206 
 511   0.0000       4.829204       131.4093 
 512   0.0000       4.935102       134.2910 
 513   0.0000       4.976511       135.4178 
 514   0.0000       5.015251       136.4719 
 515   0.0000       5.148000       140.0842 
 516   0.0000       5.154660       140.2654 
 517   0.0000       5.216429       141.9463 
 518   0.0000       5.234346       142.4338 
 519   0.0000       5.249083       142.8348 
 520   0.0000       5.250995       142.8868 
 521   0.0000       5.253837       142.9642 
 522   0.0000       5.264147       143.2447 
 523   0.0000       5.273357       143.4953 
 524   0.0000       5.310483       144.5056 
 525   0.0000       5.331328       145.0728 
 526   0.0000       5.339122       145.2849 
 527   0.0000       5.359868       145.8494 
 528   0.0000       5.371332       146.1614 
 529   0.0000       5.392032       146.7246 
 530   0.0000       5.452120       148.3597 
 531   0.0000       5.473513       148.9419 
 532   0.0000       5.484031       149.2281 
 533   0.0000       5.545635       150.9044 
 534   0.0000       5.581042       151.8679 
 535   0.0000       5.676889       154.4760 
 536   0.0000       5.743133       156.2786 
 537   0.0000       5.775524       157.1600 
 538   0.0000       5.878486       159.9617 
 539   0.0000       5.945507       161.7855 
 540   0.0000       6.193634       168.5373 
 541   0.0000       6.253164       170.1572 
 542   0.0000       6.354511       172.9150 
 543   0.0000       6.400027       174.1536 
 544   0.0000       6.431353       175.0060 
 545   0.0000       6.462190       175.8451 
 546   0.0000       6.755586       183.8288 
 547   0.0000       6.805321       185.1822 
 548   0.0000       6.813652       185.4089 
 549   0.0000       6.855650       186.5517 
 550   0.0000       6.857035       186.5894 
 551   0.0000       6.858580       186.6314 
 552   0.0000       6.860445       186.6822 
 553   0.0000       6.860776       186.6912 
 554   0.0000       6.862018       186.7250 
 555   0.0000       6.862326       186.7334 
 556   0.0000       6.863407       186.7628 
 557   0.0000       6.863786       186.7731 
 558   0.0000       6.866709       186.8526 
 559   0.0000       6.867755       186.8811 
 560   0.0000       6.868732       186.9077 
 561   0.0000       6.869087       186.9174 
 562   0.0000       6.869780       186.9362 
 563   0.0000       6.872053       186.9981 
 564   0.0000       6.872738       187.0167 
 565   0.0000       6.874669       187.0692 
 566   0.0000       6.877696       187.1516 
 567   0.0000       6.878023       187.1605 
 568   0.0000       6.878590       187.1760 
 569   0.0000       6.880617       187.2311 
 570   0.0000       6.882498       187.2823 
 571   0.0000       6.883471       187.3088 
 572   0.0000       6.885555       187.3655 
 573   0.0000       6.886521       187.3918 
 574   0.0000       6.888701       187.4511 
 575   0.0000       6.889465       187.4719 
 576   0.0000       6.891710       187.5330 
 577   0.0000       6.892946       187.5666 
 578   0.0000       6.895483       187.6356 
 579   0.0000       6.898502       187.7178 
 580   0.0000       6.904002       187.8675 
 581   0.0000       6.905589       187.9106 
 582   0.0000       6.906131       187.9254 
 583   0.0000       6.908012       187.9766 
 584   0.0000       6.912161       188.0895 
 585   0.0000       6.915310       188.1752 
 586   0.0000       6.916630       188.2111 
 587   0.0000       6.923723       188.4041 
 588   0.0000       6.926659       188.4840 
 589   0.0000       6.934481       188.6968 
 590   0.0000       6.942031       188.9023 
 591   0.0000       6.960429       189.4029 
 592   0.0000       6.961995       189.4455 
 593   0.0000       6.969935       189.6616 
 594   0.0000       6.989706       190.1996 
 595   0.0000       6.993468       190.3019 
[...]
      dxy     :     0.000000
      f0      :     0.000000  f :     0.000000
      f+1     :     0.000000
      f-1     :    -0.000000
      f+2     :     0.000000
      f-2     :    -0.000000
      f+3     :     0.000000
      f-3     :     0.000000
  2 O s       :     0.000003  s :     0.000003
      pz      :     0.000090  p :     0.000112
      px      :    -0.000044
      py      :     0.000067
      dz2     :    -0.000000  d :     0.000001
      dxz     :    -0.000000
      dyz     :     0.000001
      dx2y2   :    -0.000000
      dxy     :     0.000000
      f0      :     0.000000  f :     0.000000
      f+1     :     0.000000
      f-1     :    -0.000000
      f+2     :     0.000000
      f-2     :     0.000000
      f+3     :     0.000000
      f-3     :    -0.000000
  3 C s       :     0.000011  s :     0.000011
      pz      :    -0.000031  p :     0.000573
      px      :     0.000604
      py      :     0.000000
      dz2     :    -0.000002  d :     0.000091
      dxz     :     0.000025
      dyz     :     0.000002
      dx2y2   :     0.000033
      dxy     :     0.000033
      f0      :    -0.000000  f :     0.000010
      f+1     :    -0.000001
      f-1     :     0.000000
      f+2     :     0.000000
      f-2     :     0.000009
      f+3     :    -0.000000
      f-3     :     0.000002
  4 C s       :     0.000091  s :     0.000091
      pz      :     0.000073  p :     0.001081
      px      :     0.000725
      py      :     0.000282
      dz2     :     0.000017  d :     0.000338
      dxz     :     0.000004
      dyz     :     0.000015
      dx2y2   :     0.000270
      dxy     :     0.000032
      f0      :    -0.000001  f :     0.000033
      f+1     :    -0.000000
      f-1     :    -0.000000
      f+2     :     0.000009
      f-2     :     0.000007
      f+3     :     0.000018
      f-3     :    -0.000000
  5 C s       :     0.000222  s :     0.000222
      pz      :     0.000064  p :     0.002750
      px      :     0.001865
      py      :     0.000822
      dz2     :     0.000052  d :     0.001414
      dxz     :     0.000095
      dyz     :     0.000003
      dx2y2   :     0.000939
      dxy     :     0.000325
      f0      :    -0.000003  f :     0.000115
      f+1     :     0.000002
      f-1     :     0.000005
      f+2     :     0.000003
      f-2     :     0.000006
      f+3     :     0.000103
      f-3     :    -0.000002
  6 C s       :     0.002310  s :     0.002310
      pz      :     0.000633  p :     0.015956
      px      :     0.009282
      py      :     0.006041
      dz2     :     0.000149  d :     0.003289
      dxz     :     0.000069
      dyz     :    -0.000019
      dx2y2   :     0.002449
      dxy     :     0.000641
      f0      :    -0.000017  f :    -0.000129
      f+1     :    -0.000036
      f-1     :    -0.000016
      f+2     :    -0.000008
      f-2     :    -0.000010
      f+3     :     0.000017
      f-3     :    -0.000060
  7 C s       :    -0.001597  s :    -0.001597
      pz      :    -0.001043  p :    -0.007627
      px      :    -0.010828
      py      :     0.004244
      dz2     :     0.003492  d :     0.062388
      dxz     :     0.002981
      dyz     :     0.000530
      dx2y2   :     0.039348
      dxy     :     0.016036
      f0      :     0.000126  f :     0.008500
      f+1     :     0.000336
      f-1     :     0.001493
      f+2     :     0.000473
      f-2     :     0.000033
      f+3     :     0.005903
      f-3     :     0.000138
  8 C s       :     0.028784  s :     0.028784
      pz      :     0.028594  p :     0.634152
      px      :     0.106087
      py      :     0.499472
      dz2     :     0.000454  d :     0.005643
      dxz     :     0.000126
      dyz     :     0.007338
      dx2y2   :    -0.001365
      dxy     :    -0.000910
      f0      :    -0.000023  f :     0.000604
      f+1     :    -0.000235
      f-1     :     0.001484
      f+2     :     0.000335
      f-2     :    -0.000184
      f+3     :     0.000032
      f-3     :    -0.000806
  9 C s       :    -0.003565  s :    -0.003565
      pz      :    -0.004159  p :     0.005567
      px      :    -0.004419
      py      :     0.014145
      dz2     :     0.004481  d :     0.046883
      dxz     :     0.004238
      dyz     :     0.015360
      dx2y2   :     0.003442
      dxy     :     0.019362
      f0      :     0.000339  f :     0.010420
      f+1     :     0.000324
      f-1     :     0.001208
      f+2     :     0.001234
      f-2     :     0.004537
      f+3     :     0.001359
      f-3     :     0.001420
 10 F s       :     0.000000  s :     0.000000
      pz      :    -0.000004  p :    -0.000020
      px      :    -0.000009
      py      :    -0.000008
      dz2     :     0.000001  d :     0.000005
      dxz     :     0.000000
      dyz     :    -0.000000
      dx2y2   :     0.000001
      dxy     :     0.000004
      f0      :    -0.000000  f :     0.000000
      f+1     :     0.000000
      f-1     :     0.000000
      f+2     :    -0.000000
      f-2     :     0.000000
      f+3     :     0.000000
      f-3     :     0.000000
 11 F s       :     0.000002  s :     0.000002
      pz      :    -0.000010  p :     0.000082
      px      :     0.000087
      py      :     0.000005
      dz2     :     0.000000  d :     0.000008
      dxz     :     0.000007
      dyz     :     0.000000
      dx2y2   :    -0.000000
      dxy     :     0.000001
      f0      :     0.000000  f :     0.000000
      f+1     :     0.000000
      f-1     :     0.000000
      f+2     :     0.000000
      f-2     :     0.000000
      f+3     :     0.000000
      f-3     :     0.000000
 12 F s       :     0.000004  s :     0.000004
      pz      :    -0.000000  p :    -0.000070
      px      :    -0.000030
      py      :    -0.000040
      dz2     :     0.000000  d :     0.000008
      dxz     :     0.000002
      dyz     :     0.000001
      dx2y2   :     0.000004
      dxy     :     0.000001
      f0      :     0.000000  f :     0.000001
      f+1     :     0.000000
      f-1     :     0.000000
      f+2     :     0.000000
      f-2     :     0.000000
      f+3     :     0.000000
      f-3     :     0.000000
 13 F s       :     0.000001  s :     0.000001
      pz      :    -0.000033  p :     0.000066
      px      :     0.000028
      py      :     0.000072
      dz2     :     0.000003  d :     0.000014
      dxz     :     0.000007
      dyz     :     0.000003
      dx2y2   :     0.000001
      dxy     :    -0.000000
      f0      :     0.000000  f :     0.000001
      f+1     :     0.000001
      f-1     :     0.000000
      f+2     :     0.000000
      f-2     :    -0.000000
      f+3     :     0.000000
      f-3     :    -0.000000
 14 F s       :     0.000035  s :     0.000035
      pz      :     0.000023  p :    -0.000153
      px      :    -0.000058
      py      :    -0.000117
      dz2     :    -0.000000  d :     0.000021
      dxz     :     0.000004
      dyz     :     0.000002
      dx2y2   :     0.000007
      dxy     :     0.000008
      f0      :     0.000000  f :     0.000001
      f+1     :     0.000000
      f-1     :    -0.000000
      f+2     :     0.000000
      f-2     :     0.000000
      f+3     :     0.000001
      f-3     :     0.000000
 15 F s       :     0.000007  s :     0.000007
      pz      :    -0.000059  p :     0.000190
      px      :    -0.000010
      py      :     0.000259
      dz2     :     0.000005  d :     0.000036
      dxz     :     0.000018
      dyz     :     0.000004
      dx2y2   :     0.000002
      dxy     :     0.000006
      f0      :     0.000000  f :     0.000002
      f+1     :     0.000001
      f-1     :     0.000000
      f+2     :    -0.000000
      f-2     :     0.000000
      f+3     :     0.000000
      f-3     :    -0.000000
 16 F s       :     0.000162  s :     0.000162
      pz      :     0.000626  p :     0.000711
      px      :    -0.000104
      py      :     0.000190
      dz2     :     0.000003  d :     0.000186
      dxz     :     0.000003
      dyz     :     0.000018
      dx2y2   :     0.000124
      dxy     :     0.000039
      f0      :     0.000000  f :     0.000012
      f+1     :     0.000001
      f-1     :     0.000000
      f+2     :     0.000003
      f-2     :     0.000003
      f+3     :     0.000002
      f-3     :     0.000002
 17 F s       :     0.000138  s :     0.000138
      pz      :    -0.000047  p :     0.000370
      px      :    -0.000182
      py      :     0.000600
      dz2     :     0.000007  d :     0.000177
      dxz     :     0.000026
      dyz     :     0.000028
      dx2y2   :     0.000083
      dxy     :     0.000033
      f0      :     0.000000  f :     0.000010
      f+1     :     0.000003
      f-1     :     0.000001
      f+2     :     0.000003
      f-2     :     0.000003
      f+3     :     0.000001
      f-3     :     0.000000
 18 F s       :     0.001203  s :     0.001203
      pz      :     0.006401  p :     0.014567
      px      :     0.003930
      py      :     0.004235
      dz2     :    -0.000047  d :    -0.000017
      dxz     :    -0.000013
      dyz     :     0.000103
      dx2y2   :    -0.000010
      dxy     :    -0.000050
      f0      :     0.000001  f :    -0.000003
      f+1     :    -0.000000
      f-1     :    -0.000001
      f+2     :    -0.000000
      f-2     :    -0.000001
      f+3     :    -0.000002
      f-3     :     0.000000
 19 F s       :     0.000628  s :     0.000628
      pz      :     0.006538  p :     0.005688
      px      :     0.000398
      py      :    -0.001248
      dz2     :    -0.000016  d :    -0.000146
      dxz     :    -0.000077
      dyz     :     0.000005
      dx2y2   :     0.000006
      dxy     :    -0.000063
      f0      :    -0.000002  f :    -0.000009
      f+1     :    -0.000001
      f-1     :     0.000002
      f+2     :    -0.000002
      f-2     :    -0.000005
      f+3     :    -0.000001
      f-3     :     0.000000
 20 F s       :     0.002396  s :     0.002396
      pz      :    -0.006552  p :     0.097617
      px      :     0.017782
      py      :     0.086388
      dz2     :     0.001139  d :     0.010371
      dxz     :     0.001814
      dyz     :     0.006338
      dx2y2   :     0.000922
      dxy     :     0.000158
      f0      :     0.000058  f :     0.000546
      f+1     :     0.000105
      f-1     :     0.000251
      f+2     :     0.000110
      f-2     :     0.000016
      f+3     :     0.000005
      f-3     :     0.000001
 21 F s       :     0.001553  s :     0.001553
      pz      :     0.011436  p :     0.028309
      px      :     0.015827
      py      :     0.001047
      dz2     :    -0.000009  d :     0.000306
      dxz     :     0.000193
      dyz     :     0.000054
      dx2y2   :     0.000004
      dxy     :     0.000064
      f0      :     0.000004  f :     0.000012
      f+1     :    -0.000000
      f-1     :    -0.000002
      f+2     :     0.000000
      f-2     :     0.000006
      f+3     :    -0.000002
      f-3     :     0.000006
 22 F s       :     0.000043  s :     0.000043
      pz      :    -0.000515  p :     0.004085
      px      :     0.004468
      py      :     0.000131
      dz2     :    -0.000032  d :    -0.000042
      dxz     :    -0.000014
      dyz     :    -0.000029
      dx2y2   :     0.000069
      dxy     :    -0.000035
      f0      :     0.000000  f :    -0.000004
      f+1     :    -0.000001
      f-1     :    -0.000001
      f+2     :    -0.000000
      f-2     :    -0.000001
      f+3     :     0.000002
      f-3     :    -0.000002
 23 F s       :     0.000539  s :     0.000539
      pz      :     0.008682  p :     0.011125
      px      :     0.001473
      py      :     0.000970
      dz2     :     0.000004  d :    -0.000017
      dxz     :    -0.000022
      dyz     :     0.000008
      dx2y2   :     0.000002
      dxy     :    -0.000010
      f0      :     0.000001  f :    -0.000005
      f+1     :    -0.000001
      f-1     :    -0.000002
      f+2     :    -0.000002
      f-2     :    -0.000001
      f+3     :     0.000000
      f-3     :    -0.000000


                      *****************************
                      * MAYER POPULATION ANALYSIS *
                      *****************************

  NA   - Mulliken gross atomic population
  ZA   - Total nuclear charge
  QA   - Mulliken gross atomic charge
  VA   - Mayer's total valence
  BVA  - Mayer's bonded valence
  FA   - Mayer's free valence

  ATOM       NA         ZA         QA         VA         BVA        FA
  0 C      5.8326     6.0000     0.1674     4.6419     4.6419     0.0000
  1 O      8.4786     8.0000    -0.4786     1.9802     1.9802     0.0000
  2 O      8.4924     8.0000    -0.4924     1.9639     1.9639     0.0000
  3 C      5.7001     6.0000     0.2999     3.9538     3.9538     0.0000
  4 C      5.7177     6.0000     0.2823     4.1410     4.1410     0.0000
  5 C      5.7106     6.0000     0.2894     4.2281     4.2280     0.0000
  6 C      5.7282     6.0000     0.2718     4.2304     4.2296     0.0008
  7 C      5.6577     6.0000     0.3423     4.2530     4.2503     0.0027
  8 C      5.8580     6.0000     0.1420     3.9314     3.3463     0.5850
  9 C      5.5854     6.0000     0.4146     4.5676     4.5647     0.0029
 10 F      9.1952     9.0000    -0.1952     1.1007     1.1007     0.0000
 11 F      9.2020     9.0000    -0.2020     1.0834     1.0834     0.0000
 12 F      9.1661     9.0000    -0.1661     1.1518     1.1518     0.0000
 13 F      9.1739     9.0000    -0.1739     1.1414     1.1414     0.0000
 14 F      9.1582     9.0000    -0.1582     1.1622     1.1622     0.0000
 15 F      9.1579     9.0000    -0.1579     1.1657     1.1657     0.0000
 16 F      9.1569     9.0000    -0.1569     1.1667     1.1667     0.0000
 17 F      9.1573     9.0000    -0.1573     1.1712     1.1712     0.0000
 18 F      9.1569     9.0000    -0.1569     1.1619     1.1616     0.0003
 19 F      9.1549     9.0000    -0.1549     1.1635     1.1634     0.0001
 20 F      9.1234     9.0000    -0.1234     1.2252     1.2131     0.0120
 21 F      9.1503     9.0000    -0.1503     1.1581     1.1572     0.0009
 22 F      9.1411     9.0000    -0.1411     1.1789     1.1789     0.0000
 23 F      9.1446     9.0000    -0.1446     1.1685     1.1683     0.0002

  Mayer bond orders larger than 0.100000
B(  0-C ,  1-O ) :   1.8737 B(  0-C ,  2-O ) :   1.8465 B(  0-C ,  3-C ) :   0.8535 
B(  3-C ,  4-C ) :   0.9374 B(  3-C , 10-F ) :   1.0532 B(  3-C , 11-F ) :   1.0403 
B(  4-C ,  5-C ) :   0.9381 B(  4-C , 12-F ) :   1.0772 B(  4-C , 13-F ) :   1.0661 
B(  5-C ,  6-C ) :   0.9456 B(  5-C , 14-F ) :   1.0826 B(  5-C , 15-F ) :   1.0920 
B(  6-C ,  7-C ) :   0.9476 B(  6-C , 16-F ) :   1.0869 B(  6-C , 17-F ) :   1.0941 
B(  7-C ,  8-C ) :   1.0056 B(  7-C , 18-F ) :   1.0833 B(  7-C , 19-F ) :   1.0986 
B(  8-C ,  9-C ) :   1.0540 B(  8-C , 20-F ) :   1.1474 B(  9-C , 21-F ) :   1.1446 
B(  9-C , 22-F ) :   1.1567 B(  9-C , 23-F ) :   1.1492 

-------
TIMINGS
-------

Total SCF time: 0 days 0 hours 1 min 17 sec 

Total time                  ....      77.106 sec
Sum of individual times     ....      74.033 sec  ( 96.0%)

Fock matrix formation       ....      64.505 sec  ( 83.7%)
  Split-RI-J                ....       3.883 sec  (  6.0% of F)
  Chain of spheres X        ....      44.774 sec  ( 69.4% of F)
  XC integration            ....      10.643 sec  ( 16.5% of F)
    Basis function eval.    ....       0.661 sec  (  6.2% of XC)
    Density eval.           ....       3.803 sec  ( 35.7% of XC)
    XC-Functional eval.     ....       0.396 sec  (  3.7% of XC)
    XC-Potential eval.      ....       2.804 sec  ( 26.3% of XC)
Diagonalization             ....       3.787 sec  (  4.9%)
Density matrix formation    ....       0.147 sec  (  0.2%)
Population analysis         ....       0.301 sec  (  0.4%)
Initial guess               ....       0.561 sec  (  0.7%)
Orbital Transformation      ....       0.000 sec  (  0.0%)
Orbital Orthonormalization  ....       0.482 sec  (  0.6%)
DIIS solution               ....       1.807 sec  (  2.3%)
Grid generation             ....       2.926 sec  (  3.8%)

Maximum memory used throughout the entire SCF-calculation: 160.5 MB


-------------------------------------------------------------------------------
                          DFT DISPERSION CORRECTION                            
                                                                               
                              DFTD3 V3.1  Rev 1                                
                          USING Becke-Johnson damping                          
-------------------------------------------------------------------------------
The TPSSH functional is recognized
Active option DFTDOPT                   ...         4   

molecular C6(AA) [au] = 6300.468128 


            DFT-D V3
 parameters
 s6 scaling factor         :     1.0000 
 a1 scaling factor         :     0.4529 
 s8 scaling factor         :     2.2382 
 a2 scaling factor         :     4.6550 
 ad hoc parameters k1-k3   :    16.0000     1.3333    -4.0000 

 Edisp/kcal,au: -18.230819606446  -0.029052657235 
 E6   /kcal   :  -8.813498207 
 E8   /kcal   :  -9.417321400 
 % E8         :  51.656050594 

-------------------------   ----------------
Dispersion correction           -0.029052657
-------------------------   ----------------


-------------------------   --------------------
FINAL SINGLE POINT ENERGY     -1853.953088601628
-------------------------   --------------------

                                *** OPTIMIZATION RUN DONE ***

                            ***************************************
                            *     ORCA property calculations      *
                            ***************************************

                                    ---------------------
                                    Active property flags
                                    ---------------------
   (+) Dipole Moment


------------------------------------------------------------------------------
                       ORCA ELECTRIC PROPERTIES CALCULATION
------------------------------------------------------------------------------

Dipole Moment Calculation                       ... on
Quadrupole Moment Calculation                   ... off
Polarizability Calculation                      ... off
GBWName                                         ... rf_mecn_opt_TPS_C7_D_B.gbw
Electron density                                ... rf_mecn_opt_TPS_C7_D_B.scfp
The origin for moment calculation is the CENTER OF MASS  = ( 0.160511, -0.171667  0.025193)

-------------
DIPOLE MOMENT
-------------
                                X             Y             Z
Electronic contribution:    -17.08385      -1.73969       2.93450
Nuclear contribution   :      8.64743       1.01899      -1.44249
                        -----------------------------------------
Total Dipole Moment    :     -8.43642      -0.72070       1.49201
                        -----------------------------------------
Magnitude (a.u.)       :      8.59759
Magnitude (Debye)      :     21.85335



--------------------
Rotational spectrum 
--------------------
 
Rotational constants in cm-1:     0.020824     0.004047     0.003976 
Rotational constants in MHz :   624.293594   121.314760   119.185405 

 Dipole components along the rotational axes: 
x,y,z [a.u.] :    -8.446249    -1.569946     0.338782 
x,y,z [Debye]:   -21.468660    -3.990486     0.861116 

 

Timings for individual modules:

Sum of individual times         ...     2204.921 sec (=  36.749 min)
GTO integral calculation        ...       20.765 sec (=   0.346 min)   0.9 %
SCF iterations                  ...     1813.592 sec (=  30.227 min)  82.3 %
SCF Gradient evaluation         ...      369.588 sec (=   6.160 min)  16.8 %
Geometry relaxation             ...        0.975 sec (=   0.016 min)   0.0 %
                             ****ORCA TERMINATED NORMALLY****
TOTAL RUN TIME: 0 days 0 hours 36 minutes 53 seconds 477 msec
