
                                 *****************
                                 * O   R   C   A *
                                 *****************

                                            #,                                       
                                            ###                                      
                                            ####                                     
                                            #####                                    
                                            ######                                   
                                           ########,                                 
                                     ,,################,,,,,                         
                               ,,#################################,,                 
                          ,,##########################################,,             
                       ,#########################################, ''#####,          
                    ,#############################################,,   '####,        
                  ,##################################################,,,,####,       
                ,###########''''           ''''###############################       
              ,#####''   ,,,,##########,,,,          '''####'''          '####       
            ,##' ,,,,###########################,,,                        '##       
           ' ,,###''''                  '''############,,,                           
         ,,##''                                '''############,,,,        ,,,,,,###''
      ,#''                                            '''#######################'''  
     '                                                          ''''####''''         
             ,#######,   #######,   ,#######,      ##                                
            ,#'     '#,  ##    ##  ,#'     '#,    #''#        ,####,   ,####,        
            ##       ##  ##   ,#'  ##            #'  '#       #'       #'  '#        
            ##       ##  #######   ##           ,######,      #####,   #    #        
            '#,     ,#'  ##    ##  '#,     ,#' ,#      #,     #,   #   #,  ,#        
             '#######'   ##     ##  '#######'  #'      '#     '####' # '####'        



                #########################################################
                #                        -***-                          #
                #          Department of theory and spectroscopy        #
                #                                                       #
                #                      Frank Neese                      #
                #                                                       #
                #     Directorship, Architecture, Infrastructure        #
                #                    SHARK, DRIVERS                     #
                #        Core code/Algorithms in most modules           #
                #                                                       #
                #        Max Planck Institute fuer Kohlenforschung      #
                #                Kaiser Wilhelm Platz 1                 #
                #                 D-45470 Muelheim/Ruhr                 #
                #                      Germany                          #
                #                                                       #
                #                  All rights reserved                  #
                #                        -***-                          #
                #########################################################


                         Program Version 6.0.1  -  RELEASE   -


 With contributions from (in alphabetic order):
[Max-Planck-Institut fuer Kohlenforschung]                               
  Daniel Aravena         : Magnetic Suceptibility                        
  Michael Atanasov       : Ab Initio Ligand Field Theory (pilot matlab implementation)
  Alexander A. Auer      : GIAO ZORA, VPT2 properties, NMR spectrum      
  Ute Becker             : All parallelization in ORCA, NUMFREQ, NUMCALC 
  Giovanni Bistoni       : ED, misc. LED, open-shell LED, HFLD           
  Martin Brehm           : Molecular dynamics                            
  Dmytro Bykov           : pre 5.0 version of the SCF Hessian            
  Marcos Casanova-Páez   : Triplet and SCS-CIS(D). UHF-(DLPNO)-IP/EA/STEOM-CCSD. UHF-CVS-IP/STEOM-CCSD   
  Vijay G. Chilkuri      : MRCI spin determinant printing, contributions to CSF-ICE 
  Pauline Colinet        : FMM embedding                                 
  Dipayan Datta          : RHF DLPNO-CCSD density                        
  Achintya Kumar Dutta   : EOM-CC, STEOM-CC                              
  Nicolas Foglia         : Exact transition moments, OPA infrastructure, MCD improvements    
  Dmitry Ganyushin       : Spin-Orbit,Spin-Spin,Magnetic field MRCI      
  Miquel Garcia-Rates    : C-PCM and meta-GGA Hessian, CCSD/C-PCM, Gaussian charge scheme 
  Tiago L. C. Gouveia    : GS-ROHF, GS-ROCIS                             
  Yang Guo               : DLPNO-NEVPT2, F12-NEVPT2, CIM, IAO-localization        
  Andreas Hansen         : Spin unrestricted coupled pair/coupled cluster methods 
  Ingolf Harden          : AUTO-CI MPn and infrastructure                
  Benjamin Helmich-Paris : MC-RPA, TRAH-(SCF,CASSCF), AVAS, COSX integrals, SCF dyn. polar. 
  Lee Huntington         : MR-EOM, pCC                                   
  Robert Izsak           : Overlap fitted RIJCOSX, COSX-SCS-MP3, EOM     
  Riya Kayal             : Wick's Theorem for AUTO-CI, AUTO-CI UHF-CCSDT 
  Emily Kempfer          : AUTO-CI, RHF CISDT and CCSDT                  
  Christian Kollmar      : KDIIS, OOCD, Brueckner-CCSD(T), CCSD density, CASPT2, CASPT2-K, improved NEVPT2 
  Axel Koslowski         : Symmetry handling                             
  Simone Kossmann        : meta-GGA functionals, TD-DFT gradient, OOMP2, (MP2 Hessian; deprecated post 5.0) 
  Lucas Lang             : DCDCAS                                        
  Marvin Lechner         : AUTO-CI (C++ implementation), FIC-MRCC        
  Spencer Leger          : CASSCF response                               
  Dagmar Lenk            : GEPOL surface, SMD, ORCA-2-JSON               
  Dimitrios Liakos       : Extrapolation schemes; Compound Job, initial MDCI parallelization 
  Dimitrios Manganas     : Further ROCIS development; embedding schemes. LFT, Crystal Embedding 
  Dimitrios Pantazis     : SARC Basis sets                               
  Anastasios Papadopoulos: AUTO-CI, single reference methods and gradients 
  Taras Petrenko         : pre 6.0 DFT Hessian and TD-DFT gradient, (ASA, deprecated), ECA, 1-Electron XAS/XES, NRVS 
  Peter Pinski           : DLPNO-MP2, DLPNO-MP2 Gradient                 
  Christoph Reimann      : Effective Core Potentials                     
  Marius Retegan         : Local ZFS, SOC                                
  Christoph Riplinger    : Optimizer, TS searches, QM/MM, DLPNO-CCSD(T), (RO)-DLPNO pert. Triples 
  Michael Roemelt        : Original ROCIS implementation                 
  Masaaki Saitow         : Open-shell DLPNO-CCSD energy and density      
  Barbara Sandhoefer     : DKH picture change effects                    
  Kantharuban Sivalingam : CASSCF convergence/infrastructure, NEVPT2 and variants, FIC-MRCI 
  Bernardo de Souza      : ESD, SOC TD-DFT                               
  Georgi L. Stoychev     : AutoAux, RI-MP2 NMR, DLPNO-MP2 response, X2C  
  Van Anh Tran           : RI-MP2 g-tensors                              
  Willem Van den Heuvel  : Paramagnetic NMR                              
  Zikuan Wang            : NOTCH, Electric field optimization            
  Frank Wennmohs         : Technical directorship and infrastructure     
  Hang Xu                : AUTO-CI-Response properties                   
                                                                         
[FACCTs GmbH]                                                            
  Markus Bursch, Miquel Garcia-Rates, Christoph Riplinger, Bernardo de Souza, Georgi L. Stoychev 
                                                                 
  APM, Basis sets (HGBS, AHGBS, def-TZVP (Ac-Lr), def2-XVPD (La-Lu)), CI-OPT, improved COSX, DLPNO-Multilevel,           
  DOCKER, DRACO, updates on ESD, GOAT, IRC, LR-CPCM, MBIS, meta-GGA TD-DFT gradient, ML-optimized integration grids, 
  MM, NACMEs, nearIR, NEB, NEB-TS, NL-DFT gradient (VV10), 2- and 3-layer-ONIOM, interface openCOSMO-RS, QMMM,   
  Crystal-QMMM, SF, symmetry and pop. for TD-DFT, r2SCAN hybrids, SOLVATOR                                   
                                                                         
[Other institutions]                                                     
  V. Asgeirsson          : NEB                                           
  Christoph Bannwarth    : sTDA-DFT, sTD-DFT, PBEh-3c, B97-3c, D3        
  Sebastian Ehlert       : rSCAN, r2SCAN, r2SCAN-3c, D4, dhf basis sets  
  Marvin Friede          : D4 for Fr, Ra, Ac-Lr                          
  Lars Goerigk           : TD-DFT with DH, B97 family of functionals     
  Stefan Grimme          : VdW corrections, initial TS optimization, DFT functionals, gCP, sTDA/sTD-DF 
  Waldemar Hujo          : DFT-NL                                        
  H. Jonsson             : NEB                                           
  Holger Kruse           : gCP                                           
  Marcel Mueller         : wB97X-3c, vDZP basis set                      
  Hagen Neugebauer       : wr2SCAN                                       
  Tobias Risthaus        : range-separated hybrid DFT                    
  Lukas Wittmann         : regularized MP2, r2SCAN double-hybrids, wr2SCAN        
                                                                         
We gratefully acknowledge several colleagues who have allowed us to      
interface, adapt or use parts of their codes:                            
  Ed Valeev, F. Pavosevic, A. Kumar             : LibInt (2-el integral package), F12 methods 
  Garnet Chan, S. Sharma, J. Yang, R. Olivares  : DMRG                   
  Ulf Ekstrom                                   : XCFun DFT Library      
  Mihaly Kallay                                 : mrcc  (arbitrary order and MRCC methods)
  Frank Weinhold                                : gennbo (NPA and NBO analysis)           
  Simon Mueller                                 : openCOSMO-RS                            
  Christopher J. Cramer and Donald G. Truhlar   : smd solvation model                     
  S Lehtola, MJT Oliveira, MAL Marques          : LibXC Library                           
  Liviu Ungur et al                             : ANISO software                          


 Your calculation uses the libint2 library for the computation of 2-el integrals
 For citations please refer to: http://libint.valeyev.net

 Your ORCA version has been built with support for libXC version: 6.2.2
 For citations please refer to: https://libxc.gitlab.io

 This ORCA versions uses:
   CBLAS   interface :  Fast vector & matrix operations
   LAPACKE interface :  Fast linear algebra routines
   SCALAPACK package :  Parallel linear algebra routines
   Shared memory     :  Shared parallel matrices
   BLAS/LAPACK       :  OpenBLAS 0.3.27  USE64BITINT DYNAMIC_ARCH NO_AFFINITY SkylakeX SINGLE_THREADED
        Core in use  :  SkylakeX
   Copyright (c) 2011-2014, The OpenBLAS Project


NOTE: MaxCore=8000 MB was set to SCF,MP2,MDCI,CIPSI,MRCI and CIS
      => If you want to overwrite this, your respective input block should be placed after the MaxCore statement
Your calculation utilizes the atom-pairwise dispersion correction
with the Becke-Johnson damping scheme (D3BJ)


Your calculation utilizes the SMD solvation module
Please cite in your paper:
A.V. Marenich, C.J. Cramer, D.G. Truhlar J. Phys. Chem. B, 113, (2009), 6378 

Warning: RI is on but no J-basis has been assigned. Assigning Def2/J (nothing to worry about!)
================================================================================

----- Orbital basis set information -----
Your calculation utilizes the basis: def2-TZVP
   F. Weigend and R. Ahlrichs, Phys. Chem. Chem. Phys. 7, 3297 (2005).

----- AuxJ basis set information -----
Your calculation utilizes the auxiliary basis: def2/J
   F. Weigend, Phys. Chem. Chem. Phys. 8, 1057 (2006).

================================================================================
                                        WARNINGS
                       Please study these warnings very carefully!
================================================================================


WARNING: your system is open-shell and RHF/RKS was chosen
  ===> : WILL SWITCH to UHF/UKS


================================================================================
                                       INPUT FILE
================================================================================
NAME = rf_mecn_freq_B3L_C6_D_B.inp
|  1> !B3LYP def2-TZVP freq d3 TightSCF SlowConv defgrid2
|  2>  
|  3> %pal
|  4> nprocs 20
|  5> end
|  6>  
|  7> %scf
|  8> MaxIter 1500
|  9> end
| 10>  
| 11> %maxcore 8000
| 12>  
| 13> !CPCM
| 14> %cpcm smd true
| 15> SMDsolvent "ACETONITRILE"
| 16> end
| 17>  
| 18> * xyz -1 2
| 19> 6        4.354738000     -0.212322000     -1.062916000
| 20> 8        4.614035000     -1.152292000     -1.824891000
| 21> 8        4.801640000      0.943723000     -0.990323000
| 22> 6        3.254015000     -0.518510000      0.033163000
| 23> 6        1.968092000      0.337060000     -0.148391000
| 24> 6        0.705661000     -0.209564000      0.597381000
| 25> 6       -0.452126000      0.837461000      0.777233000
| 26> 6       -1.758609000      0.191839000      1.118936000
| 27> 6       -3.091097000      0.400126000      0.459114000
| 28> 6       -3.318374000     -0.388115000     -0.869702000
| 29> 9        2.871558000     -1.828907000      0.022570000
| 30> 9        3.751399000     -0.273270000      1.285100000
| 31> 9        2.195564000      1.599444000      0.278185000
| 32> 9        1.671003000      0.384186000     -1.472084000
| 33> 9        0.205084000     -1.257133000     -0.096312000
| 34> 9        1.062689000     -0.645370000      1.825361000
| 35> 9       -0.083071000      1.699545000      1.767603000
| 36> 9       -0.588067000      1.552566000     -0.362706000
| 37> 9       -1.716587000     -0.736541000      2.058330000
| 38> 9       -3.278340000      1.713113000      0.176755000
| 39> 9       -4.057789000     -0.003982000      1.317207000
| 40> 9       -3.115797000     -1.693109000     -0.664487000
| 41> 9       -4.571345000     -0.211970000     -1.297375000
| 42> 9       -2.480491000      0.036970000     -1.817343000
| 43> *
| 44> 
| 45>                          ****END OF INPUT****
================================================================================

                       ****************************
                       * Single Point Calculation *
                       ****************************

---------------------------------
CARTESIAN COORDINATES (ANGSTROEM)
---------------------------------
  C      4.354738   -0.212322   -1.062916
  O      4.614035   -1.152292   -1.824891
  O      4.801640    0.943723   -0.990323
  C      3.254015   -0.518510    0.033163
  C      1.968092    0.337060   -0.148391
  C      0.705661   -0.209564    0.597381
  C     -0.452126    0.837461    0.777233
  C     -1.758609    0.191839    1.118936
  C     -3.091097    0.400126    0.459114
  C     -3.318374   -0.388115   -0.869702
  F      2.871558   -1.828907    0.022570
  F      3.751399   -0.273270    1.285100
  F      2.195564    1.599444    0.278185
  F      1.671003    0.384186   -1.472084
  F      0.205084   -1.257133   -0.096312
  F      1.062689   -0.645370    1.825361
  F     -0.083071    1.699545    1.767603
  F     -0.588067    1.552566   -0.362706
  F     -1.716587   -0.736541    2.058330
  F     -3.278340    1.713113    0.176755
  F     -4.057789   -0.003982    1.317207
  F     -3.115797   -1.693109   -0.664487
  F     -4.571345   -0.211970   -1.297375
  F     -2.480491    0.036970   -1.817343

----------------------------
CARTESIAN COORDINATES (A.U.)
----------------------------
  NO LB      ZA    FRAG     MASS         X           Y           Z
   0 C     6.0000    0    12.011    8.229262   -0.401230   -2.008620
   1 O     8.0000    0    15.999    8.719263   -2.177516   -3.448544
   2 O     8.0000    0    15.999    9.073785    1.783378   -1.871439
   3 C     6.0000    0    12.011    6.149197   -0.979842    0.062669
   4 C     6.0000    0    12.011    3.719155    0.636951   -0.280418
   5 C     6.0000    0    12.011    1.333506   -0.396019    1.128886
   6 C     6.0000    0    12.011   -0.854394    1.582572    1.468758
   7 C     6.0000    0    12.011   -3.323289    0.362523    2.114483
   8 C     6.0000    0    12.011   -5.841327    0.756129    0.867600
   9 C     6.0000    0    12.011   -6.270818   -0.733431   -1.643499
  10 F     9.0000    0    18.998    5.426458   -3.456133    0.042651
  11 F     9.0000    0    18.998    7.089117   -0.516405    2.428487
  12 F     9.0000    0    18.998    4.149015    3.022511    0.525693
  13 F     9.0000    0    18.998    3.157738    0.726006   -2.781836
  14 F     9.0000    0    18.998    0.387553   -2.375637   -0.182003
  15 F     9.0000    0    18.998    2.008191   -1.219573    3.449432
  16 F     9.0000    0    18.998   -0.156981    3.211675    3.340286
  17 F     9.0000    0    18.998   -1.111286    2.933925   -0.685415
  18 F     9.0000    0    18.998   -3.243879   -1.391861    3.889680
  19 F     9.0000    0    18.998   -6.195165    3.237314    0.334019
  20 F     9.0000    0    18.998   -7.668110   -0.007525    2.489160
  21 F     9.0000    0    18.998   -5.888003   -3.199512   -1.255698
  22 F     9.0000    0    18.998   -8.638590   -0.400565   -2.451683
  23 F     9.0000    0    18.998   -4.687449    0.069863   -3.434281

--------------------------------
INTERNAL COORDINATES (ANGSTROEM)
--------------------------------
 C      0   0   0     0.000000000000     0.00000000     0.00000000
 O      1   0   0     1.237491186124     0.00000000     0.00000000
 O      1   2   0     1.241543870863   131.90118508     0.00000000
 C      1   2   3     1.583266051020   115.15384159   180.15835775
 C      4   1   2     1.555171965329   112.80811800   244.85950904
 C      5   4   1     1.564834081659   114.78815625   161.98138483
 C      6   5   4     1.571330273971   114.59602662   162.65787743
 C      7   6   5     1.496825486282   112.44802463   163.24671654
 C      8   7   6     1.501423596523   127.91323219   230.74223097
 C      9   8   7     1.561643579907   115.66339686    80.64256568
 F      4   1   2     1.365110202917   112.02707378     5.92228336
 F      4   1   2     1.369262485072   110.23030397   124.08077765
 F      5   4   1     1.351785470412   109.74164318   284.01136342
 F      5   4   1     1.357440935012   108.29485082    41.91087908
 F      6   5   4     1.352474813421   108.94851149   283.21824672
 F      6   5   4     1.351048016475   109.43011815    41.46750623
 F      7   6   5     1.363899979097   107.75253720   284.71309107
 F      7   6   5     1.352522103415   109.26214359    41.52916188
 F      8   7   6     1.321406962340   115.94889929    46.00060919
 F      9   8   7     1.355994619495   110.38853796   319.07186979
 F      9   8   7     1.354296974514   108.27870652   200.06767218
 F     10   9   8     1.336472961638   109.88573698    55.11525369
 F     10   9   8     1.335615057865   110.02500760   174.73085992
 F     10   9   8     1.334454436762   110.61533010   294.76917710

---------------------------
INTERNAL COORDINATES (A.U.)
---------------------------
 C      0   0   0     0.000000000000     0.00000000     0.00000000
 O      1   0   0     2.338519434915     0.00000000     0.00000000
 O      1   2   0     2.346177899180   131.90118508     0.00000000
 C      1   2   3     2.991939233564   115.15384159   180.15835775
 C      4   1   2     2.938849105624   112.80811800   244.85950904
 C      5   4   1     2.957107859361   114.78815625   161.98138483
 C      6   5   4     2.969383883745   114.59602662   162.65787743
 C      7   6   5     2.828590239346   112.44802463   163.24671654
 C      8   7   6     2.837279408436   127.91323219   230.74223097
 C      9   8   7     2.951078684821   115.66339686    80.64256568
 F      4   1   2     2.579684426134   112.02707378     5.92228336
 F      4   1   2     2.587531102238   110.23030397   124.08077765
 F      5   4   1     2.554504330892   109.74164318   284.01136342
 F      5   4   1     2.565191610146   108.29485082    41.91087908
 F      6   5   4     2.555807000393   108.94851149   283.21824672
 F      6   5   4     2.553110744915   109.43011815    41.46750623
 F      7   6   5     2.577397434554   107.75253720   284.71309107
 F      7   6   5     2.555896365530   109.26214359    41.52916188
 F      8   7   6     2.497097270279   115.94889929    46.00060919
 F      9   8   7     2.562458469916   110.38853796   319.07186979
 F      9   8   7     2.559250385829   108.27870652   200.06767218
 F     10   9   8     2.525567882887   109.88573698    55.11525369
 F     10   9   8     2.523946679706   110.02500760   174.73085992
 F     10   9   8     2.521753423677   110.61533010   294.76917710

---------------------
BASIS SET INFORMATION
---------------------
There are 3 groups of distinct atoms

 Group   1 Type C   : 11s6p2d1f contracted to 5s3p2d1f pattern {62111/411/11/1}
 Group   2 Type O   : 11s6p2d1f contracted to 5s3p2d1f pattern {62111/411/11/1}
 Group   3 Type F   : 11s6p2d1f contracted to 5s3p2d1f pattern {62111/411/11/1}

Atom   0C    basis set group =>   1
Atom   1O    basis set group =>   2
Atom   2O    basis set group =>   2
Atom   3C    basis set group =>   1
Atom   4C    basis set group =>   1
Atom   5C    basis set group =>   1
Atom   6C    basis set group =>   1
Atom   7C    basis set group =>   1
Atom   8C    basis set group =>   1
Atom   9C    basis set group =>   1
Atom  10F    basis set group =>   3
Atom  11F    basis set group =>   3
Atom  12F    basis set group =>   3
Atom  13F    basis set group =>   3
Atom  14F    basis set group =>   3
Atom  15F    basis set group =>   3
Atom  16F    basis set group =>   3
Atom  17F    basis set group =>   3
Atom  18F    basis set group =>   3
Atom  19F    basis set group =>   3
Atom  20F    basis set group =>   3
Atom  21F    basis set group =>   3
Atom  22F    basis set group =>   3
Atom  23F    basis set group =>   3
---------------------------------
AUXILIARY/J BASIS SET INFORMATION
---------------------------------
There are 3 groups of distinct atoms

 Group   1 Type C   : 12s5p4d2f1g contracted to 6s4p3d1f1g pattern {711111/2111/211/2/1}
 Group   2 Type O   : 12s5p4d2f1g contracted to 6s4p3d1f1g pattern {711111/2111/211/2/1}
 Group   3 Type F   : 12s5p4d2f1g contracted to 6s4p3d1f1g pattern {711111/2111/211/2/1}

Atom   0C    basis set group =>   1
Atom   1O    basis set group =>   2
Atom   2O    basis set group =>   2
Atom   3C    basis set group =>   1
Atom   4C    basis set group =>   1
Atom   5C    basis set group =>   1
Atom   6C    basis set group =>   1
Atom   7C    basis set group =>   1
Atom   8C    basis set group =>   1
Atom   9C    basis set group =>   1
Atom  10F    basis set group =>   3
Atom  11F    basis set group =>   3
Atom  12F    basis set group =>   3
Atom  13F    basis set group =>   3
Atom  14F    basis set group =>   3
Atom  15F    basis set group =>   3
Atom  16F    basis set group =>   3
Atom  17F    basis set group =>   3
Atom  18F    basis set group =>   3
Atom  19F    basis set group =>   3
Atom  20F    basis set group =>   3
Atom  21F    basis set group =>   3
Atom  22F    basis set group =>   3
Atom  23F    basis set group =>   3


           ************************************************************
           *        Program running with 20 parallel MPI-processes    *
           *              working on a common directory               *
           ************************************************************
------------------------------------------------------------------------------
                             ORCA STARTUP CALCULATIONS
                           -- RI-GTO INTEGRALS CHOSEN --
------------------------------------------------------------------------------
------------------------------------------------------------------------------
                   ___                                                        
                  /   \      - P O W E R E D   B Y -                         
                 /     \                                                     
                 |  |  |   _    _      __       _____    __    __             
                 |  |  |  | |  | |    /  \     |  _  \  |  |  /  |          
                  \  \/   | |  | |   /    \    | | | |  |  | /  /          
                 / \  \   | |__| |  /  /\  \   | |_| |  |  |/  /          
                |  |  |   |  __  | /  /__\  \  |    /   |      \           
                |  |  |   | |  | | |   __   |  |    \   |  |\   \          
                \     /   | |  | | |  |  |  |  | |\  \  |  | \   \       
                 \___/    |_|  |_| |__|  |__|  |_| \__\ |__|  \__/        
                                                                              
                      - O R C A' S   B I G   F R I E N D -                    
                                      &                                       
                       - I N T E G R A L  F E E D E R -                       
                                                                              
 v1 FN, 2020, v2 2021, v3 2022-2024                                           
------------------------------------------------------------------------------


----------------------
SHARK INTEGRAL PACKAGE
----------------------

Number of atoms                             ...     24
Number of basis functions                   ...    744
Number of shells                            ...    264
Maximum angular momentum                    ...      3
Integral batch strategy                     ... SHARK/LIBINT Hybrid
RI-J (if used) integral strategy            ... SPLIT-RIJ (Revised 2003 algorithm where possible)
Printlevel                                  ...      1
Contraction scheme used                     ... SEGMENTED contraction
Prescreening option                         ... SCHWARTZ
   Thresh                                   ... 2.500e-11
   Tcut                                     ... 2.500e-12
   Tpresel                                  ... 2.500e-12 
Coulomb Range Separation                    ... NOT USED
Exchange Range Separation                   ... NOT USED
Multipole approximations                    ... NOT USED
Finite Nucleus Model                        ... NOT USED
CABS basis                                  ... NOT available
Auxiliary Coulomb fitting basis             ... AVAILABLE
   # of basis functions in Aux-J            ...   1176
   # of shells in Aux-J                     ...    360
   Maximum angular momentum in Aux-J        ...      4
Auxiliary J/K fitting basis                 ... NOT available
Auxiliary Correlation fitting basis         ... NOT available
Auxiliary 'external' fitting basis          ... NOT available

Checking pre-screening integrals            ... done (  0.0 sec) Dimension = 264
Check shell pair data                       ... done (  0.0 sec)
Shell pair information
Shell pair cut-off parameter TPreSel        ...   2.5e-12
Total number of shell pairs                 ...     34980
Shell pairs after pre-screening             ...     22315
Total number of primitive shell pairs       ...    115968
Primitive shell pairs kept                  ...     47395
          la=0 lb=0:   4186 shell pairs
          la=1 lb=0:   6065 shell pairs
          la=1 lb=1:   2115 shell pairs
          la=2 lb=0:   3311 shell pairs
          la=2 lb=1:   2448 shell pairs
          la=2 lb=2:    700 shell pairs
          la=3 lb=0:   1512 shell pairs
          la=3 lb=1:   1187 shell pairs
          la=3 lb=2:    637 shell pairs
          la=3 lb=3:    154 shell pairs

Calculating one electron integrals          ... done (  0.0 sec)
Calculating RI/J V-Matrix + Cholesky decomp.... done (  0.1 sec)
Calculating Nuclear repulsion               ... done (  0.0 sec) ENN=   2657.749649967624 Eh

Diagonalization of the overlap matrix:
Smallest eigenvalue                        ... 5.905e-05
Time for diagonalization                   ...    0.095 sec
Threshold for overlap eigenvalues          ... 1.000e-07
Number of eigenvalues below threshold      ... 0
Time for construction of square roots      ...    0.042 sec
Total time needed                          ...    0.142 sec

-------------------
DFT GRID GENERATION
-------------------

General Integration Accuracy     IntAcc      ... 4.388
Radial Grid Type                 RadialGrid  ... OptM3 with GC (2021)
Angular Grid (max. ang.)         AngularGrid ... 4 (Lebedev-302)
Angular grid pruning method      GridPruning ... 4 (adaptive)
Weight generation scheme         WeightScheme... mBecke (2022)
Basis function cutoff            BFCut       ... 1.0000e-11
Integration weight cutoff        WCut        ... 1.0000e-14
Partially contracted basis set               ... off
Rotationally invariant grid construction     ... off
Angular grids for H and He will be reduced by one unit

Total number of grid points                  ...   145462
Total number of batches                      ...     2285
Average number of points per batch           ...       63
Average number of grid points per atom       ...     6061

--------------------
COSX GRID GENERATION
--------------------

GRIDX 1
-------
General Integration Accuracy     IntAcc      ... 3.816
Radial Grid Type                 RadialGrid  ... OptM3 with GC (2021)
Angular Grid (max. ang.)         AngularGrid ... 1 (Lebedev-50)
Angular grid pruning method      GridPruning ... 4 (adaptive)
Weight generation scheme         WeightScheme... mBecke (2022)
Basis function cutoff            BFCut       ... 1.0000e-11
Integration weight cutoff        WCut        ... 1.0000e-14
Partially contracted basis set               ... on
Rotationally invariant grid construction     ... off
Angular grids for H and He will be reduced by one unit

Total number of grid points                  ...    18266
Total number of batches                      ...      153
Average number of points per batch           ...      119
Average number of grid points per atom       ...      761
UseSFitting                                  ... on

GRIDX 2
-------
General Integration Accuracy     IntAcc      ... 4.020
Radial Grid Type                 RadialGrid  ... OptM3 with GC (2021)
Angular Grid (max. ang.)         AngularGrid ... 2 (Lebedev-110)
Angular grid pruning method      GridPruning ... 4 (adaptive)
Weight generation scheme         WeightScheme... mBecke (2022)
Basis function cutoff            BFCut       ... 1.0000e-11
Integration weight cutoff        WCut        ... 1.0000e-14
Partially contracted basis set               ... on
Rotationally invariant grid construction     ... off
Angular grids for H and He will be reduced by one unit

Total number of grid points                  ...    43289
Total number of batches                      ...      353
Average number of points per batch           ...      122
Average number of grid points per atom       ...     1804
UseSFitting                                  ... on

GRIDX 3
-------
General Integration Accuracy     IntAcc      ... 4.338
Radial Grid Type                 RadialGrid  ... OptM3 with GC (2021)
Angular Grid (max. ang.)         AngularGrid ... 3 (Lebedev-194)
Angular grid pruning method      GridPruning ... 4 (adaptive)
Weight generation scheme         WeightScheme... mBecke (2022)
Basis function cutoff            BFCut       ... 1.0000e-11
Integration weight cutoff        WCut        ... 1.0000e-14
Partially contracted basis set               ... on
Rotationally invariant grid construction     ... off
Angular grids for H and He will be reduced by one unit

Total number of grid points                  ...    95869
Total number of batches                      ...      761
Average number of points per batch           ...      125
Average number of grid points per atom       ...     3995
UseSFitting                                  ... on
Initializing property integral containers    ... done (  0.0 sec)

SHARK setup successfully completed in   3.1 seconds

Maximum memory used throughout the entire STARTUP-calculation: 57.5 MB


           ************************************************************
           *        Program running with 20 parallel MPI-processes    *
           *              working on a common directory               *
           ************************************************************
-------------------------------------------------------------------------------
                                 ORCA GUESS
                   Start orbitals & Density for SCF / CASSCF
-------------------------------------------------------------------------------

------------
SCF SETTINGS
------------
Hamiltonian:
 Density Functional     Method          .... DFT(GTOs)
 Exchange Functional    Exchange        .... B88
   X-Alpha parameter    XAlpha          ....  0.666667
   Becke's b parameter  XBeta           ....  0.004200
 Correlation Functional Correlation     .... LYP
 LDA part of GGA corr.  LDAOpt          .... VWN-5
 Gradients option       PostSCFGGA      .... off
 Hybrid DFT is turned on
   Fraction HF Exchange ScalHFX         ....  0.200000
   Scaling of DF-GGA-X  ScalDFX         ....  0.720000
   Scaling of DF-GGA-C  ScalDFC         ....  0.810000
   Scaling of DF-LDA-C  ScalLDAC        ....  1.000000
   Perturbative correction              ....  0.000000
   NL short-range parameter             ....  4.800000
 RI-approximation to the Coulomb term is turned on
   Number of AuxJ basis functions       .... 1176
   RIJ-COSX (HFX calculated with COS-X)).... on


General Settings:
 Integral files         IntName         .... rf_mecn_freq_B3L_C6_D_B
 Hartree-Fock type      HFTyp           .... UHF
 Total Charge           Charge          ....   -1
 Multiplicity           Mult            ....    2
 Number of Electrons    NEL             ....  191
 Basis Dimension        Dim             ....  744
 Nuclear Repulsion      ENuc            ....   2657.7496499676 Eh

Convergence Acceleration:
 AO-DIIS                CNVDIIS         .... on
   Start iteration      DIISMaxIt       ....     0
   Startup error        DIISStart       ....  0.200000
   # of expansion vecs  DIISMaxEq       ....     5
   Bias factor          DIISBfac        ....   1.050
   Max. coefficient     DIISMaxC        ....  10.000
 MO-DIIS                CNVKDIIS        .... off
 Trust-Rad. Augm. Hess. CNVTRAH         .... auto
   Auto Start mean grad. ratio tolernc. ....  1.125000
   Auto Start start iteration           ....    50
   Auto Start num. interpolation iter.  ....    10
   Max. Number of Micro iterations      ....    24
   Max. Number of Macro iterations      .... Maxiter - #DIIS iter
   Number of Davidson start vectors     ....     2
   Converg. threshold    (grad. norm)   ....   1.000e-05
   Grad. Scal. Fac. for Micro threshold ....   0.100
   Minimum threshold for Micro iter.    ....   1.000e-02
   NR start threshold (gradient norm)   ....   1.000e-04
   Initial trust radius                 ....   0.400
   Minimum AH scaling param. (alpha)    ....   1.000
   Maximum AH scaling param. (alpha)    .... 1000.000
   Quad. conv. algorithm                .... NR
   White noise on init. David. guess    .... on
   Maximum white noise                  ....   0.010
   Pseudo random numbers                .... off
   Inactive MOs                         .... canonical
   Orbital update algorithm             .... Taylor
   Preconditioner                       .... Diag
   Full preconditioner red. dimension   ....   250
 SOSCF                  CNVSOSCF        .... on
   Start iteration      SOSCFMaxIt      ....   150
   Startup grad/error   SOSCFStart      ....  0.001000
   Hessian update       SOSCFHessUp     .... L-BFGS
 Level Shifting         CNVShift        .... on
   Level shift para.    LevelShift      ....    0.2500
   Turn off err/grad.   ShiftErr        ....    0.0000
 Zerner damping         CNVZerner       .... off
 Static damping         CNVDamp         .... on
   Fraction old density DampFac         ....    0.8500
   Max. Damping (<1)    DampMax         ....    0.9800
   Min. Damping (>=0)   DampMin         ....    0.0000
   Turn off err/grad.   DampErr         ....    0.0300

SCF Procedure:
 Maximum # iterations   MaxIter         ....  1500
 SCF integral mode      SCFMode         .... Direct
   Integral package                     .... SHARK and LIBINT hybrid scheme
 Reset frequency        DirectResetFreq ....    20
 Integral Threshold     Thresh          ....  2.500e-11 Eh
 Primitive CutOff       TCut            ....  2.500e-12 Eh

Convergence Tolerance:
 Convergence Check Mode ConvCheckMode   .... Total+1el-Energy
 Convergence forced     ConvForced      .... 0
 Energy Change          TolE            ....  1.000e-08 Eh
 1-El. energy change                    ....  1.000e-05 Eh
 Orbital Gradient       TolG            ....  1.000e-05
 Orbital Rotation angle TolX            ....  1.000e-05
 DIIS Error             TolErr          ....  5.000e-07

------------------------------
INITIAL GUESS: MODEL POTENTIAL
------------------------------
Loading Hartree-Fock densities                     ... done
Calculating cut-offs                               ... done
Initializing the effective Hamiltonian             ... done
Setting up the integral package (SHARK)            ... done
Starting the Coulomb interaction                   ... done (   0.1 sec)
Making the grid                                    ... done (   0.4 sec)
Mapping shells                                     ... done
Starting the XC term evaluation                    ... done (   0.1 sec)
  promolecular density results
     # of electrons  =    190.002105313
     EX              =   -198.266852348
     EC              =     -7.145334647
     EX+EC           =   -205.412186995
Transforming the Hamiltonian                       ... done (   0.0 sec)
Diagonalizing the Hamiltonian                      ... done (   0.1 sec)
Back transforming the eigenvectors                 ... done (   0.0 sec)
Now organizing SCF variables                       ... done
                      ------------------
                      INITIAL GUESS DONE (   1.0 sec)
                      ------------------
             **** ENERGY FILE WAS UPDATED (rf_mecn_freq_B3L_C6_D_B.en.tmp) ****
Finished Guess after   1.8 sec
Maximum memory used throughout the entire GUESS-calculation: 46.8 MB


           ************************************************************
           *        Program running with 20 parallel MPI-processes    *
           *              working on a common directory               *
           ************************************************************

-------------------------------------------------------------------------------------------
                                      ORCA LEAN-SCF
                              memory conserving SCF solver
-------------------------------------------------------------------------------------------

--------------------
CPCM SOLVATION MODEL
--------------------
CPCM parameters:
  Epsilon                                         ...      35.6880
  Refrac                                          ...       1.3442
  Rsolv                                           ...       1.3000
  Surface type                                    ... GAUSSIAN VDW
  Discretization scheme                           ... Constant charge density
    Threshold for H atoms                         ...       5.0000 (charges/Ang^2)
    Threshold for non-H atoms                     ...       5.0000 (charges/Ang^2)
  Epsilon function type                           ...         CPCM
Solvent:                                          ... ACETONITRILE
SMD-CDS solvent descriptors:
  Soln                                            ...       1.3442
  Soln25                                          ...       1.3416
  Sola                                            ...       0.0700
  Solb                                            ...       0.3200
  Solg                                            ...      41.2500
  Solc                                            ...       0.0000
  Solh                                            ...       0.0000
Radii:
  Scheme                                          ... Element-dependent radii
  Radius for C  used is    3.4960 Bohr (=   1.8500 Ang.)
  Radius for O  used is    4.0969 Bohr (=   2.1680 Ang.)
  Radius for F  used is    3.2692 Bohr (=   1.7300 Ang.)
Calculating surface                               ...        done! (  0.0s)
Cavity surface points                             ...         2153
Cavity Volume                                     ...    2116.2086
Cavity Surface-area                               ...    1111.6476
Calculating surface distance matrix               ...        done! (  0.0s)
Performing Cholesky decomposition & store         ...        done! (  0.1s)
Overall time for CPCM initialization              ...                 0.1s

----------------------------------------D-I-I-S--------------------------------------------
Iteration    Energy (Eh)           Delta-E    RMSDP     MaxDP     DIISErr   Damp  Time(sec)
-------------------------------------------------------------------------------------------
               ***  Starting incremental Fock matrix formation  ***
    1    -1852.7073776581764832     0.00e+00  2.82e-04  3.91e-02  1.67e-01  0.850   6.4
Warning: op=0 Small HOMO/LUMO gap (   0.070) - skipping pre-diagonalization
         Will do a full diagonalization
    2    -1852.8732864089633949    -1.66e-01  3.86e-04  7.98e-02  1.16e-01  0.850   4.1
                               ***Turning on AO-DIIS***
    3    -1852.9637379711630274    -9.05e-02  1.98e-04  3.93e-02  7.05e-02  0.850   3.6
    4    -1853.0182678131177454    -5.45e-02  1.05e-04  1.69e-02  5.29e-02  0.850   3.5
    5    -1853.0571756100807761    -3.89e-02  6.11e-05  6.28e-03  4.36e-02  0.850   3.5
    6    -1853.0880063980603154    -3.08e-02  4.26e-05  3.05e-03  3.74e-02  0.850   3.8
    7    -1853.1136172120750416    -2.56e-02  3.54e-05  2.30e-03  3.21e-02  0.850   4.0
    8    -1853.1352202527832560    -2.16e-02  3.11e-05  1.98e-03  2.71e-02  0.850   4.1
    9    -1853.1532370845106925    -1.80e-02  1.79e-04  1.15e-02  2.25e-02  0.000   4.0
   10    -1853.2477032201177281    -9.45e-02  1.72e-05  2.84e-03  2.91e-03  0.000   4.2
                              *** Initializing SOSCF ***
---------------------------------------S-O-S-C-F--------------------------------------
Iteration    Energy (Eh)           Delta-E    RMSDP     MaxDP     MaxGrad    Time(sec)
--------------------------------------------------------------------------------------
   11    -1853.2478353529177184    -1.32e-04  9.32e-06  1.62e-03  4.26e-04     4.2
               *** Restarting incremental Fock matrix formation ***
   12    -1853.2478684686502675    -3.31e-05  7.13e-06  7.03e-04  4.32e-04     7.5
   13    -1853.2478685959213180    -1.27e-07  5.32e-06  5.87e-04  3.63e-04     5.0
   14    -1853.2478730260854718    -4.43e-06  2.33e-06  2.44e-04  9.28e-05     4.6
   15    -1853.2478728850301195     1.41e-07  1.01e-06  1.25e-04  6.09e-05     4.4
   16    -1853.2478734018404793    -5.17e-07  5.65e-07  5.30e-05  1.59e-05     3.9
   17    -1853.2478734276028263    -2.58e-08  3.12e-07  4.53e-05  1.72e-05     3.8
   18    -1853.2478734257247197     1.88e-09  1.80e-07  2.49e-05  3.37e-06     3.4
                 **** Energy Check signals convergence ****

               *****************************************************
               *                     SUCCESS                       *
               *           SCF CONVERGED AFTER  18 CYCLES          *
               *****************************************************

Recomputing exchange energy using gridx3       ... done (    8.922 sec)
Old exchange energy                            :    -39.800969924 Eh
New exchange energy                            :    -39.800962604 Eh
Exchange energy change after final integration :      0.000007320 Eh
Total energy after final integration           :  -1853.247866106 Eh

SMD CDS free energy correction energy :                 3.14984     Kcal/mol
Total Energy after SMD CDS correction =             -1853.242846524 Eh
             **** ENERGY FILE WAS UPDATED (rf_mecn_freq_B3L_C6_D_B.en.tmp) ****

----------------
TOTAL SCF ENERGY
----------------

Total Energy       :      -1853.24284652448091 Eh          -50429.30163 eV

Components:
Nuclear Repulsion  :       2657.74964996762355 Eh           72321.04471 eV
Electronic Energy  :      -4510.91224652124401 Eh         -122748.16262 eV
One Electron Energy:      -7890.12864538309805 Eh         -214701.31564 eV
Two Electron Energy:       3379.21639886185403 Eh           91953.15302 eV
CPCM Dielectric    :         -0.08527687210400 Eh              -2.32050 eV
SMD CDS (Gcds)     :          0.00501958110333 Eh               0.13659 eV

Virial components:
Potential Energy   :      -3700.21809339225319 Eh         -100688.05320 eV
Kinetic Energy     :       1846.97524686777228 Eh           50258.75157 eV
Virial Ratio       :          2.00339343998645

DFT components:
N(Alpha)           :       95.999953258217 electrons
N(Beta)            :       94.999949473410 electrons
N(Total)           :      190.999902731626 electrons
E(X)               :     -158.620649986278 Eh       
E(C)               :       -8.381219878453 Eh       
E(XC)              :     -167.001869864731 Eh       

CPCM Solvation Model Properties:
Surface-charge          :          0.98948130820931
Corrected charge        :          1.00000000000000
Outlying charge corr.   :          0.00000613891965 Eh               0.00017 eV
Free-energy (cav+disp)  :          0.00501958110333 Eh               0.13659 eV

---------------
SCF CONVERGENCE
---------------

  Last Energy change         ...   -1.8781e-09  Tolerance :   1.0000e-08
  Last MAX-Density change    ...    2.4873e-05  Tolerance :   1.0000e-07
  Last RMS-Density change    ...    1.8017e-07  Tolerance :   5.0000e-09
  Last DIIS Error            ...    4.2575e-04  Tolerance :   5.0000e-07
  Last Orbital Gradient      ...    3.3659e-06  Tolerance :   1.0000e-05
  Last Orbital Rotation      ...    3.6577e-05  Tolerance :   1.0000e-05


----------------------
UHF SPIN CONTAMINATION
----------------------

Warning: in a DFT calculation there is little theoretical justification to 
         calculate <S**2> as in Hartree-Fock theory. We will do it anyways
         but you should keep in mind that the values have only limited relevance

Expectation value of <S**2>     :     0.754043
Ideal value S*(S+1) for S=0.5   :     0.750000
Deviation                       :     0.004043

----------------
ORBITAL ENERGIES
----------------
                 SPIN UP ORBITALS
  NO   OCC          E(Eh)            E(eV) 
   0   1.0000     -24.755269      -673.6251 
   1   1.0000     -24.740919      -673.2346 
   2   1.0000     -24.740762      -673.2304 
   3   1.0000     -24.739878      -673.2063 
   4   1.0000     -24.735539      -673.0882 
   5   1.0000     -24.734839      -673.0692 
   6   1.0000     -24.734214      -673.0522 
   7   1.0000     -24.732157      -672.9962 
   8   1.0000     -24.731756      -672.9853 
   9   1.0000     -24.726501      -672.8423 
  10   1.0000     -24.721849      -672.7157 
  11   1.0000     -24.721606      -672.7091 
  12   1.0000     -24.697806      -672.0615 
  13   1.0000     -24.697470      -672.0523 
  14   1.0000     -19.061424      -518.6877 
  15   1.0000     -19.059517      -518.6358 
  16   1.0000     -10.454540      -284.4825 
  17   1.0000     -10.403176      -283.0848 
  18   1.0000     -10.399640      -282.9886 
  19   1.0000     -10.392520      -282.7949 
  20   1.0000     -10.380120      -282.4574 
  21   1.0000     -10.342594      -281.4363 
  22   1.0000     -10.325627      -280.9746 
  23   1.0000     -10.254072      -279.0275 
  24   1.0000      -1.348215       -36.6868 
  25   1.0000      -1.317096       -35.8400 
  26   1.0000      -1.306197       -35.5434 
  27   1.0000      -1.296231       -35.2722 
  28   1.0000      -1.292279       -35.1647 
  29   1.0000      -1.288642       -35.0657 
  30   1.0000      -1.262043       -34.3419 
  31   1.0000      -1.259623       -34.2761 
  32   1.0000      -1.256553       -34.1925 
  33   1.0000      -1.249175       -33.9918 
  34   1.0000      -1.244042       -33.8521 
  35   1.0000      -1.238057       -33.6893 
  36   1.0000      -1.231885       -33.5213 
  37   1.0000      -1.204339       -32.7717 
  38   1.0000      -1.024442       -27.8765 
  39   1.0000      -0.942015       -25.6335 
  40   1.0000      -0.855374       -23.2759 
  41   1.0000      -0.821133       -22.3442 
  42   1.0000      -0.791262       -21.5313 
  43   1.0000      -0.752537       -20.4776 
  44   1.0000      -0.716212       -19.4891 
  45   1.0000      -0.679169       -18.4811 
  46   1.0000      -0.666297       -18.1309 
  47   1.0000      -0.642828       -17.4922 
  48   1.0000      -0.633947       -17.2506 
  49   1.0000      -0.633233       -17.2312 
  50   1.0000      -0.625814       -17.0293 
  51   1.0000      -0.619422       -16.8553 
  52   1.0000      -0.615733       -16.7549 
  53   1.0000      -0.602358       -16.3910 
  54   1.0000      -0.601291       -16.3620 
  55   1.0000      -0.591047       -16.0832 
  56   1.0000      -0.581889       -15.8340 
  57   1.0000      -0.578043       -15.7294 
  58   1.0000      -0.571776       -15.5588 
  59   1.0000      -0.564377       -15.3575 
  60   1.0000      -0.549484       -14.9522 
  61   1.0000      -0.534921       -14.5559 
  62   1.0000      -0.504404       -13.7255 
  63   1.0000      -0.501427       -13.6445 
  64   1.0000      -0.498776       -13.5724 
  65   1.0000      -0.497746       -13.5444 
  66   1.0000      -0.495570       -13.4851 
  67   1.0000      -0.485902       -13.2221 
  68   1.0000      -0.479476       -13.0472 
  69   1.0000      -0.478361       -13.0169 
  70   1.0000      -0.475451       -12.9377 
  71   1.0000      -0.471107       -12.8195 
  72   1.0000      -0.465802       -12.6751 
  73   1.0000      -0.462113       -12.5747 
  74   1.0000      -0.460150       -12.5213 
  75   1.0000      -0.457575       -12.4513 
  76   1.0000      -0.453590       -12.3428 
  77   1.0000      -0.450825       -12.2676 
  78   1.0000      -0.444948       -12.1077 
  79   1.0000      -0.440379       -11.9833 
  80   1.0000      -0.438506       -11.9324 
  81   1.0000      -0.436842       -11.8871 
  82   1.0000      -0.433954       -11.8085 
  83   1.0000      -0.431716       -11.7476 
  84   1.0000      -0.425282       -11.5725 
  85   1.0000      -0.413649       -11.2560 
  86   1.0000      -0.411572       -11.1994 
  87   1.0000      -0.399545       -10.8722 
  88   1.0000      -0.398475       -10.8431 
  89   1.0000      -0.384753       -10.4696 
  90   1.0000      -0.382560       -10.4100 
  91   1.0000      -0.347029        -9.4431 
  92   1.0000      -0.270937        -7.3726 
  93   1.0000      -0.250430        -6.8146 
  94   1.0000      -0.238503        -6.4900 
  95   1.0000      -0.236727        -6.4417 
  96   0.0000      -0.003837        -0.1044 
  97   0.0000       0.024019         0.6536 
  98   0.0000       0.038125         1.0374 
  99   0.0000       0.055188         1.5017 
 100   0.0000       0.075549         2.0558 
 101   0.0000       0.086746         2.3605 
 102   0.0000       0.105123         2.8605 
 103   0.0000       0.113298         3.0830 
 104   0.0000       0.114641         3.1195 
 105   0.0000       0.121668         3.3108 
 106   0.0000       0.140465         3.8223 

                 SPIN DOWN ORBITALS
  NO   OCC          E(Eh)            E(eV) 
   0   1.0000     -24.750751      -673.5022 
   1   1.0000     -24.740867      -673.2332 
   2   1.0000     -24.740723      -673.2293 
   3   1.0000     -24.739541      -673.1971 
   4   1.0000     -24.735387      -673.0841 
   5   1.0000     -24.734507      -673.0601 
   6   1.0000     -24.733521      -673.0333 
   7   1.0000     -24.732079      -672.9941 
   8   1.0000     -24.731655      -672.9825 
   9   1.0000     -24.725156      -672.8057 
  10   1.0000     -24.721843      -672.7155 
  11   1.0000     -24.721606      -672.7091 
  12   1.0000     -24.697800      -672.0613 
  13   1.0000     -24.697471      -672.0523 
  14   1.0000     -19.061406      -518.6872 
  15   1.0000     -19.059515      -518.6358 
  16   1.0000     -10.453750      -284.4610 
  17   1.0000     -10.404070      -283.1092 
  18   1.0000     -10.400445      -283.0105 
  19   1.0000     -10.392104      -282.7835 
  20   1.0000     -10.380077      -282.4563 
  21   1.0000     -10.342571      -281.4357 
  22   1.0000     -10.311150      -280.5807 
  23   1.0000     -10.254068      -279.0274 
  24   1.0000      -1.347724       -36.6734 
  25   1.0000      -1.315773       -35.8040 
  26   1.0000      -1.303751       -35.4769 
  27   1.0000      -1.295279       -35.2463 
  28   1.0000      -1.289856       -35.0988 
  29   1.0000      -1.283261       -34.9193 
  30   1.0000      -1.262024       -34.3414 
  31   1.0000      -1.259324       -34.2680 
  32   1.0000      -1.256011       -34.1778 
  33   1.0000      -1.248532       -33.9743 
  34   1.0000      -1.242864       -33.8201 
  35   1.0000      -1.236462       -33.6458 
  36   1.0000      -1.231842       -33.5201 
  37   1.0000      -1.204332       -32.7715 
  38   1.0000      -1.024421       -27.8759 
  39   1.0000      -0.941991       -25.6329 
  40   1.0000      -0.841436       -22.8966 
  41   1.0000      -0.818903       -22.2835 
  42   1.0000      -0.788280       -21.4502 
  43   1.0000      -0.745566       -20.2879 
  44   1.0000      -0.714497       -19.4424 
  45   1.0000      -0.675142       -18.3715 
  46   1.0000      -0.664758       -18.0890 
  47   1.0000      -0.639333       -17.3971 
  48   1.0000      -0.632527       -17.2119 
  49   1.0000      -0.631110       -17.1734 
  50   1.0000      -0.624587       -16.9959 
  51   1.0000      -0.617850       -16.8126 
  52   1.0000      -0.614425       -16.7194 
  53   1.0000      -0.601011       -16.3543 
  54   1.0000      -0.599010       -16.2999 
  55   1.0000      -0.589195       -16.0328 
  56   1.0000      -0.580917       -15.8075 
  57   1.0000      -0.576033       -15.6747 
  58   1.0000      -0.570809       -15.5325 
  59   1.0000      -0.563412       -15.3312 
  60   1.0000      -0.549454       -14.9514 
  61   1.0000      -0.508982       -13.8501 
  62   1.0000      -0.502367       -13.6701 
  63   1.0000      -0.499612       -13.5951 
  64   1.0000      -0.498537       -13.5659 
  65   1.0000      -0.496459       -13.5093 
  66   1.0000      -0.492765       -13.4088 
  67   1.0000      -0.485121       -13.2008 
  68   1.0000      -0.477995       -13.0069 
  69   1.0000      -0.477227       -12.9860 
  70   1.0000      -0.474017       -12.8987 
  71   1.0000      -0.469498       -12.7757 
  72   1.0000      -0.463918       -12.6239 
  73   1.0000      -0.460923       -12.5423 
  74   1.0000      -0.457976       -12.4622 
  75   1.0000      -0.457172       -12.4403 
  76   1.0000      -0.452880       -12.3235 
  77   1.0000      -0.449975       -12.2444 
  78   1.0000      -0.444285       -12.0896 
  79   1.0000      -0.439449       -11.9580 
  80   1.0000      -0.437993       -11.9184 
  81   1.0000      -0.435914       -11.8618 
  82   1.0000      -0.432916       -11.7803 
  83   1.0000      -0.431421       -11.7395 
  84   1.0000      -0.424238       -11.5441 
  85   1.0000      -0.412922       -11.2362 
  86   1.0000      -0.411559       -11.1991 
  87   1.0000      -0.399326       -10.8662 
  88   1.0000      -0.395785       -10.7699 
  89   1.0000      -0.384719       -10.4687 
  90   1.0000      -0.379665       -10.3312 
  91   1.0000      -0.345454        -9.4003 
  92   1.0000      -0.250420        -6.8143 
  93   1.0000      -0.238647        -6.4939 
  94   1.0000      -0.236737        -6.4419 
  95   0.0000      -0.126613        -3.4453 
  96   0.0000      -0.001109        -0.0302 
  97   0.0000       0.025610         0.6969 
  98   0.0000       0.041265         1.1229 
  99   0.0000       0.058043         1.5794 
 100   0.0000       0.082326         2.2402 
 101   0.0000       0.090695         2.4679 
 102   0.0000       0.108115         2.9420 
 103   0.0000       0.115150         3.1334 
 104   0.0000       0.120148         3.2694 
 105   0.0000       0.128940         3.5086 
*Only the first 10 virtual orbitals were printed.

                    ********************************
                    * MULLIKEN POPULATION ANALYSIS *
                    ********************************

--------------------------------------------
MULLIKEN ATOMIC CHARGES AND SPIN POPULATIONS
--------------------------------------------
   0 C :    0.143413    0.000110
   1 O :   -0.472028    0.000616
   2 O :   -0.486947    0.000101
   3 C :    0.339806    0.000922
   4 C :    0.322653    0.002393
   5 C :    0.336721    0.007193
   6 C :    0.369258    0.002136
   7 C :    0.107546    0.839082
   8 C :    0.356850   -0.025328
   9 C :    0.476036    0.028434
  10 F :   -0.211547   -0.000009
  11 F :   -0.219176    0.000137
  12 F :   -0.184049   -0.000055
  13 F :   -0.193017    0.000163
  14 F :   -0.182735    0.001115
  15 F :   -0.177860    0.002020
  16 F :   -0.180310    0.024806
  17 F :   -0.180521    0.002835
  18 F :   -0.143646    0.087158
  19 F :   -0.170338    0.011956
  20 F :   -0.169822    0.006341
  21 F :   -0.162765    0.000587
  22 F :   -0.157143    0.006244
  23 F :   -0.160378    0.001043
Sum of atomic charges         :   -1.0000000
Sum of atomic spin populations:    1.0000000

-----------------------------------------------------
MULLIKEN REDUCED ORBITAL CHARGES AND SPIN POPULATIONS
-----------------------------------------------------
CHARGE
  0 C s       :     3.049562  s :     3.049562
      pz      :     0.863992  p :     2.538296
      px      :     0.865783
      py      :     0.808521
      dz2     :     0.035091  d :     0.243948
      dxz     :     0.029894
      dyz     :     0.060287
      dx2y2   :     0.055053
      dxy     :     0.063622
      f0      :     0.003286  f :     0.024781
      f+1     :     0.001356
      f-1     :     0.003814
      f+2     :     0.004158
      f-2     :     0.003734
      f+3     :     0.003274
      f-3     :     0.005159

  1 O s       :     3.765252  s :     3.765252
      pz      :     1.515001  p :     4.677957
      px      :     1.636239
      py      :     1.526718
      dz2     :     0.006179  d :     0.027154
      dxz     :     0.003086
      dyz     :     0.007809
      dx2y2   :     0.004617
      dxy     :     0.005464
      f0      :     0.000169  f :     0.001664
      f+1     :     0.000040
      f-1     :     0.000455
      f+2     :     0.000312
      f-2     :     0.000302
      f+3     :     0.000208
      f-3     :     0.000178

  2 O s       :     3.765331  s :     3.765331
      pz      :     1.688830  p :     4.692966
      px      :     1.609652
      py      :     1.394484
      dz2     :     0.002881  d :     0.027005
      dxz     :     0.001222
      dyz     :     0.006717
      dx2y2   :     0.008308
      dxy     :     0.007876
      f0      :     0.000204  f :     0.001645
      f+1     :     0.000058
      f-1     :     0.000218
      f+2     :     0.000178
      f-2     :     0.000149
      f+3     :     0.000376
      f-3     :     0.000463

  3 C s       :     3.142490  s :     3.142490
      pz      :     0.721238  p :     2.244849
      px      :     0.883591
      py      :     0.640020
      dz2     :     0.049051  d :     0.246588
      dxz     :     0.043503
      dyz     :     0.061444
      dx2y2   :     0.042874
      dxy     :     0.049717
      f0      :     0.005578  f :     0.026268
      f+1     :     0.003357
      f-1     :     0.003929
      f+2     :     0.003644
      f-2     :     0.002665
      f+3     :     0.003198
      f-3     :     0.003897

  4 C s       :     3.147682  s :     3.147682
      pz      :     0.626111  p :     2.228333
      px      :     0.918806
      py      :     0.683416
      dz2     :     0.050821  d :     0.273748
      dxz     :     0.059175
      dyz     :     0.066955
      dx2y2   :     0.038473
      dxy     :     0.058324
      f0      :     0.004490  f :     0.027584
      f+1     :     0.003999
      f-1     :     0.007034
      f+2     :     0.003004
      f-2     :     0.002335
      f+3     :     0.003637
      f-3     :     0.003085

  5 C s       :     3.157504  s :     3.157504
      pz      :     0.627649  p :     2.198723
      px      :     0.855977
      py      :     0.715097
      dz2     :     0.067164  d :     0.279172
      dxz     :     0.056082
      dyz     :     0.058093
      dx2y2   :     0.044505
      dxy     :     0.053329
      f0      :     0.004761  f :     0.027881
      f+1     :     0.003448
      f-1     :     0.006101
      f+2     :     0.004251
      f-2     :     0.003565
      f+3     :     0.002598
      f-3     :     0.003158

  6 C s       :     3.090968  s :     3.090968
      pz      :     0.597718  p :     2.225191
      px      :     0.887476
      py      :     0.739997
      dz2     :     0.071300  d :     0.287011
      dxz     :     0.066995
      dyz     :     0.052577
      dx2y2   :     0.040250
      dxy     :     0.055888
      f0      :     0.005705  f :     0.027572
      f+1     :     0.003261
      f-1     :     0.004797
      f+2     :     0.004775
      f-2     :     0.004697
      f+3     :     0.002139
      f-3     :     0.002198

  7 C s       :     3.242621  s :     3.242621
      pz      :     0.795665  p :     2.482497
      px      :     0.876570
      py      :     0.810263
      dz2     :     0.030907  d :     0.149756
      dxz     :     0.040042
      dyz     :     0.017263
      dx2y2   :     0.026057
      dxy     :     0.035487
      f0      :     0.002465  f :     0.017580
      f+1     :     0.001706
      f-1     :     0.003161
      f+2     :     0.002534
      f-2     :     0.003360
      f+3     :     0.002618
      f-3     :     0.001736

  8 C s       :     3.085583  s :     3.085583
      pz      :     0.815021  p :     2.244344
      px      :     0.773907
      py      :     0.655416
      dz2     :     0.055598  d :     0.285513
      dxz     :     0.042931
      dyz     :     0.067436
      dx2y2   :     0.053696
      dxy     :     0.065851
      f0      :     0.002823  f :     0.027711
      f+1     :     0.004077
      f-1     :     0.003399
      f+2     :     0.005195
      f-2     :     0.003065
      f+3     :     0.005395
      f-3     :     0.003757

  9 C s       :     3.031339  s :     3.031339
      pz      :     0.799834  p :     2.108539
      px      :     0.623030
      py      :     0.685676
      dz2     :     0.061990  d :     0.343826
      dxz     :     0.063162
      dyz     :     0.066623
      dx2y2   :     0.069542
      dxy     :     0.082509
      f0      :     0.004616  f :     0.040259
      f+1     :     0.006254
      f-1     :     0.003515
      f+2     :     0.007721
      f-2     :     0.004062
      f+3     :     0.007337
      f-3     :     0.006753

 10 F s       :     3.908177  s :     3.908177
      pz      :     1.906117  p :     5.287377
      px      :     1.875833
      py      :     1.505426
      dz2     :     0.002194  d :     0.015328
      dxz     :     0.000400
      dyz     :     0.002932
      dx2y2   :     0.005367
      dxy     :     0.004434
      f0      :     0.000056  f :     0.000665
      f+1     :     0.000022
      f-1     :     0.000130
      f+2     :     0.000065
      f-2     :     0.000030
      f+3     :     0.000193
      f-3     :     0.000170

 11 F s       :     3.909725  s :     3.909725
      pz      :     1.538133  p :     5.293840
      px      :     1.861933
      py      :     1.893775
      dz2     :     0.006010  d :     0.014957
      dxz     :     0.004724
      dyz     :     0.002788
      dx2y2   :     0.000746
      dxy     :     0.000689
      f0      :     0.000192  f :     0.000654
      f+1     :     0.000216
      f-1     :     0.000112
      f+2     :     0.000059
      f-2     :     0.000062
      f+3     :     0.000007
      f-3     :     0.000005

 12 F s       :     3.912149  s :     3.912149
      pz      :     1.853185  p :     5.255011
      px      :     1.900815
      py      :     1.501012
      dz2     :     0.002046  d :     0.016186
      dxz     :     0.000608
      dyz     :     0.004273
      dx2y2   :     0.005424
      dxy     :     0.003836
      f0      :     0.000073  f :     0.000703
      f+1     :     0.000010
      f-1     :     0.000113
      f+2     :     0.000142
      f-2     :     0.000051
      f+3     :     0.000146
      f-3     :     0.000167

 13 F s       :     3.915092  s :     3.915092
      pz      :     1.472129  p :     5.261364
      px      :     1.893494
      py      :     1.895741
      dz2     :     0.007981  d :     0.015874
      dxz     :     0.004228
      dyz     :     0.003037
      dx2y2   :     0.000300
      dxy     :     0.000328
      f0      :     0.000314  f :     0.000687
      f+1     :     0.000198
      f-1     :     0.000130
      f+2     :     0.000020
      f-2     :     0.000023
      f+3     :     0.000001
      f-3     :     0.000002

 14 F s       :     3.918471  s :     3.918471
      pz      :     1.783773  p :     5.247296
      px      :     1.842945
      py      :     1.620578
      dz2     :     0.002166  d :     0.016266
      dxz     :     0.001871
      dyz     :     0.005001
      dx2y2   :     0.003308
      dxy     :     0.003921
      f0      :     0.000078  f :     0.000702
      f+1     :     0.000032
      f-1     :     0.000111
      f+2     :     0.000126
      f-2     :     0.000157
      f+3     :     0.000114
      f-3     :     0.000086

 15 F s       :     3.914608  s :     3.914608
      pz      :     1.528074  p :     5.246232
      px      :     1.875212
      py      :     1.842946
      dz2     :     0.006342  d :     0.016315
      dxz     :     0.004065
      dyz     :     0.004255
      dx2y2   :     0.000697
      dxy     :     0.000957
      f0      :     0.000201  f :     0.000704
      f+1     :     0.000166
      f-1     :     0.000191
      f+2     :     0.000053
      f-2     :     0.000082
      f+3     :     0.000006
      f-3     :     0.000006

 16 F s       :     3.913901  s :     3.913901
      pz      :     1.667292  p :     5.250208
      px      :     1.875235
      py      :     1.707682
      dz2     :     0.003090  d :     0.015529
      dxz     :     0.002487
      dyz     :     0.005837
      dx2y2   :     0.001959
      dxy     :     0.002156
      f0      :     0.000078  f :     0.000672
      f+1     :     0.000058
      f-1     :     0.000190
      f+2     :     0.000131
      f-2     :     0.000139
      f+3     :     0.000041
      f-3     :     0.000035

 17 F s       :     3.920754  s :     3.920754
      pz      :     1.573667  p :     5.242820
      px      :     1.906096
      py      :     1.763057
      dz2     :     0.004878  d :     0.016253
      dxz     :     0.002670
      dyz     :     0.005935
      dx2y2   :     0.001327
      dxy     :     0.001443
      f0      :     0.000130  f :     0.000694
      f+1     :     0.000068
      f-1     :     0.000263
      f+2     :     0.000108
      f-2     :     0.000094
      f+3     :     0.000017
      f-3     :     0.000013

 18 F s       :     3.919010  s :     3.919010
      pz      :     1.647631  p :     5.205729
      px      :     1.906550
      py      :     1.651548
      dz2     :     0.004580  d :     0.018139
      dxz     :     0.002101
      dyz     :     0.006525
      dx2y2   :     0.002977
      dxy     :     0.001956
      f0      :     0.000103  f :     0.000768
      f+1     :     0.000027
      f-1     :     0.000243
      f+2     :     0.000194
      f-2     :     0.000109
      f+3     :     0.000040
      f-3     :     0.000052

 19 F s       :     3.914859  s :     3.914859
      pz      :     1.881880  p :     5.238882
      px      :     1.888235
      py      :     1.468767
      dz2     :     0.002091  d :     0.015908
      dxz     :     0.000422
      dyz     :     0.003953
      dx2y2   :     0.006065
      dxy     :     0.003377
      f0      :     0.000070  f :     0.000690
      f+1     :     0.000008
      f-1     :     0.000121
      f+2     :     0.000121
      f-2     :     0.000031
      f+3     :     0.000136
      f-3     :     0.000203

 20 F s       :     3.914074  s :     3.914074
      pz      :     1.721040  p :     5.238975
      px      :     1.660893
      py      :     1.857041
      dz2     :     0.002822  d :     0.016074
      dxz     :     0.005849
      dyz     :     0.002105
      dx2y2   :     0.002697
      dxy     :     0.002600
      f0      :     0.000078  f :     0.000700
      f+1     :     0.000164
      f-1     :     0.000034
      f+2     :     0.000147
      f-2     :     0.000151
      f+3     :     0.000056
      f-3     :     0.000070

 21 F s       :     3.912826  s :     3.912826
      pz      :     1.885913  p :     5.232667
      px      :     1.882902
      py      :     1.463852
      dz2     :     0.002247  d :     0.016518
      dxz     :     0.000310
      dyz     :     0.004010
      dx2y2   :     0.006399
      dxy     :     0.003553
      f0      :     0.000073  f :     0.000754
      f+1     :     0.000011
      f-1     :     0.000136
      f+2     :     0.000121
      f-2     :     0.000027
      f+3     :     0.000161
      f-3     :     0.000224

 22 F s       :     3.911144  s :     3.911144
      pz      :     1.842266  p :     5.228651
      px      :     1.500841
      py      :     1.885544
      dz2     :     0.002194  d :     0.016588
      dxz     :     0.004841
      dyz     :     0.000532
      dx2y2   :     0.005722
      dxy     :     0.003298
      f0      :     0.000080  f :     0.000761
      f+1     :     0.000132
      f-1     :     0.000006
      f+2     :     0.000163
      f-2     :     0.000052
      f+3     :     0.000191
      f-3     :     0.000137

 23 F s       :     3.913584  s :     3.913584
      pz      :     1.664238  p :     5.229411
      px      :     1.715736
      py      :     1.849437
      dz2     :     0.003512  d :     0.016623
      dxz     :     0.005842
      dyz     :     0.002874
      dx2y2   :     0.002101
      dxy     :     0.002294
      f0      :     0.000093  f :     0.000759
      f+1     :     0.000193
      f-1     :     0.000066
      f+2     :     0.000138
      f-2     :     0.000171
      f+3     :     0.000044
      f-3     :     0.000054


SPIN
  0 C s       :    -0.000070  s :    -0.000070
      pz      :     0.000131  p :     0.000167
      px      :     0.000082
      py      :    -0.000046
      dz2     :     0.000013  d :     0.000008
      dxz     :    -0.000004
      dyz     :     0.000013
      dx2y2   :    -0.000011
      dxy     :    -0.000002
      f0      :    -0.000000  f :     0.000004
      f+1     :     0.000000
      f-1     :     0.000001
      f+2     :     0.000000
      f-2     :     0.000001
      f+3     :     0.000000
      f-3     :     0.000001

  1 O s       :     0.000022  s :     0.000022
      pz      :     0.000386  p :     0.000595
      px      :     0.000123
      py      :     0.000086
      dz2     :    -0.000001  d :    -0.000001
      dxz     :    -0.000000
      dyz     :     0.000000
      dx2y2   :    -0.000000
      dxy     :    -0.000000
      f0      :    -0.000000  f :    -0.000000
      f+1     :     0.000000
      f-1     :    -0.000000
      f+2     :    -0.000000
      f-2     :    -0.000000
      f+3     :    -0.000000
      f-3     :    -0.000000

  2 O s       :     0.000008  s :     0.000008
      pz      :     0.000065  p :     0.000093
      px      :    -0.000052
      py      :     0.000079
      dz2     :     0.000000  d :    -0.000000
      dxz     :    -0.000000
      dyz     :    -0.000000
      dx2y2   :    -0.000000
      dxy     :     0.000000
      f0      :    -0.000000  f :     0.000000
      f+1     :    -0.000000
      f-1     :     0.000000
      f+2     :     0.000000
      f-2     :     0.000000
      f+3     :     0.000000
      f-3     :     0.000000

  3 C s       :    -0.000016  s :    -0.000016
      pz      :     0.000001  p :     0.000892
      px      :     0.000669
      py      :     0.000222
      dz2     :    -0.000007  d :     0.000040
      dxz     :     0.000022
      dyz     :    -0.000004
      dx2y2   :     0.000015
      dxy     :     0.000015
      f0      :    -0.000000  f :     0.000005
      f+1     :    -0.000001
      f-1     :     0.000001
      f+2     :     0.000001
      f-2     :     0.000000
      f+3     :     0.000003
      f-3     :     0.000000

  4 C s       :    -0.000164  s :    -0.000164
      pz      :     0.000477  p :     0.002317
      px      :     0.001074
      py      :     0.000765
      dz2     :    -0.000001  d :     0.000220
      dxz     :     0.000007
      dyz     :     0.000005
      dx2y2   :     0.000155
      dxy     :     0.000053
      f0      :    -0.000000  f :     0.000021
      f+1     :     0.000000
      f-1     :    -0.000000
      f+2     :     0.000005
      f-2     :     0.000005
      f+3     :     0.000009
      f-3     :     0.000002

  5 C s       :    -0.001170  s :    -0.001170
      pz      :     0.001187  p :     0.007796
      px      :    -0.002401
      py      :     0.009010
      dz2     :    -0.000077  d :     0.000516
      dxz     :     0.000069
      dyz     :     0.000032
      dx2y2   :     0.000426
      dxy     :     0.000066
      f0      :     0.000010  f :     0.000052
      f+1     :     0.000001
      f-1     :    -0.000006
      f+2     :     0.000003
      f-2     :     0.000003
      f+3     :     0.000035
      f-3     :     0.000006

  6 C s       :    -0.013823  s :    -0.013823
      pz      :     0.005794  p :    -0.003707
      px      :    -0.019508
      py      :     0.010006
      dz2     :    -0.000190  d :     0.018260
      dxz     :     0.005776
      dyz     :     0.001249
      dx2y2   :     0.005272
      dxy     :     0.006154
      f0      :     0.000200  f :     0.001406
      f+1     :     0.000180
      f-1     :     0.000151
      f+2     :     0.000349
      f-2     :     0.000049
      f+3     :     0.000399
      f-3     :     0.000078

  7 C s       :     0.046769  s :     0.046769
      pz      :     0.342919  p :     0.789997
      px      :     0.060273
      py      :     0.386805
      dz2     :     0.001383  d :     0.004200
      dxz     :     0.001261
      dyz     :    -0.000252
      dx2y2   :     0.000444
      dxy     :     0.001364
      f0      :    -0.000231  f :    -0.001884
      f+1     :    -0.000093
      f-1     :    -0.000586
      f+2     :    -0.000418
      f-2     :    -0.000324
      f+3     :    -0.000147
      f-3     :    -0.000084

  8 C s       :    -0.013364  s :    -0.013364
      pz      :    -0.013640  p :    -0.036287
      px      :    -0.018437
      py      :    -0.004211
      dz2     :     0.006892  d :     0.022998
      dxz     :     0.007920
      dyz     :     0.003077
      dx2y2   :    -0.000461
      dxy     :     0.005570
      f0      :     0.000014  f :     0.001326
      f+1     :     0.000478
      f-1     :     0.000020
      f+2     :     0.000097
      f-2     :     0.000056
      f+3     :    -0.000007
      f-3     :     0.000667

  9 C s       :     0.007912  s :     0.007912
      pz      :     0.011272  p :     0.018402
      px      :     0.000938
      py      :     0.006192
      dz2     :     0.000077  d :     0.002074
      dxz     :     0.001061
      dyz     :     0.000225
      dx2y2   :     0.000799
      dxy     :    -0.000088
      f0      :    -0.000015  f :     0.000045
      f+1     :     0.000028
      f-1     :     0.000013
      f+2     :     0.000031
      f-2     :    -0.000010
      f+3     :    -0.000011
      f-3     :     0.000009

 10 F s       :     0.000014  s :     0.000014
      pz      :    -0.000002  p :    -0.000025
      px      :    -0.000009
      py      :    -0.000014
      dz2     :     0.000001  d :     0.000003
      dxz     :    -0.000000
      dyz     :     0.000000
      dx2y2   :     0.000002
      dxy     :     0.000000
      f0      :    -0.000000  f :     0.000000
      f+1     :     0.000000
      f-1     :     0.000000
      f+2     :     0.000000
      f-2     :     0.000000
      f+3     :     0.000000
      f-3     :     0.000000

 11 F s       :     0.000001  s :     0.000001
      pz      :    -0.000007  p :     0.000134
      px      :     0.000102
      py      :     0.000038
      dz2     :     0.000001  d :     0.000001
      dxz     :     0.000000
      dyz     :     0.000000
      dx2y2   :    -0.000000
      dxy     :    -0.000000
      f0      :     0.000000  f :     0.000000
      f+1     :     0.000000
      f-1     :     0.000000
      f+2     :     0.000000
      f-2     :    -0.000000
      f+3     :    -0.000000
      f-3     :    -0.000000

 12 F s       :    -0.000029  s :    -0.000029
      pz      :    -0.000016  p :    -0.000033
      px      :    -0.000008
      py      :    -0.000009
      dz2     :     0.000000  d :     0.000007
      dxz     :     0.000003
      dyz     :     0.000001
      dx2y2   :     0.000001
      dxy     :     0.000002
      f0      :    -0.000000  f :     0.000000
      f+1     :     0.000000
      f-1     :     0.000000
      f+2     :     0.000000
      f-2     :     0.000000
      f+3     :     0.000000
      f-3     :     0.000000

 13 F s       :     0.000005  s :     0.000005
      pz      :    -0.000025  p :     0.000154
      px      :     0.000079
      py      :     0.000101
      dz2     :     0.000001  d :     0.000003
      dxz     :     0.000001
      dyz     :     0.000000
      dx2y2   :     0.000001
      dxy     :     0.000000
      f0      :     0.000000  f :     0.000000
      f+1     :     0.000000
      f-1     :     0.000000
      f+2     :     0.000000
      f-2     :     0.000000
      f+3     :    -0.000000
      f-3     :    -0.000000

 14 F s       :     0.000750  s :     0.000750
      pz      :    -0.000010  p :     0.000261
      px      :     0.000212
      py      :     0.000059
      dz2     :     0.000019  d :     0.000100
      dxz     :    -0.000000
      dyz     :     0.000005
      dx2y2   :     0.000075
      dxy     :     0.000002
      f0      :     0.000000  f :     0.000004
      f+1     :    -0.000000
      f-1     :     0.000000
      f+2     :     0.000001
      f-2     :    -0.000000
      f+3     :    -0.000000
      f-3     :     0.000003

 15 F s       :     0.000038  s :     0.000038
      pz      :    -0.000232  p :     0.001957
      px      :     0.001000
      py      :     0.001189
      dz2     :     0.000017  d :     0.000024
      dxz     :     0.000003
      dyz     :     0.000002
      dx2y2   :     0.000000
      dxy     :     0.000002
      f0      :     0.000001  f :     0.000001
      f+1     :    -0.000000
[...]
  7:     27.16   0.000609    3.08  0.007001  (-0.055737 -0.016398 -0.060211)
  8:     37.50   0.000011    0.06  0.000091  (-0.005342 -0.007395 -0.002713)
  9:     46.67   0.000332    1.68  0.002222  ( 0.014451 -0.036549  0.026021)
 10:     50.24   0.000353    1.78  0.002191  ( 0.016681  0.041497  0.013803)
 11:     60.09   0.000004    0.02  0.000019  (-0.002399 -0.003042 -0.001964)
 12:     64.08   0.000101    0.51  0.000491  ( 0.005843 -0.021155  0.003033)
 13:     74.79   0.000528    2.67  0.002203  ( 0.010001 -0.039803  0.022767)
 14:    102.81   0.000320    1.62  0.000973  ( 0.017359 -0.009583  0.024075)
 15:    132.68   0.000703    3.55  0.001653  ( 0.038998 -0.011011  0.003363)
 16:    148.41   0.001301    6.57  0.002735  ( 0.048266 -0.018176  0.008652)
 17:    186.14   0.000925    4.68  0.001552  (-0.013191  0.005255 -0.036742)
 18:    187.80   0.000587    2.96  0.000975  ( 0.006646  0.009480  0.028996)
 19:    205.50   0.001323    6.69  0.002009  (-0.027640 -0.033251 -0.011799)
 20:    213.68   0.000450    2.28  0.000657  (-0.004747  0.011802  0.022263)
 21:    221.77   0.000501    2.53  0.000705  (-0.002519  0.006493 -0.025617)
 22:    245.74   0.000025    0.13  0.000032  ( 0.001798  0.001532 -0.005140)
 23:    249.30   0.000029    0.15  0.000036  (-0.001366  0.000618 -0.005829)
 24:    261.69   0.000352    1.78  0.000420  (-0.010081  0.000790 -0.017816)
 25:    280.56   0.000760    3.84  0.000845  ( 0.028746 -0.000947 -0.004259)
 26:    297.07   0.000057    0.29  0.000060  ( 0.004722  0.005852 -0.001947)
 27:    309.52   0.000210    1.06  0.000212  ( 0.012519 -0.004926 -0.005565)
 28:    335.90   0.000011    0.06  0.000011  ( 0.002684 -0.000666  0.001736)
 29:    342.58   0.000350    1.77  0.000319  (-0.010403  0.005439 -0.013466)
 30:    354.42   0.000192    0.97  0.000169  (-0.012548  0.000158 -0.003467)
 31:    359.33   0.000068    0.34  0.000059  (-0.004931  0.002749  0.005217)
 32:    368.61   0.000596    3.01  0.000505  (-0.022289  0.002779  0.000203)
 33:    371.59   0.000032    0.16  0.000027  (-0.004398  0.000523  0.002626)
 34:    409.82   0.000480    2.43  0.000365  (-0.016078 -0.009649  0.003729)
 35:    424.03   0.000505    2.55  0.000372  (-0.010689  0.015343 -0.004695)
 36:    456.34   0.000674    3.41  0.000461  ( 0.018685 -0.006431 -0.008389)
 37:    494.48   0.005390   27.24  0.003402  ( 0.057014 -0.011119  0.005255)
 38:    528.64   0.000409    2.07  0.000241  ( 0.013353 -0.007728  0.001820)
 39:    531.87   0.006748   34.10  0.003959  (-0.061128  0.012158  0.008657)
 40:    553.96   0.003908   19.75  0.002202  (-0.021332  0.035447 -0.022138)
 41:    572.06   0.005065   25.60  0.002763  (-0.047091 -0.019793  0.012403)
 42:    591.93   0.000284    1.43  0.000150  (-0.008041  0.009210 -0.000468)
 43:    599.14   0.004607   23.28  0.002400  (-0.047524 -0.003261 -0.011421)
 44:    627.94   0.004308   21.77  0.002141  ( 0.026149 -0.019469 -0.032834)
 45:    653.53   0.031170  157.52  0.014884  ( 0.121514  0.008887 -0.006250)
 46:    658.97   0.012571   63.53  0.005953  ( 0.073556 -0.013900 -0.018696)
 47:    708.73   0.001966    9.93  0.000866  (-0.022820  0.004869  0.017921)
 48:    729.06   0.008465   42.78  0.003623  ( 0.015544  0.022489  0.053630)
 49:    774.06   0.003117   15.75  0.001256  ( 0.028531 -0.008165 -0.019385)
 50:    793.09   0.020305  102.61  0.007989  ( 0.049331  0.018971 -0.072083)
 51:    881.02   0.012371   62.52  0.004382  ( 0.035739  0.030066  0.046909)
 52:    977.57   0.037075  187.36  0.011835  (-0.029665 -0.032671 -0.099437)
 53:   1043.59   0.011399   57.61  0.003409  (-0.046072 -0.030719 -0.018503)
 54:   1083.58   0.027789  140.44  0.008003  ( 0.049689  0.023834  0.070470)
 55:   1086.97   0.087386  441.61  0.025088  ( 0.021820  0.147703  0.052877)
 56:   1107.37   0.010665   53.90  0.003005  (-0.023965  0.031468  0.037959)
 57:   1112.30   0.039510  199.67  0.011085  ( 0.003232  0.006433  0.105038)
 58:   1124.12   0.057138  288.75  0.015862  ( 0.057861  0.106335 -0.034740)
 59:   1130.79   0.094781  478.98  0.026157  (-0.031069 -0.040672 -0.153418)
 60:   1141.70   0.112648  569.28  0.030790  (-0.081406  0.140400 -0.066716)
 61:   1154.52   0.022179  112.08  0.005995  ( 0.059257 -0.041376  0.027777)
 62:   1167.60   0.032756  165.54  0.008755  ( 0.025770 -0.083291  0.033959)
 63:   1175.36   0.093477  472.39  0.024818  ( 0.102647  0.086153 -0.082823)
 64:   1178.35   0.013441   67.92  0.003560  ( 0.007887 -0.030094  0.050909)
 65:   1244.46   0.003823   19.32  0.000959  ( 0.009664  0.015949  0.024719)
 66:   1264.81   0.001979   10.00  0.000488  ( 0.006730 -0.012594 -0.016864)
 67:   1277.03   0.026582  134.34  0.006496  ( 0.061988  0.012023  0.050087)
 68:   1326.60   0.011980   60.54  0.002818  ( 0.048854  0.015288 -0.014060)
 69:   1362.88   0.066708  337.11  0.015274  (-0.095921 -0.024296  0.074049)
 70:   1393.52   0.003466   17.52  0.000776  ( 0.014018 -0.015909  0.018073)
 71:   1730.31   0.161749  817.41  0.029172  ( 0.012615  0.157901  0.063873)

* The epsilon (eps) is given for a Dirac delta lineshape.
** The dipole moment derivative (T) already includes vibrational overlap.

The first frequency considered to be a vibration is 6
The total number of vibrations considered is 66


--------------------------
THERMOCHEMISTRY AT 298.15K
--------------------------

Temperature         ...   298.15 K
Pressure            ...     1.00 atm
Total Mass          ...   394.06 AMU
Quasi RRHO          ...     True
Cut-Off Frequency   ...     1.00 cm^-1

Throughout the following assumptions are being made:
  (1) The electronic state is orbitally nondegenerate
      but the spin degeneracy is treated
  (2) There are no thermally accessible electronically excited states
  (3) Hindered rotations indicated by low frequency modes are not
      treated as such but are treated as vibrations and this may
      cause some error
  (4) All equations used are the standard statistical mechanics
      equations for an ideal gas
  (5) All vibrations are strictly harmonic

freq.      22.88  E(vib)   ...       0.56 
freq.      27.16  E(vib)   ...       0.55 
freq.      37.50  E(vib)   ...       0.54 
freq.      46.67  E(vib)   ...       0.53 
freq.      50.24  E(vib)   ...       0.52 
freq.      60.09  E(vib)   ...       0.51 
freq.      64.08  E(vib)   ...       0.51 
freq.      74.79  E(vib)   ...       0.49 
freq.     102.81  E(vib)   ...       0.46 
freq.     132.68  E(vib)   ...       0.42 
freq.     148.41  E(vib)   ...       0.41 
freq.     186.14  E(vib)   ...       0.37 
freq.     187.80  E(vib)   ...       0.36 
freq.     205.50  E(vib)   ...       0.35 
freq.     213.68  E(vib)   ...       0.34 
freq.     221.77  E(vib)   ...       0.33 
freq.     245.74  E(vib)   ...       0.31 
freq.     249.30  E(vib)   ...       0.31 
freq.     261.69  E(vib)   ...       0.30 
freq.     280.56  E(vib)   ...       0.28 
freq.     297.07  E(vib)   ...       0.27 
freq.     309.52  E(vib)   ...       0.26 
freq.     335.90  E(vib)   ...       0.24 
freq.     342.58  E(vib)   ...       0.23 
freq.     354.42  E(vib)   ...       0.22 
freq.     359.33  E(vib)   ...       0.22 
freq.     368.61  E(vib)   ...       0.21 
freq.     371.59  E(vib)   ...       0.21 
freq.     409.82  E(vib)   ...       0.19 
freq.     424.03  E(vib)   ...       0.18 
freq.     456.34  E(vib)   ...       0.16 
freq.     494.48  E(vib)   ...       0.14 
freq.     528.64  E(vib)   ...       0.13 
freq.     531.87  E(vib)   ...       0.13 
freq.     553.96  E(vib)   ...       0.12 
freq.     572.06  E(vib)   ...       0.11 
freq.     591.93  E(vib)   ...       0.10 
freq.     599.14  E(vib)   ...       0.10 
freq.     627.94  E(vib)   ...       0.09 
freq.     653.53  E(vib)   ...       0.08 
freq.     658.97  E(vib)   ...       0.08 
freq.     708.73  E(vib)   ...       0.07 
freq.     729.06  E(vib)   ...       0.06 
freq.     774.06  E(vib)   ...       0.05 
freq.     793.09  E(vib)   ...       0.05 
freq.     881.02  E(vib)   ...       0.04 
freq.     977.57  E(vib)   ...       0.03 
freq.    1043.59  E(vib)   ...       0.02 
freq.    1083.58  E(vib)   ...       0.02 
freq.    1086.97  E(vib)   ...       0.02 
freq.    1107.37  E(vib)   ...       0.02 
freq.    1112.30  E(vib)   ...       0.01 
freq.    1124.12  E(vib)   ...       0.01 
freq.    1130.79  E(vib)   ...       0.01 
freq.    1141.70  E(vib)   ...       0.01 
freq.    1154.52  E(vib)   ...       0.01 
freq.    1167.60  E(vib)   ...       0.01 
freq.    1175.36  E(vib)   ...       0.01 
freq.    1178.35  E(vib)   ...       0.01 
freq.    1244.46  E(vib)   ...       0.01 
freq.    1264.81  E(vib)   ...       0.01 
freq.    1277.03  E(vib)   ...       0.01 
freq.    1326.60  E(vib)   ...       0.01 
freq.    1362.88  E(vib)   ...       0.01 
freq.    1393.52  E(vib)   ...       0.00 
freq.    1730.31  E(vib)   ...       0.00 

------------
INNER ENERGY
------------

The inner energy is: U= E(el) + E(ZPE) + E(vib) + E(rot) + E(trans)
    E(el)   - is the total energy from the electronic structure calculation
              = E(kin-el) + E(nuc-el) + E(el-el) + E(nuc-nuc)
    E(ZPE)  - the the zero temperature vibrational energy from the frequency calculation
    E(vib)  - the the finite temperature correction to E(ZPE) due to population
              of excited vibrational states
    E(rot)  - is the rotational thermal energy
    E(trans)- is the translational thermal energy

Summary of contributions to the inner energy U:
Electronic energy                ...  -1853.28531889 Eh
Zero point energy                ...      0.09256335 Eh      58.08 kcal/mol
Thermal vibrational correction   ...      0.01980269 Eh      12.43 kcal/mol
Thermal rotational correction    ...      0.00141627 Eh       0.89 kcal/mol
Thermal translational correction ...      0.00141627 Eh       0.89 kcal/mol
-----------------------------------------------------------------------
Total thermal energy                  -1853.17012030 Eh


Summary of corrections to the electronic energy:
(perhaps to be used in another calculation)
Total thermal correction                  0.02263523 Eh      14.20 kcal/mol
Non-thermal (ZPE) correction              0.09256335 Eh      58.08 kcal/mol
-----------------------------------------------------------------------
Total correction                          0.11519858 Eh      72.29 kcal/mol


--------
ENTHALPY
--------

The enthalpy is H = U + kB*T
                kB is Boltzmann's constant
Total thermal energy              ...  -1853.17012030 Eh 
Thermal Enthalpy correction       ...      0.00094421 Eh       0.59 kcal/mol
-----------------------------------------------------------------------
Total Enthalpy                    ...  -1853.16917609 Eh


Note: Only C1 symmetry has been detected, increase convergence thresholds 
      if your molecule has a higher symmetry. Symmetry factor of 1.0 is   
      used for the rotational entropy correction. 
 

Note: Rotational entropy computed according to Herzberg 
Infrared and Raman Spectra, Chapter V,1, Van Nostrand Reinhold, 1945 
Point Group:  C1, Symmetry Number:   1  
Rotational constants in cm-1:     0.017601     0.004572     0.004400 

Vibrational entropy computed according to the QRRHO of S. Grimme
Chem.Eur.J. 2012 18 9955 using a reference frequency of 100.0 cm-1


-------
ENTROPY
-------

The entropy contributions are T*S = T*(S(el)+S(vib)+S(rot)+S(trans))
     S(el)   - electronic entropy
     S(vib)  - vibrational entropy
     S(rot)  - rotational entropy
     S(trans)- translational entropy
The entropies will be listed as multiplied by the temperature to get
units of energy

Electronic entropy                ...      0.00065446 Eh      0.41 kcal/mol
Vibrational entropy               ...      0.03568661 Eh     22.39 kcal/mol
Rotational entropy                ...      0.01652308 Eh     10.37 kcal/mol
Translational entropy             ...      0.02081341 Eh     13.06 kcal/mol
-----------------------------------------------------------------------
Final entropy term                ...      0.07367756 Eh     46.23 kcal/mol

In case the symmetry of your molecule has not been determined correctly
or in case you have a reason to use a different symmetry number we print 
out the resulting rotational entropy values for sn=1,12:

 non-linear molecules -----------------------------------
|  sn= 1 | S(rot)=       0.01652308 Eh     10.37 kcal/mol|
|  sn= 2 | S(rot)=       0.01586863 Eh      9.96 kcal/mol|
|  sn= 3 | S(rot)=       0.01548579 Eh      9.72 kcal/mol|
|  sn= 4 | S(rot)=       0.01521417 Eh      9.55 kcal/mol|
|  sn= 5 | S(rot)=       0.01500348 Eh      9.41 kcal/mol|
|  sn= 6 | S(rot)=       0.01483134 Eh      9.31 kcal/mol|
|  sn= 7 | S(rot)=       0.01468579 Eh      9.22 kcal/mol|
|  sn= 8 | S(rot)=       0.01455971 Eh      9.14 kcal/mol|
|  sn= 9 | S(rot)=       0.01444851 Eh      9.07 kcal/mol|
|  sn=10 | S(rot)=       0.01434903 Eh      9.00 kcal/mol|
|  sn=11 | S(rot)=       0.01425904 Eh      8.95 kcal/mol|
|  sn=12 | S(rot)=       0.01417688 Eh      8.90 kcal/mol|
 linear molecules ---------------------------------------
|  Dinfh | S(rot)=       0.01044902 Eh      6.56 kcal/mol|
|  Cinfv | S(rot)=       0.01110348 Eh      6.97 kcal/mol|
 --------------------------------------------------------


-------------------
GIBBS FREE ENERGY
-------------------

The Gibbs free energy is G = H - T*S

Total enthalpy                    ...  -1853.16917609 Eh 
Total entropy correction          ...     -0.07367756 Eh    -46.23 kcal/mol
-----------------------------------------------------------------------
Final Gibbs free energy         ...  -1853.24285366 Eh

For completeness - the Gibbs free energy minus the electronic energy
G-E(el)                           ...      0.04246523 Eh     26.65 kcal/mol


Maximum memory used throughout the entire PROP-calculation: 524.0 MB

--------------------------------
SUGGESTED CITATIONS FOR THIS RUN
--------------------------------

Below you find a list of papers that are relevant to this ORCA run
We neither can nor want to force you to cite these papers, but we appreciate if you do
You receive ORCA, which is the product of decades of hard work by many enthusiastic individuals, for free
The only thing we kindly ask in return is that you cite our papers,
We deeply appreciate it, if you show your appreciation for ORCA by not just citing the generic ORCA reference.

Please note that relegating all ORCA citations to the supporting information does *not* help us.
SI sections are not indexed - citations you put there will not count into any citation statistics
But we need these citations in order to attract the funding resources that allow us to do what we are doing

Therefore, if you are a happy ORCA user, please consider citing a few of the papers listed below in the main body of your paper

In addition to the list printed below, the program has created the file rf_mecn_freq_B3L_C6_D_B.bibtex that contains the list in bibtex format
You can import this file easily into all common literature databanks and citation aid programs


List of essential papers. We consider these as the minimum necessary citations

  1. Neese,F.
     Software update: the ORCA program system, version 5.0
     WIRES Comput. Molec. Sci., 2022 12(1)e1606
     doi.org/10.1002/wcms.1606

List of papers to cite with high priority. The work reported in these papers was absolutely
necessary for this run to complete.
Our perspective: the developers of density functionals and basis sets usually get cited in chemistry papers
Good! But without the algorithms to do something with them, the functionals or basis sets would not do anything.
Hence, in our opinion, the algorithm design and method developments papers are equally worthy of getting cited

  1. Neese,F.
     An improvement of the resolution of the identity approximation for the formation of the Coulomb matrix
     J. Comp. Chem., 2003 24(14)1740-1747
     doi.org/10.1002/jcc.10318
  2. Neese,F.; Wennmohs,F.; Hansen,A.; Becker,U.
     Efficient, approximate and parallel Hartree-Fock and hybrid DFT calculations. A 'chain-of-spheres' algorithm for the Hartree-Fock exchange
     Chem. Phys., 2009 356(1-3)98-109
     doi.org/10.1016/j.chemphys.2008.10.036
  3. Bykov,D.; Petrenko,T.; Izsak,R.; Kossmann,S.; Becker,U.; Valeev,E.; Neese,F.
     Efficient implementation of the analytic second derivatives of Hartree-Fock and hybrid DFT energies: a detailed analysis of different approximations
     Molec. Phys., 2015 113 1961-1977
     doi.org/10.1080/00268976.2015.1025114
  4. Garcia-Rates,M.; Neese,F.
     Efficient implementation of the analytical second derivatives of hartree-fock and hybrid DFT energies within the framework of the conductor-like polarizable continuum model
     J. Comput. Chem., 2019 40 1816-1828
     doi.org/10.1002/jcc.25833
  5. Garcia-Rates,M.; Neese,F.
     Effect of the Solute Cavity on the Solvation Energy and its Derivatives within the Framework of the Gaussian Charge Scheme
     J. Comput. Chem., 2020 41 922-939
     doi.org/10.1002/jcc.26139
  6. Helmich-Paris,B.; de Souza,B.; Neese,F.; Izsák,R.
     An improved chain of spheres for exchange algorithm
     J. Chem. Phys., 2021 155 104109
     doi.org/doi: 10.1063/5.0058766.
  7. Neese,F.
     The SHARK Integral Generation and Digestion System
     J. Comp. Chem., 2022  1-16
     doi.org/10.1002/jcc.26942
  8. Grimme,S.; Antony,J.; Ehrlich,S.; Krieg,H.
     A consistent and accurate ab initio parametrization of density functional dispersion correction (DFT-D) for the 94 elements H-Pu
     J. Chem. Phys., 2010 132 154104
     doi.org/10.1063/1.3382344
  9. Grimme,S.; Ehrlich,S.; Goerigk,L.
     Effect of the damping function in dispersion corrected density functional theory
     J. Comput. Chem., 2011 32(7)1456-1465
     doi.org/10.1002/jcc.21759

List of suggested additional citations. These are papers that are important in the 'surrounding' of 
of this run, or papers that preceded the highly important papers. If you like your results we are grateful for a citation.

  1. Izsak,R.; Neese,F.
     An overlap fitted chain of spheres exchange method
     J. Chem. Phys., 2011 135 144105
     doi.org/10.1063/1.3646921
  2. Izsak,R.; Hansen,A.; Neese,F.
     The resolution of identity and chain of spheres approximations for the LPNO-CCSD singles Fock term
     Molec. Phys., 2012 110 2413-2417
     doi.org/10.1080/00268976.2012.687466
  3. Neese,F.
     The ORCA program system
     WIRES Comput. Molec. Sci., 2012 2(1)73-78
     doi.org/10.1002/wcms.81
  4. Izsak,R.; Neese,F.; Klopper,W.
     Robust fitting techniques in the chain of spheres approximation to the Fock exchange: The role of the complementary space
     J. Chem. Phys., 2013 139 
     doi.org/10.1063/1.4819264
  5. Neese,F.
     Software update: the ORCA program system, version 4.0
     WIRES Comput. Molec. Sci., 2018 8(1)1-6
     doi.org/10.1002/wcms.1327
  6. Neese,F.; Wennmohs,F.; Becker,U.; Riplinger,C.
     The ORCA quantum chemistry program package
     J. Chem. Phys., 2020 152 Art. No. L224108
     doi.org/10.1063/5.0004608

List of optional additional citations

  1. Neese,F.
     Approximate second-order SCF convergence for spin unrestricted wavefunctions
     Chem. Phys. Lett., 2000 325(1-3)93-98
     doi.org/10.1016/s0009-2614(00)00662-x

Timings for individual modules:

Sum of individual times          ...     1171.864 sec (=  19.531 min)
Startup calculation              ...        3.795 sec (=   0.063 min)   0.3 %
SCF iterations                   ...       92.146 sec (=   1.536 min)   7.9 %
Property integrals               ...      263.902 sec (=   4.398 min)  22.5 %
SCF Response                     ...      539.592 sec (=   8.993 min)  46.0 %
Property calculations            ...      272.429 sec (=   4.540 min)  23.2 %
                             ****ORCA TERMINATED NORMALLY****
TOTAL RUN TIME: 0 days 0 hours 19 minutes 32 seconds 624 msec
