
                                 *****************
                                 * O   R   C   A *
                                 *****************

                                            #,                                       
                                            ###                                      
                                            ####                                     
                                            #####                                    
                                            ######                                   
                                           ########,                                 
                                     ,,################,,,,,                         
                               ,,#################################,,                 
                          ,,##########################################,,             
                       ,#########################################, ''#####,          
                    ,#############################################,,   '####,        
                  ,##################################################,,,,####,       
                ,###########''''           ''''###############################       
              ,#####''   ,,,,##########,,,,          '''####'''          '####       
            ,##' ,,,,###########################,,,                        '##       
           ' ,,###''''                  '''############,,,                           
         ,,##''                                '''############,,,,        ,,,,,,###''
      ,#''                                            '''#######################'''  
     '                                                          ''''####''''         
             ,#######,   #######,   ,#######,      ##                                
            ,#'     '#,  ##    ##  ,#'     '#,    #''#        ,####,   ,####,        
            ##       ##  ##   ,#'  ##            #'  '#       #'       #'  '#        
            ##       ##  #######   ##           ,######,      #####,   #    #        
            '#,     ,#'  ##    ##  '#,     ,#' ,#      #,     #,   #   #,  ,#        
             '#######'   ##     ##  '#######'  #'      '#     '####' # '####'        



                #########################################################
                #                        -***-                          #
                #          Department of theory and spectroscopy        #
                #                                                       #
                #                      Frank Neese                      #
                #                                                       #
                #     Directorship, Architecture, Infrastructure        #
                #                    SHARK, DRIVERS                     #
                #        Core code/Algorithms in most modules           #
                #                                                       #
                #        Max Planck Institute fuer Kohlenforschung      #
                #                Kaiser Wilhelm Platz 1                 #
                #                 D-45470 Muelheim/Ruhr                 #
                #                      Germany                          #
                #                                                       #
                #                  All rights reserved                  #
                #                        -***-                          #
                #########################################################


                         Program Version 6.0.1  -  RELEASE   -


 With contributions from (in alphabetic order):
[Max-Planck-Institut fuer Kohlenforschung]                               
  Daniel Aravena         : Magnetic Suceptibility                        
  Michael Atanasov       : Ab Initio Ligand Field Theory (pilot matlab implementation)
  Alexander A. Auer      : GIAO ZORA, VPT2 properties, NMR spectrum      
  Ute Becker             : All parallelization in ORCA, NUMFREQ, NUMCALC 
  Giovanni Bistoni       : ED, misc. LED, open-shell LED, HFLD           
  Martin Brehm           : Molecular dynamics                            
  Dmytro Bykov           : pre 5.0 version of the SCF Hessian            
  Marcos Casanova-Páez   : Triplet and SCS-CIS(D). UHF-(DLPNO)-IP/EA/STEOM-CCSD. UHF-CVS-IP/STEOM-CCSD   
  Vijay G. Chilkuri      : MRCI spin determinant printing, contributions to CSF-ICE 
  Pauline Colinet        : FMM embedding                                 
  Dipayan Datta          : RHF DLPNO-CCSD density                        
  Achintya Kumar Dutta   : EOM-CC, STEOM-CC                              
  Nicolas Foglia         : Exact transition moments, OPA infrastructure, MCD improvements    
  Dmitry Ganyushin       : Spin-Orbit,Spin-Spin,Magnetic field MRCI      
  Miquel Garcia-Rates    : C-PCM and meta-GGA Hessian, CCSD/C-PCM, Gaussian charge scheme 
  Tiago L. C. Gouveia    : GS-ROHF, GS-ROCIS                             
  Yang Guo               : DLPNO-NEVPT2, F12-NEVPT2, CIM, IAO-localization        
  Andreas Hansen         : Spin unrestricted coupled pair/coupled cluster methods 
  Ingolf Harden          : AUTO-CI MPn and infrastructure                
  Benjamin Helmich-Paris : MC-RPA, TRAH-(SCF,CASSCF), AVAS, COSX integrals, SCF dyn. polar. 
  Lee Huntington         : MR-EOM, pCC                                   
  Robert Izsak           : Overlap fitted RIJCOSX, COSX-SCS-MP3, EOM     
  Riya Kayal             : Wick's Theorem for AUTO-CI, AUTO-CI UHF-CCSDT 
  Emily Kempfer          : AUTO-CI, RHF CISDT and CCSDT                  
  Christian Kollmar      : KDIIS, OOCD, Brueckner-CCSD(T), CCSD density, CASPT2, CASPT2-K, improved NEVPT2 
  Axel Koslowski         : Symmetry handling                             
  Simone Kossmann        : meta-GGA functionals, TD-DFT gradient, OOMP2, (MP2 Hessian; deprecated post 5.0) 
  Lucas Lang             : DCDCAS                                        
  Marvin Lechner         : AUTO-CI (C++ implementation), FIC-MRCC        
  Spencer Leger          : CASSCF response                               
  Dagmar Lenk            : GEPOL surface, SMD, ORCA-2-JSON               
  Dimitrios Liakos       : Extrapolation schemes; Compound Job, initial MDCI parallelization 
  Dimitrios Manganas     : Further ROCIS development; embedding schemes. LFT, Crystal Embedding 
  Dimitrios Pantazis     : SARC Basis sets                               
  Anastasios Papadopoulos: AUTO-CI, single reference methods and gradients 
  Taras Petrenko         : pre 6.0 DFT Hessian and TD-DFT gradient, (ASA, deprecated), ECA, 1-Electron XAS/XES, NRVS 
  Peter Pinski           : DLPNO-MP2, DLPNO-MP2 Gradient                 
  Christoph Reimann      : Effective Core Potentials                     
  Marius Retegan         : Local ZFS, SOC                                
  Christoph Riplinger    : Optimizer, TS searches, QM/MM, DLPNO-CCSD(T), (RO)-DLPNO pert. Triples 
  Michael Roemelt        : Original ROCIS implementation                 
  Masaaki Saitow         : Open-shell DLPNO-CCSD energy and density      
  Barbara Sandhoefer     : DKH picture change effects                    
  Kantharuban Sivalingam : CASSCF convergence/infrastructure, NEVPT2 and variants, FIC-MRCI 
  Bernardo de Souza      : ESD, SOC TD-DFT                               
  Georgi L. Stoychev     : AutoAux, RI-MP2 NMR, DLPNO-MP2 response, X2C  
  Van Anh Tran           : RI-MP2 g-tensors                              
  Willem Van den Heuvel  : Paramagnetic NMR                              
  Zikuan Wang            : NOTCH, Electric field optimization            
  Frank Wennmohs         : Technical directorship and infrastructure     
  Hang Xu                : AUTO-CI-Response properties                   
                                                                         
[FACCTs GmbH]                                                            
  Markus Bursch, Miquel Garcia-Rates, Christoph Riplinger, Bernardo de Souza, Georgi L. Stoychev 
                                                                 
  APM, Basis sets (HGBS, AHGBS, def-TZVP (Ac-Lr), def2-XVPD (La-Lu)), CI-OPT, improved COSX, DLPNO-Multilevel,           
  DOCKER, DRACO, updates on ESD, GOAT, IRC, LR-CPCM, MBIS, meta-GGA TD-DFT gradient, ML-optimized integration grids, 
  MM, NACMEs, nearIR, NEB, NEB-TS, NL-DFT gradient (VV10), 2- and 3-layer-ONIOM, interface openCOSMO-RS, QMMM,   
  Crystal-QMMM, SF, symmetry and pop. for TD-DFT, r2SCAN hybrids, SOLVATOR                                   
                                                                         
[Other institutions]                                                     
  V. Asgeirsson          : NEB                                           
  Christoph Bannwarth    : sTDA-DFT, sTD-DFT, PBEh-3c, B97-3c, D3        
  Sebastian Ehlert       : rSCAN, r2SCAN, r2SCAN-3c, D4, dhf basis sets  
  Marvin Friede          : D4 for Fr, Ra, Ac-Lr                          
  Lars Goerigk           : TD-DFT with DH, B97 family of functionals     
  Stefan Grimme          : VdW corrections, initial TS optimization, DFT functionals, gCP, sTDA/sTD-DF 
  Waldemar Hujo          : DFT-NL                                        
  H. Jonsson             : NEB                                           
  Holger Kruse           : gCP                                           
  Marcel Mueller         : wB97X-3c, vDZP basis set                      
  Hagen Neugebauer       : wr2SCAN                                       
  Tobias Risthaus        : range-separated hybrid DFT                    
  Lukas Wittmann         : regularized MP2, r2SCAN double-hybrids, wr2SCAN        
                                                                         
We gratefully acknowledge several colleagues who have allowed us to      
interface, adapt or use parts of their codes:                            
  Ed Valeev, F. Pavosevic, A. Kumar             : LibInt (2-el integral package), F12 methods 
  Garnet Chan, S. Sharma, J. Yang, R. Olivares  : DMRG                   
  Ulf Ekstrom                                   : XCFun DFT Library      
  Mihaly Kallay                                 : mrcc  (arbitrary order and MRCC methods)
  Frank Weinhold                                : gennbo (NPA and NBO analysis)           
  Simon Mueller                                 : openCOSMO-RS                            
  Christopher J. Cramer and Donald G. Truhlar   : smd solvation model                     
  S Lehtola, MJT Oliveira, MAL Marques          : LibXC Library                           
  Liviu Ungur et al                             : ANISO software                          


 Your calculation uses the libint2 library for the computation of 2-el integrals
 For citations please refer to: http://libint.valeyev.net

 Your ORCA version has been built with support for libXC version: 6.2.2
 For citations please refer to: https://libxc.gitlab.io

 This ORCA versions uses:
   CBLAS   interface :  Fast vector & matrix operations
   LAPACKE interface :  Fast linear algebra routines
   SCALAPACK package :  Parallel linear algebra routines
   Shared memory     :  Shared parallel matrices
   BLAS/LAPACK       :  OpenBLAS 0.3.27  USE64BITINT DYNAMIC_ARCH NO_AFFINITY SkylakeX SINGLE_THREADED
        Core in use  :  SkylakeX
   Copyright (c) 2011-2014, The OpenBLAS Project


NOTE: MaxCore=8000 MB was set to SCF,MP2,MDCI,CIPSI,MRCI and CIS
      => If you want to overwrite this, your respective input block should be placed after the MaxCore statement
Your calculation utilizes the atom-pairwise dispersion correction
with the Becke-Johnson damping scheme (D3BJ)


Your calculation utilizes the SMD solvation module
Please cite in your paper:
A.V. Marenich, C.J. Cramer, D.G. Truhlar J. Phys. Chem. B, 113, (2009), 6378 

Warning: RI is on but no J-basis has been assigned. Assigning Def2/J (nothing to worry about!)
================================================================================

----- Orbital basis set information -----
Your calculation utilizes the basis: def2-TZVP
   F. Weigend and R. Ahlrichs, Phys. Chem. Chem. Phys. 7, 3297 (2005).

----- AuxJ basis set information -----
Your calculation utilizes the auxiliary basis: def2/J
   F. Weigend, Phys. Chem. Chem. Phys. 8, 1057 (2006).

================================================================================
                                        WARNINGS
                       Please study these warnings very carefully!
================================================================================


WARNING: your system is open-shell and RHF/RKS was chosen
  ===> : WILL SWITCH to UHF/UKS


================================================================================
                                       INPUT FILE
================================================================================
NAME = rf_mecn_freq_B3L_C7_P_B.inp
|  1> !B3LYP def2-TZVP freq d3 TightSCF SlowConv defgrid2
|  2>  
|  3> %pal
|  4> nprocs 20
|  5> end
|  6>  
|  7> %scf
|  8> MaxIter 1500
|  9> end
| 10>  
| 11> %maxcore 8000
| 12>  
| 13> !CPCM
| 14> %cpcm smd true
| 15> SMDsolvent "ACETONITRILE"
| 16> end
| 17>  
| 18> * xyz 0 2
| 19> 6        4.673202000      0.153349000     -0.467994000
| 20> 8        5.018104000     -0.690531000     -1.427292000
| 21> 8        5.154093000      1.224364000     -0.234880000
| 22> 6        3.494965000     -0.408289000      0.377198000
| 23> 6        2.118286000      0.064288000     -0.190508000
| 24> 6        0.875235000     -0.660342000      0.432316000
| 25> 6       -0.469501000      0.111206000      0.200960000
| 26> 6       -1.763564000     -0.757000000      0.382756000
| 27> 6       -3.009906000      0.068036000      0.477768000
| 28> 6       -4.043784000      0.248400000     -0.592897000
| 29> 9        3.515513000     -1.759882000      0.400586000
| 30> 9        3.628343000      0.045382000      1.638633000
| 31> 9        2.015063000      1.392820000      0.022287000
| 32> 9        2.113357000     -0.159508000     -1.522112000
| 33> 9        0.781748000     -1.887480000     -0.118002000
| 34> 9        1.060273000     -0.799424000      1.759489000
| 35> 9       -0.528489000      1.133461000      1.079894000
| 36> 9       -0.488782000      0.617244000     -1.049969000
| 37> 9       -1.619440000     -1.485258000      1.520604000
| 38> 9       -1.865748000     -1.601872000     -0.667564000
| 39> 9       -3.293406000      0.572949000      1.660695000
| 40> 9       -4.907781000     -0.787605000     -0.653225000
| 41> 9       -4.761592000      1.352932000     -0.353448000
| 42> 9       -3.472862000      0.358962000     -1.801486000
| 43> 1        5.749994000     -0.306648000     -1.950814000
| 44> *
| 45> 
| 46>                          ****END OF INPUT****
================================================================================

                       ****************************
                       * Single Point Calculation *
                       ****************************

---------------------------------
CARTESIAN COORDINATES (ANGSTROEM)
---------------------------------
  C      4.673202    0.153349   -0.467994
  O      5.018104   -0.690531   -1.427292
  O      5.154093    1.224364   -0.234880
  C      3.494965   -0.408289    0.377198
  C      2.118286    0.064288   -0.190508
  C      0.875235   -0.660342    0.432316
  C     -0.469501    0.111206    0.200960
  C     -1.763564   -0.757000    0.382756
  C     -3.009906    0.068036    0.477768
  C     -4.043784    0.248400   -0.592897
  F      3.515513   -1.759882    0.400586
  F      3.628343    0.045382    1.638633
  F      2.015063    1.392820    0.022287
  F      2.113357   -0.159508   -1.522112
  F      0.781748   -1.887480   -0.118002
  F      1.060273   -0.799424    1.759489
  F     -0.528489    1.133461    1.079894
  F     -0.488782    0.617244   -1.049969
  F     -1.619440   -1.485258    1.520604
  F     -1.865748   -1.601872   -0.667564
  F     -3.293406    0.572949    1.660695
  F     -4.907781   -0.787605   -0.653225
  F     -4.761592    1.352932   -0.353448
  F     -3.472862    0.358962   -1.801486
  H      5.749994   -0.306648   -1.950814

----------------------------
CARTESIAN COORDINATES (A.U.)
----------------------------
  NO LB      ZA    FRAG     MASS         X           Y           Z
   0 C     6.0000    0    12.011    8.831072    0.289788   -0.884380
   1 O     8.0000    0    15.999    9.482842   -1.304914   -2.697191
   2 O     8.0000    0    15.999    9.739824    2.313713   -0.443859
   3 C     6.0000    0    12.011    6.604527   -0.771554    0.712801
   4 C     6.0000    0    12.011    4.002980    0.121487   -0.360008
   5 C     6.0000    0    12.011    1.653954   -1.247866    0.816959
   6 C     6.0000    0    12.011   -0.887228    0.210149    0.379759
   7 C     6.0000    0    12.011   -3.332653   -1.430523    0.723304
   8 C     6.0000    0    12.011   -5.687898    0.128569    0.902851
   9 C     6.0000    0    12.011   -7.641644    0.469408   -1.120413
  10 F     9.0000    0    18.998    6.643357   -3.325695    0.756998
  11 F     9.0000    0    18.998    6.856575    0.085760    3.096568
  12 F     9.0000    0    18.998    3.807917    2.632048    0.042116
  13 F     9.0000    0    18.998    3.993666   -0.301426   -2.876375
  14 F     9.0000    0    18.998    1.477290   -3.566820   -0.222991
  15 F     9.0000    0    18.998    2.003626   -1.510692    3.324952
  16 F     9.0000    0    18.998   -0.998699    2.141931    2.040704
  17 F     9.0000    0    18.998   -0.923664    1.166422   -1.984154
  18 F     9.0000    0    18.998   -3.060298   -2.806731    2.873525
  19 F     9.0000    0    18.998   -3.525753   -3.027099   -1.261513
  20 F     9.0000    0    18.998   -6.223635    1.082717    3.138259
  21 F     9.0000    0    18.998   -9.274362   -1.488358   -1.234416
  22 F     9.0000    0    18.998   -8.998105    2.556671   -0.667920
  23 F     9.0000    0    18.998   -6.562758    0.678340   -3.404315
  24 H     1.0000    0     1.008   10.865914   -0.579481   -3.686504

--------------------------------
INTERNAL COORDINATES (ANGSTROEM)
--------------------------------
 C      0   0   0     0.000000000000     0.00000000     0.00000000
 O      1   0   0     1.323383352173     0.00000000     0.00000000
 O      1   2   0     1.196942530409   127.37641549     0.00000000
 C      1   2   3     1.555001346648   111.17128712   179.39373836
 C      4   1   2     1.562326531941   111.15645798   268.10309946
 C      5   4   1     1.567856549713   114.48625115   169.31026580
 C      6   5   4     1.567522511716   113.20565704   161.91996263
 C      7   6   5     1.568894672061   114.71538021   161.33549382
 C      8   7   6     1.497691577864   112.88634741   166.30040270
 C      9   8   7     1.499252625012   126.50065183   104.71704690
 F      4   1   2     1.351951499314   111.03710482    29.35925620
 F      4   1   2     1.347154529499   108.19762037   148.44873291
 F      5   4   1     1.349419866008   107.93295488   291.35109994
 F      5   4   1     1.350288175714   108.14527147    48.62467466
 F      6   5   4     1.348131073500   108.27146548   283.09847613
 F      6   5   4     1.347208608975   109.27827765    41.12720382
 F      7   6   5     1.349447978073   108.31455928   281.94157732
 F      7   6   5     1.349544211001   109.48913076    40.21302973
 F      8   7   6     1.358613084378   107.82915823    45.46780753
 F      8   7   6     1.351821870159   108.55273260   287.65157633
 F      9   8   7     1.317051887701   116.57011816   277.28486410
 F     10   9   8     1.350346860484   112.38528819    80.74431220
 F     10   9   8     1.338870825543   109.95247246   200.23343202
 F     10   9   8     1.341217080434   111.09333317   320.66295964
 H      2   1   3     0.978317133793   109.43038310   359.71318983

---------------------------
INTERNAL COORDINATES (A.U.)
---------------------------
 C      0   0   0     0.000000000000     0.00000000     0.00000000
 O      1   0   0     2.500832105797     0.00000000     0.00000000
 O      1   2   0     2.261893580516   127.37641549     0.00000000
 C      1   2   3     2.938526683043   111.17128712   179.39373836
 C      4   1   2     2.952369277127   111.15645798   268.10309946
 C      5   4   1     2.962819496232   114.48625115   169.31026580
 C      6   5   4     2.962188255899   113.20565704   161.91996263
 C      7   6   5     2.964781263163   114.71538021   161.33549382
 C      8   7   6     2.830226915243   112.88634741   166.30040270
 C      9   8   7     2.833176866835   126.50065183   104.71704690
 F      4   1   2     2.554818080047   111.03710482    29.35925620
 F      4   1   2     2.545753120825   108.19762037   148.44873291
 F      5   4   1     2.550033986428   107.93295488   291.35109994
 F      5   4   1     2.551674853972   108.14527147    48.62467466
 F      6   5   4     2.547598521545   108.27146548   283.09847613
 F      6   5   4     2.545855316224   109.27827765    41.12720382
 F      7   6   5     2.550087110532   108.31455928   281.94157732
 F      7   6   5     2.550268964411   109.48913076    40.21302973
 F      8   7   6     2.567406651437   107.82915823    45.46780753
 F      8   7   6     2.554573116446   108.55273260   287.65157633
 F      9   8   7     2.488867371920   116.57011816   277.28486410
 F     10   9   8     2.551785752114   112.38528819    80.74431220
 F     10   9   8     2.530099188972   109.95247246   200.23343202
 F     10   9   8     2.534532968158   111.09333317   320.66295964
 H      2   1   3     1.848751454992   109.43038310   359.71318983

---------------------
BASIS SET INFORMATION
---------------------
There are 4 groups of distinct atoms

 Group   1 Type C   : 11s6p2d1f contracted to 5s3p2d1f pattern {62111/411/11/1}
 Group   2 Type O   : 11s6p2d1f contracted to 5s3p2d1f pattern {62111/411/11/1}
 Group   3 Type F   : 11s6p2d1f contracted to 5s3p2d1f pattern {62111/411/11/1}
 Group   4 Type H   : 5s1p contracted to 3s1p pattern {311/1}

Atom   0C    basis set group =>   1
Atom   1O    basis set group =>   2
Atom   2O    basis set group =>   2
Atom   3C    basis set group =>   1
Atom   4C    basis set group =>   1
Atom   5C    basis set group =>   1
Atom   6C    basis set group =>   1
Atom   7C    basis set group =>   1
Atom   8C    basis set group =>   1
Atom   9C    basis set group =>   1
Atom  10F    basis set group =>   3
Atom  11F    basis set group =>   3
Atom  12F    basis set group =>   3
Atom  13F    basis set group =>   3
Atom  14F    basis set group =>   3
Atom  15F    basis set group =>   3
Atom  16F    basis set group =>   3
Atom  17F    basis set group =>   3
Atom  18F    basis set group =>   3
Atom  19F    basis set group =>   3
Atom  20F    basis set group =>   3
Atom  21F    basis set group =>   3
Atom  22F    basis set group =>   3
Atom  23F    basis set group =>   3
Atom  24H    basis set group =>   4
---------------------------------
AUXILIARY/J BASIS SET INFORMATION
---------------------------------
There are 4 groups of distinct atoms

 Group   1 Type C   : 12s5p4d2f1g contracted to 6s4p3d1f1g pattern {711111/2111/211/2/1}
 Group   2 Type O   : 12s5p4d2f1g contracted to 6s4p3d1f1g pattern {711111/2111/211/2/1}
 Group   3 Type F   : 12s5p4d2f1g contracted to 6s4p3d1f1g pattern {711111/2111/211/2/1}
 Group   4 Type H   : 5s2p1d contracted to 3s1p1d pattern {311/2/1}

Atom   0C    basis set group =>   1
Atom   1O    basis set group =>   2
Atom   2O    basis set group =>   2
Atom   3C    basis set group =>   1
Atom   4C    basis set group =>   1
Atom   5C    basis set group =>   1
Atom   6C    basis set group =>   1
Atom   7C    basis set group =>   1
Atom   8C    basis set group =>   1
Atom   9C    basis set group =>   1
Atom  10F    basis set group =>   3
Atom  11F    basis set group =>   3
Atom  12F    basis set group =>   3
Atom  13F    basis set group =>   3
Atom  14F    basis set group =>   3
Atom  15F    basis set group =>   3
Atom  16F    basis set group =>   3
Atom  17F    basis set group =>   3
Atom  18F    basis set group =>   3
Atom  19F    basis set group =>   3
Atom  20F    basis set group =>   3
Atom  21F    basis set group =>   3
Atom  22F    basis set group =>   3
Atom  23F    basis set group =>   3
Atom  24H    basis set group =>   4


           ************************************************************
           *        Program running with 20 parallel MPI-processes    *
           *              working on a common directory               *
           ************************************************************
------------------------------------------------------------------------------
                             ORCA STARTUP CALCULATIONS
                           -- RI-GTO INTEGRALS CHOSEN --
------------------------------------------------------------------------------
------------------------------------------------------------------------------
                   ___                                                        
                  /   \      - P O W E R E D   B Y -                         
                 /     \                                                     
                 |  |  |   _    _      __       _____    __    __             
                 |  |  |  | |  | |    /  \     |  _  \  |  |  /  |          
                  \  \/   | |  | |   /    \    | | | |  |  | /  /          
                 / \  \   | |__| |  /  /\  \   | |_| |  |  |/  /          
                |  |  |   |  __  | /  /__\  \  |    /   |      \           
                |  |  |   | |  | | |   __   |  |    \   |  |\   \          
                \     /   | |  | | |  |  |  |  | |\  \  |  | \   \       
                 \___/    |_|  |_| |__|  |__|  |_| \__\ |__|  \__/        
                                                                              
                      - O R C A' S   B I G   F R I E N D -                    
                                      &                                       
                       - I N T E G R A L  F E E D E R -                       
                                                                              
 v1 FN, 2020, v2 2021, v3 2022-2024                                           
------------------------------------------------------------------------------


----------------------
SHARK INTEGRAL PACKAGE
----------------------

Number of atoms                             ...     25
Number of basis functions                   ...    750
Number of shells                            ...    268
Maximum angular momentum                    ...      3
Integral batch strategy                     ... SHARK/LIBINT Hybrid
RI-J (if used) integral strategy            ... SPLIT-RIJ (Revised 2003 algorithm where possible)
Printlevel                                  ...      1
Contraction scheme used                     ... SEGMENTED contraction
Prescreening option                         ... SCHWARTZ
   Thresh                                   ... 2.500e-11
   Tcut                                     ... 2.500e-12
   Tpresel                                  ... 2.500e-12 
Coulomb Range Separation                    ... NOT USED
Exchange Range Separation                   ... NOT USED
Multipole approximations                    ... NOT USED
Finite Nucleus Model                        ... NOT USED
CABS basis                                  ... NOT available
Auxiliary Coulomb fitting basis             ... AVAILABLE
   # of basis functions in Aux-J            ...   1187
   # of shells in Aux-J                     ...    365
   Maximum angular momentum in Aux-J        ...      4
Auxiliary J/K fitting basis                 ... NOT available
Auxiliary Correlation fitting basis         ... NOT available
Auxiliary 'external' fitting basis          ... NOT available

Checking pre-screening integrals            ... done (  0.0 sec) Dimension = 268
Check shell pair data                       ... done (  0.0 sec)
Shell pair information
Shell pair cut-off parameter TPreSel        ...   2.5e-12
Total number of shell pairs                 ...     36046
Shell pairs after pre-screening             ...     22429
Total number of primitive shell pairs       ...    118872
Primitive shell pairs kept                  ...     47532
          la=0 lb=0:   4266 shell pairs
          la=1 lb=0:   6135 shell pairs
          la=1 lb=1:   2112 shell pairs
          la=2 lb=0:   3327 shell pairs
          la=2 lb=1:   2429 shell pairs
          la=2 lb=2:    686 shell pairs
          la=3 lb=0:   1524 shell pairs
          la=3 lb=1:   1174 shell pairs
          la=3 lb=2:    624 shell pairs
          la=3 lb=3:    152 shell pairs

Calculating one electron integrals          ... done (  0.0 sec)
Calculating RI/J V-Matrix + Cholesky decomp.... done (  0.1 sec)
Calculating Nuclear repulsion               ... done (  0.0 sec) ENN=   2655.366818045076 Eh

Diagonalization of the overlap matrix:
Smallest eigenvalue                        ... 6.604e-05
Time for diagonalization                   ...    0.138 sec
Threshold for overlap eigenvalues          ... 1.000e-07
Number of eigenvalues below threshold      ... 0
Time for construction of square roots      ...    0.057 sec
Total time needed                          ...    0.203 sec

-------------------
DFT GRID GENERATION
-------------------

General Integration Accuracy     IntAcc      ... 4.388
Radial Grid Type                 RadialGrid  ... OptM3 with GC (2021)
Angular Grid (max. ang.)         AngularGrid ... 4 (Lebedev-302)
Angular grid pruning method      GridPruning ... 4 (adaptive)
Weight generation scheme         WeightScheme... mBecke (2022)
Basis function cutoff            BFCut       ... 1.0000e-11
Integration weight cutoff        WCut        ... 1.0000e-14
Partially contracted basis set               ... off
Rotationally invariant grid construction     ... off
Angular grids for H and He will be reduced by one unit

Total number of grid points                  ...   148709
Total number of batches                      ...     2336
Average number of points per batch           ...       63
Average number of grid points per atom       ...     5948

--------------------
COSX GRID GENERATION
--------------------

GRIDX 1
-------
General Integration Accuracy     IntAcc      ... 3.816
Radial Grid Type                 RadialGrid  ... OptM3 with GC (2021)
Angular Grid (max. ang.)         AngularGrid ... 1 (Lebedev-50)
Angular grid pruning method      GridPruning ... 4 (adaptive)
Weight generation scheme         WeightScheme... mBecke (2022)
Basis function cutoff            BFCut       ... 1.0000e-11
Integration weight cutoff        WCut        ... 1.0000e-14
Partially contracted basis set               ... on
Rotationally invariant grid construction     ... off
Angular grids for H and He will be reduced by one unit

Total number of grid points                  ...    18687
Total number of batches                      ...      158
Average number of points per batch           ...      118
Average number of grid points per atom       ...      747
UseSFitting                                  ... on

GRIDX 2
-------
General Integration Accuracy     IntAcc      ... 4.020
Radial Grid Type                 RadialGrid  ... OptM3 with GC (2021)
Angular Grid (max. ang.)         AngularGrid ... 2 (Lebedev-110)
Angular grid pruning method      GridPruning ... 4 (adaptive)
Weight generation scheme         WeightScheme... mBecke (2022)
Basis function cutoff            BFCut       ... 1.0000e-11
Integration weight cutoff        WCut        ... 1.0000e-14
Partially contracted basis set               ... on
Rotationally invariant grid construction     ... off
Angular grids for H and He will be reduced by one unit

Total number of grid points                  ...    44063
Total number of batches                      ...      358
Average number of points per batch           ...      123
Average number of grid points per atom       ...     1763
UseSFitting                                  ... on

GRIDX 3
-------
General Integration Accuracy     IntAcc      ... 4.338
Radial Grid Type                 RadialGrid  ... OptM3 with GC (2021)
Angular Grid (max. ang.)         AngularGrid ... 3 (Lebedev-194)
Angular grid pruning method      GridPruning ... 4 (adaptive)
Weight generation scheme         WeightScheme... mBecke (2022)
Basis function cutoff            BFCut       ... 1.0000e-11
Integration weight cutoff        WCut        ... 1.0000e-14
Partially contracted basis set               ... on
Rotationally invariant grid construction     ... off
Angular grids for H and He will be reduced by one unit

Total number of grid points                  ...    97633
Total number of batches                      ...      775
Average number of points per batch           ...      125
Average number of grid points per atom       ...     3905
UseSFitting                                  ... on
Initializing property integral containers    ... done (  0.0 sec)

SHARK setup successfully completed in   3.8 seconds

Maximum memory used throughout the entire STARTUP-calculation: 57.4 MB


           ************************************************************
           *        Program running with 20 parallel MPI-processes    *
           *              working on a common directory               *
           ************************************************************
-------------------------------------------------------------------------------
                                 ORCA GUESS
                   Start orbitals & Density for SCF / CASSCF
-------------------------------------------------------------------------------

------------
SCF SETTINGS
------------
Hamiltonian:
 Density Functional     Method          .... DFT(GTOs)
 Exchange Functional    Exchange        .... B88
   X-Alpha parameter    XAlpha          ....  0.666667
   Becke's b parameter  XBeta           ....  0.004200
 Correlation Functional Correlation     .... LYP
 LDA part of GGA corr.  LDAOpt          .... VWN-5
 Gradients option       PostSCFGGA      .... off
 Hybrid DFT is turned on
   Fraction HF Exchange ScalHFX         ....  0.200000
   Scaling of DF-GGA-X  ScalDFX         ....  0.720000
   Scaling of DF-GGA-C  ScalDFC         ....  0.810000
   Scaling of DF-LDA-C  ScalLDAC        ....  1.000000
   Perturbative correction              ....  0.000000
   NL short-range parameter             ....  4.800000
 RI-approximation to the Coulomb term is turned on
   Number of AuxJ basis functions       .... 1187
   RIJ-COSX (HFX calculated with COS-X)).... on


General Settings:
 Integral files         IntName         .... rf_mecn_freq_B3L_C7_P_B
 Hartree-Fock type      HFTyp           .... UHF
 Total Charge           Charge          ....    0
 Multiplicity           Mult            ....    2
 Number of Electrons    NEL             ....  191
 Basis Dimension        Dim             ....  750
 Nuclear Repulsion      ENuc            ....   2655.3668180451 Eh

Convergence Acceleration:
 AO-DIIS                CNVDIIS         .... on
   Start iteration      DIISMaxIt       ....     0
   Startup error        DIISStart       ....  0.200000
   # of expansion vecs  DIISMaxEq       ....     5
   Bias factor          DIISBfac        ....   1.050
   Max. coefficient     DIISMaxC        ....  10.000
 MO-DIIS                CNVKDIIS        .... off
 Trust-Rad. Augm. Hess. CNVTRAH         .... auto
   Auto Start mean grad. ratio tolernc. ....  1.125000
   Auto Start start iteration           ....    50
   Auto Start num. interpolation iter.  ....    10
   Max. Number of Micro iterations      ....    24
   Max. Number of Macro iterations      .... Maxiter - #DIIS iter
   Number of Davidson start vectors     ....     2
   Converg. threshold    (grad. norm)   ....   1.000e-05
   Grad. Scal. Fac. for Micro threshold ....   0.100
   Minimum threshold for Micro iter.    ....   1.000e-02
   NR start threshold (gradient norm)   ....   1.000e-04
   Initial trust radius                 ....   0.400
   Minimum AH scaling param. (alpha)    ....   1.000
   Maximum AH scaling param. (alpha)    .... 1000.000
   Quad. conv. algorithm                .... NR
   White noise on init. David. guess    .... on
   Maximum white noise                  ....   0.010
   Pseudo random numbers                .... off
   Inactive MOs                         .... canonical
   Orbital update algorithm             .... Taylor
   Preconditioner                       .... Diag
   Full preconditioner red. dimension   ....   250
 SOSCF                  CNVSOSCF        .... on
   Start iteration      SOSCFMaxIt      ....   150
   Startup grad/error   SOSCFStart      ....  0.001000
   Hessian update       SOSCFHessUp     .... L-BFGS
 Level Shifting         CNVShift        .... on
   Level shift para.    LevelShift      ....    0.2500
   Turn off err/grad.   ShiftErr        ....    0.0000
 Zerner damping         CNVZerner       .... off
 Static damping         CNVDamp         .... on
   Fraction old density DampFac         ....    0.8500
   Max. Damping (<1)    DampMax         ....    0.9800
   Min. Damping (>=0)   DampMin         ....    0.0000
   Turn off err/grad.   DampErr         ....    0.0300

SCF Procedure:
 Maximum # iterations   MaxIter         ....  1500
 SCF integral mode      SCFMode         .... Direct
   Integral package                     .... SHARK and LIBINT hybrid scheme
 Reset frequency        DirectResetFreq ....    20
 Integral Threshold     Thresh          ....  2.500e-11 Eh
 Primitive CutOff       TCut            ....  2.500e-12 Eh

Convergence Tolerance:
 Convergence Check Mode ConvCheckMode   .... Total+1el-Energy
 Convergence forced     ConvForced      .... 0
 Energy Change          TolE            ....  1.000e-08 Eh
 1-El. energy change                    ....  1.000e-05 Eh
 Orbital Gradient       TolG            ....  1.000e-05
 Orbital Rotation angle TolX            ....  1.000e-05
 DIIS Error             TolErr          ....  5.000e-07

------------------------------
INITIAL GUESS: MODEL POTENTIAL
------------------------------
Loading Hartree-Fock densities                     ... done
Calculating cut-offs                               ... done
Initializing the effective Hamiltonian             ... done
Setting up the integral package (SHARK)            ... done
Starting the Coulomb interaction                   ... done (   0.2 sec)
Making the grid                                    ... done (   0.5 sec)
Mapping shells                                     ... done
Starting the XC term evaluation                    ... done (   0.2 sec)
  promolecular density results
     # of electrons  =    190.998310731
     EX              =   -198.634089245
     EC              =     -7.176896677
     EX+EC           =   -205.810985922
Transforming the Hamiltonian                       ... done (   0.1 sec)
Diagonalizing the Hamiltonian                      ... done (   0.1 sec)
Back transforming the eigenvectors                 ... done (   0.0 sec)
Now organizing SCF variables                       ... done
                      ------------------
                      INITIAL GUESS DONE (   1.1 sec)
                      ------------------
             **** ENERGY FILE WAS UPDATED (rf_mecn_freq_B3L_C7_P_B.en.tmp) ****
Finished Guess after   1.9 sec
Maximum memory used throughout the entire GUESS-calculation: 46.6 MB


           ************************************************************
           *        Program running with 20 parallel MPI-processes    *
           *              working on a common directory               *
           ************************************************************

-------------------------------------------------------------------------------------------
                                      ORCA LEAN-SCF
                              memory conserving SCF solver
-------------------------------------------------------------------------------------------

--------------------
CPCM SOLVATION MODEL
--------------------
CPCM parameters:
  Epsilon                                         ...      35.6880
  Refrac                                          ...       1.3442
  Rsolv                                           ...       1.3000
  Surface type                                    ... GAUSSIAN VDW
  Discretization scheme                           ... Constant charge density
    Threshold for H atoms                         ...       5.0000 (charges/Ang^2)
    Threshold for non-H atoms                     ...       5.0000 (charges/Ang^2)
  Epsilon function type                           ...         CPCM
Solvent:                                          ... ACETONITRILE
SMD-CDS solvent descriptors:
  Soln                                            ...       1.3442
  Soln25                                          ...       1.3416
  Sola                                            ...       0.0700
  Solb                                            ...       0.3200
  Solg                                            ...      41.2500
  Solc                                            ...       0.0000
  Solh                                            ...       0.0000
Radii:
  Scheme                                          ... Element-dependent radii
  Radius for C  used is    3.4960 Bohr (=   1.8500 Ang.)
  Radius for O  used is    4.0969 Bohr (=   2.1680 Ang.)
  Radius for F  used is    3.2692 Bohr (=   1.7300 Ang.)
  Radius for H  used is    2.2677 Bohr (=   1.2000 Ang.)
Calculating surface                               ...        done! (  0.0s)
Cavity surface points                             ...         2164
Cavity Volume                                     ...    2104.9096
Cavity Surface-area                               ...    1103.5263
Calculating surface distance matrix               ...        done! (  0.0s)
Performing Cholesky decomposition & store         ...        done! (  0.1s)
Overall time for CPCM initialization              ...                 0.2s

----------------------------------------D-I-I-S--------------------------------------------
Iteration    Energy (Eh)           Delta-E    RMSDP     MaxDP     DIISErr   Damp  Time(sec)
-------------------------------------------------------------------------------------------
               ***  Starting incremental Fock matrix formation  ***
    1    -1853.2302697142981742     0.00e+00  1.91e-04  1.43e-02  1.49e-01  0.850   7.1
Warning: op=1 Small HOMO/LUMO gap (   0.068) - skipping pre-diagonalization
         Will do a full diagonalization
    2    -1853.3739632076999442    -1.44e-01  1.85e-04  1.25e-02  1.00e-01  0.850   4.9
                               ***Turning on AO-DIIS***
    3    -1853.4516173490969777    -7.77e-02  8.42e-05  4.92e-03  5.78e-02  0.850   4.9
    4    -1853.4984723653738001    -4.69e-02  4.89e-05  2.55e-03  4.42e-02  0.850   4.4
    5    -1853.5319463340933908    -3.35e-02  3.63e-05  2.39e-03  3.78e-02  0.850   4.2
    6    -1853.5585795758556742    -2.66e-02  3.17e-05  2.68e-03  3.29e-02  0.850   4.1
    7    -1853.5807911891529329    -2.22e-02  2.95e-05  2.68e-03  2.80e-02  0.850   3.9
    8    -1853.5995378682760020    -1.87e-02  1.72e-04  1.61e-02  2.29e-02  0.000   4.1
    9    -1853.6965676185632219    -9.70e-02  1.73e-05  1.55e-03  3.66e-03  0.000   4.3
   10    -1853.6967754462834819    -2.08e-04  7.66e-06  9.92e-04  1.50e-03  0.000   4.2
                              *** Initializing SOSCF ***
---------------------------------------S-O-S-C-F--------------------------------------
Iteration    Energy (Eh)           Delta-E    RMSDP     MaxDP     MaxGrad    Time(sec)
--------------------------------------------------------------------------------------
   11    -1853.6967992367221996    -2.38e-05  3.68e-06  4.58e-04  5.29e-04     4.1
               *** Restarting incremental Fock matrix formation ***
   12    -1853.6967975270504212     1.71e-06  2.78e-06  1.85e-04  1.78e-04     7.1
   13    -1853.6967977137505841    -1.87e-07  1.72e-06  1.29e-04  3.24e-04     4.6
   14    -1853.6967986472895973    -9.34e-07  1.02e-06  9.12e-05  6.29e-05     4.3
   15    -1853.6967986841750644    -3.69e-08  4.57e-07  5.60e-05  1.98e-05     4.0
   16    -1853.6967987253660795    -4.12e-08  1.26e-07  9.64e-06  3.03e-06     3.4
   17    -1853.6967987304310554    -5.06e-09  5.96e-08  4.12e-06  5.33e-06     3.3
                 **** Energy Check signals convergence ****

               *****************************************************
               *                     SUCCESS                       *
               *           SCF CONVERGED AFTER  17 CYCLES          *
               *****************************************************

Recomputing exchange energy using gridx3       ... done (    9.157 sec)
Old exchange energy                            :    -39.824354457 Eh
New exchange energy                            :    -39.824370235 Eh
Exchange energy change after final integration :     -0.000015778 Eh
Total energy after final integration           :  -1853.696814509 Eh

SMD CDS free energy correction energy :                 3.28384     Kcal/mol
Total Energy after SMD CDS correction =             -1853.691581373 Eh
             **** ENERGY FILE WAS UPDATED (rf_mecn_freq_B3L_C7_P_B.en.tmp) ****

----------------
TOTAL SCF ENERGY
----------------

Total Energy       :      -1853.69158137262161 Eh          -50441.51233 eV

Components:
Nuclear Repulsion  :       2655.36681804507634 Eh           72256.20455 eV
Electronic Energy  :      -4509.04928868696152 Eh         -122697.46896 eV
One Electron Energy:      -7861.38406014943394 Eh         -213919.13572 eV
Two Electron Energy:       3352.33477146247196 Eh           91221.66675 eV
CPCM Dielectric    :         -0.01432808854511 Eh              -0.38989 eV
SMD CDS (Gcds)     :          0.00523313605421 Eh               0.14240 eV

Virial components:
Potential Energy   :      -3701.07897400713318 Eh         -100711.47896 eV
Kinetic Energy     :       1847.38739263451134 Eh           50269.96663 eV
Virial Ratio       :          2.00341248877374

DFT components:
N(Alpha)           :       95.999980190182 electrons
N(Beta)            :       94.999972734882 electrons
N(Total)           :      190.999952925064 electrons
E(X)               :     -158.702822519164 Eh       
E(C)               :       -8.381487542995 Eh       
E(XC)              :     -167.084310062159 Eh       

CPCM Solvation Model Properties:
Surface-charge          :         -0.00928355012138
Corrected charge        :          0.00000000000000
Outlying charge corr.   :          0.00000473516774 Eh               0.00013 eV
Free-energy (cav+disp)  :          0.00523313605421 Eh               0.14240 eV

---------------
SCF CONVERGENCE
---------------

  Last Energy change         ...    5.0650e-09  Tolerance :   1.0000e-08
  Last MAX-Density change    ...    4.1191e-06  Tolerance :   1.0000e-07
  Last RMS-Density change    ...    5.9555e-08  Tolerance :   5.0000e-09
  Last DIIS Error            ...    5.2935e-04  Tolerance :   5.0000e-07
  Last Orbital Gradient      ...    5.3268e-06  Tolerance :   1.0000e-05
  Last Orbital Rotation      ...    6.2859e-06  Tolerance :   1.0000e-05


----------------------
UHF SPIN CONTAMINATION
----------------------

Warning: in a DFT calculation there is little theoretical justification to 
         calculate <S**2> as in Hartree-Fock theory. We will do it anyways
         but you should keep in mind that the values have only limited relevance

Expectation value of <S**2>     :     0.753991
Ideal value S*(S+1) for S=0.5   :     0.750000
Deviation                       :     0.003991

----------------
ORBITAL ENERGIES
----------------
                 SPIN UP ORBITALS
  NO   OCC          E(Eh)            E(eV) 
   0   1.0000     -24.758634      -673.7167 
   1   1.0000     -24.744157      -673.3227 
   2   1.0000     -24.743604      -673.3077 
   3   1.0000     -24.743324      -673.3001 
   4   1.0000     -24.743315      -673.2998 
   5   1.0000     -24.743165      -673.2958 
   6   1.0000     -24.742783      -673.2853 
   7   1.0000     -24.740397      -673.2204 
   8   1.0000     -24.738401      -673.1661 
   9   1.0000     -24.738129      -673.1587 
  10   1.0000     -24.737876      -673.1518 
  11   1.0000     -24.734905      -673.0710 
  12   1.0000     -24.733219      -673.0251 
  13   1.0000     -24.733127      -673.0226 
  14   1.0000     -19.207512      -522.6630 
  15   1.0000     -19.154663      -521.2249 
  16   1.0000     -10.459136      -284.6076 
  17   1.0000     -10.408894      -283.2404 
  18   1.0000     -10.407948      -283.2147 
  19   1.0000     -10.405852      -283.1576 
  20   1.0000     -10.405581      -283.1503 
  21   1.0000     -10.396596      -282.9058 
  22   1.0000     -10.346593      -281.5451 
  23   1.0000     -10.328707      -281.0584 
  24   1.0000      -1.341926       -36.5157 
  25   1.0000      -1.333708       -36.2920 
  26   1.0000      -1.319464       -35.9045 
  27   1.0000      -1.308517       -35.6066 
  28   1.0000      -1.305893       -35.5352 
  29   1.0000      -1.301474       -35.4149 
  30   1.0000      -1.296836       -35.2887 
  31   1.0000      -1.265001       -34.4224 
  32   1.0000      -1.257324       -34.2135 
  33   1.0000      -1.254407       -34.1342 
  34   1.0000      -1.250794       -34.0358 
  35   1.0000      -1.248534       -33.9743 
  36   1.0000      -1.247902       -33.9571 
  37   1.0000      -1.244293       -33.8589 
  38   1.0000      -1.146999       -31.2114 
  39   1.0000      -1.062841       -28.9214 
  40   1.0000      -0.857057       -23.3217 
  41   1.0000      -0.840967       -22.8839 
  42   1.0000      -0.812570       -22.1112 
  43   1.0000      -0.777375       -21.1535 
  44   1.0000      -0.739117       -20.1124 
  45   1.0000      -0.699182       -19.0257 
  46   1.0000      -0.679450       -18.4888 
  47   1.0000      -0.669217       -18.2103 
  48   1.0000      -0.647126       -17.6092 
  49   1.0000      -0.642958       -17.4958 
  50   1.0000      -0.637868       -17.3573 
  51   1.0000      -0.631333       -17.1794 
  52   1.0000      -0.627170       -17.0662 
  53   1.0000      -0.623391       -16.9633 
  54   1.0000      -0.614773       -16.7288 
  55   1.0000      -0.612930       -16.6787 
  56   1.0000      -0.610215       -16.6048 
  57   1.0000      -0.597818       -16.2675 
  58   1.0000      -0.594829       -16.1861 
  59   1.0000      -0.587659       -15.9910 
  60   1.0000      -0.581824       -15.8322 
  61   1.0000      -0.574292       -15.6273 
  62   1.0000      -0.538278       -14.6473 
  63   1.0000      -0.521123       -14.1805 
  64   1.0000      -0.512812       -13.9543 
  65   1.0000      -0.512540       -13.9469 
  66   1.0000      -0.505863       -13.7652 
  67   1.0000      -0.503327       -13.6962 
  68   1.0000      -0.498143       -13.5552 
  69   1.0000      -0.495486       -13.4828 
  70   1.0000      -0.491873       -13.3845 
  71   1.0000      -0.489349       -13.3159 
  72   1.0000      -0.487683       -13.2705 
  73   1.0000      -0.485507       -13.2113 
  74   1.0000      -0.478350       -13.0166 
  75   1.0000      -0.475561       -12.9407 
  76   1.0000      -0.472521       -12.8580 
  77   1.0000      -0.467353       -12.7173 
  78   1.0000      -0.466300       -12.6887 
  79   1.0000      -0.461648       -12.5621 
  80   1.0000      -0.456622       -12.4253 
  81   1.0000      -0.455576       -12.3968 
  82   1.0000      -0.453649       -12.3444 
  83   1.0000      -0.449552       -12.2329 
  84   1.0000      -0.446352       -12.1459 
  85   1.0000      -0.445511       -12.1230 
  86   1.0000      -0.442676       -12.0458 
  87   1.0000      -0.437645       -11.9089 
  88   1.0000      -0.436056       -11.8657 
  89   1.0000      -0.430090       -11.7033 
  90   1.0000      -0.417690       -11.3659 
  91   1.0000      -0.393025       -10.6948 
  92   1.0000      -0.361559        -9.8385 
  93   1.0000      -0.358117        -9.7449 
  94   1.0000      -0.318524        -8.6675 
  95   1.0000      -0.275035        -7.4841 
  96   0.0000      -0.052447        -1.4272 
  97   0.0000      -0.000455        -0.0124 
  98   0.0000       0.013366         0.3637 
  99   0.0000       0.031668         0.8617 
 100   0.0000       0.037619         1.0237 
 101   0.0000       0.057526         1.5654 
 102   0.0000       0.080979         2.2035 
 103   0.0000       0.093285         2.5384 
 104   0.0000       0.105040         2.8583 
 105   0.0000       0.119792         3.2597 
 106   0.0000       0.126044         3.4298 

                 SPIN DOWN ORBITALS
  NO   OCC          E(Eh)            E(eV) 
   0   1.0000     -24.753983      -673.5901 
   1   1.0000     -24.744123      -673.3218 
   2   1.0000     -24.743606      -673.3077 
   3   1.0000     -24.743324      -673.3001 
   4   1.0000     -24.743306      -673.2996 
   5   1.0000     -24.743119      -673.2945 
   6   1.0000     -24.742780      -673.2853 
   7   1.0000     -24.740064      -673.2114 
   8   1.0000     -24.737882      -673.1520 
   9   1.0000     -24.737835      -673.1507 
  10   1.0000     -24.737091      -673.1305 
  11   1.0000     -24.734905      -673.0710 
  12   1.0000     -24.733218      -673.0251 
  13   1.0000     -24.731754      -672.9852 
  14   1.0000     -19.207511      -522.6629 
  15   1.0000     -19.154659      -521.2248 
  16   1.0000     -10.459847      -284.6269 
  17   1.0000     -10.408811      -283.2381 
  18   1.0000     -10.408791      -283.2376 
  19   1.0000     -10.405540      -283.1491 
  20   1.0000     -10.405209      -283.1401 
  21   1.0000     -10.396582      -282.9054 
  22   1.0000     -10.346589      -281.5450 
  23   1.0000     -10.314227      -280.6644 
  24   1.0000      -1.340249       -36.4700 
  25   1.0000      -1.333494       -36.2862 
  26   1.0000      -1.318868       -35.8882 
  27   1.0000      -1.308109       -35.5955 
  28   1.0000      -1.304501       -35.4973 
  29   1.0000      -1.301322       -35.4108 
  30   1.0000      -1.288464       -35.0609 
  31   1.0000      -1.264845       -34.4182 
  32   1.0000      -1.256994       -34.2045 
  33   1.0000      -1.253474       -34.1088 
  34   1.0000      -1.250627       -34.0313 
  35   1.0000      -1.246919       -33.9304 
  36   1.0000      -1.246048       -33.9067 
  37   1.0000      -1.244289       -33.8588 
  38   1.0000      -1.146994       -31.2113 
  39   1.0000      -1.062835       -28.9212 
  40   1.0000      -0.849451       -23.1147 
  41   1.0000      -0.833664       -22.6851 
  42   1.0000      -0.806955       -21.9584 
  43   1.0000      -0.774323       -21.0704 
  44   1.0000      -0.737338       -20.0640 
  45   1.0000      -0.696097       -18.9418 
  46   1.0000      -0.675768       -18.3886 
  47   1.0000      -0.668996       -18.2043 
  48   1.0000      -0.645435       -17.5632 
  49   1.0000      -0.641414       -17.4537 
  50   1.0000      -0.636016       -17.3069 
  51   1.0000      -0.629581       -17.1318 
  52   1.0000      -0.626079       -17.0365 
  53   1.0000      -0.618444       -16.8287 
  54   1.0000      -0.614326       -16.7167 
  55   1.0000      -0.611535       -16.6407 
  56   1.0000      -0.609481       -16.5848 
  57   1.0000      -0.597128       -16.2487 
  58   1.0000      -0.593324       -16.1452 
  59   1.0000      -0.586402       -15.9568 
  60   1.0000      -0.580862       -15.8061 
  61   1.0000      -0.574040       -15.6204 
  62   1.0000      -0.521122       -14.1804 
  63   1.0000      -0.513164       -13.9639 
  64   1.0000      -0.512647       -13.9498 
  65   1.0000      -0.508149       -13.8274 
  66   1.0000      -0.504244       -13.7212 
  67   1.0000      -0.502249       -13.6669 
  68   1.0000      -0.495982       -13.4964 
  69   1.0000      -0.493558       -13.4304 
  70   1.0000      -0.491200       -13.3662 
  71   1.0000      -0.488346       -13.2886 
  72   1.0000      -0.485803       -13.2194 
  73   1.0000      -0.484241       -13.1769 
  74   1.0000      -0.477167       -12.9844 
  75   1.0000      -0.475252       -12.9323 
  76   1.0000      -0.471081       -12.8188 
  77   1.0000      -0.466516       -12.6946 
  78   1.0000      -0.463538       -12.6135 
  79   1.0000      -0.461099       -12.5471 
  80   1.0000      -0.455331       -12.3902 
  81   1.0000      -0.453927       -12.3520 
  82   1.0000      -0.452733       -12.3195 
  83   1.0000      -0.449153       -12.2221 
  84   1.0000      -0.445676       -12.1275 
  85   1.0000      -0.444956       -12.1079 
  86   1.0000      -0.442448       -12.0396 
  87   1.0000      -0.436832       -11.8868 
  88   1.0000      -0.434877       -11.8336 
  89   1.0000      -0.428332       -11.6555 
  90   1.0000      -0.414974       -11.2920 
  91   1.0000      -0.390912       -10.6373 
  92   1.0000      -0.361274        -9.8308 
  93   1.0000      -0.356451        -9.6995 
  94   1.0000      -0.318318        -8.6619 
  95   0.0000      -0.129851        -3.5334 
  96   0.0000      -0.051727        -1.4076 
  97   0.0000       0.001452         0.0395 
  98   0.0000       0.017566         0.4780 
  99   0.0000       0.034381         0.9356 
 100   0.0000       0.038374         1.0442 
 101   0.0000       0.063661         1.7323 
 102   0.0000       0.083346         2.2680 
 103   0.0000       0.094254         2.5648 
 104   0.0000       0.106309         2.8928 
 105   0.0000       0.122809         3.3418 
*Only the first 10 virtual orbitals were printed.

                    ********************************
                    * MULLIKEN POPULATION ANALYSIS *
                    ********************************

--------------------------------------------
MULLIKEN ATOMIC CHARGES AND SPIN POPULATIONS
--------------------------------------------
   0 C :    0.227478    0.000168
   1 O :   -0.347661    0.000012
   2 O :   -0.284609    0.000147
   3 C :    0.412375    0.000385
   4 C :    0.309832    0.002011
   5 C :    0.323849    0.004656
   6 C :    0.319068    0.030789
   7 C :    0.383881   -0.011997
   8 C :    0.138999    0.829672
   9 C :    0.491159   -0.008811
  10 F :   -0.177063    0.000005
  11 F :   -0.172140    0.000034
  12 F :   -0.171836    0.000028
  13 F :   -0.172243    0.000070
  14 F :   -0.169308   -0.000044
  15 F :   -0.168119    0.000211
  16 F :   -0.172186    0.000680
  17 F :   -0.173390    0.000498
  18 F :   -0.174592    0.014783
  19 F :   -0.171353    0.006045
  20 F :   -0.138107    0.090020
  21 F :   -0.169123    0.025647
  22 F :   -0.161528    0.005562
  23 F :   -0.164171    0.009410
  24 H :    0.380789    0.000021
Sum of atomic charges         :   -0.0000000
Sum of atomic spin populations:    1.0000000

-----------------------------------------------------
MULLIKEN REDUCED ORBITAL CHARGES AND SPIN POPULATIONS
-----------------------------------------------------
CHARGE
  0 C s       :     3.098888  s :     3.098888
      pz      :     0.774330  p :     2.390170
      px      :     0.842251
      py      :     0.773589
      dz2     :     0.042390  d :     0.258828
      dxz     :     0.031409
      dyz     :     0.069685
      dx2y2   :     0.057362
      dxy     :     0.057983
      f0      :     0.003536  f :     0.024636
      f+1     :     0.002111
      f-1     :     0.003474
      f+2     :     0.004019
      f-2     :     0.003735
      f+3     :     0.003139
      f-3     :     0.004623

  1 O s       :     3.766895  s :     3.766895
      pz      :     1.426766  p :     4.548488
      px      :     1.527827
      py      :     1.593894
      dz2     :     0.004217  d :     0.030516
      dxz     :     0.004831
      dyz     :     0.009378
      dx2y2   :     0.005245
      dxy     :     0.006845
      f0      :     0.000294  f :     0.001763
      f+1     :     0.000212
      f-1     :     0.000270
      f+2     :     0.000349
      f-2     :     0.000451
      f+3     :     0.000030
      f-3     :     0.000157

  2 O s       :     3.792948  s :     3.792948
      pz      :     1.598427  p :     4.459797
      px      :     1.522351
      py      :     1.339019
      dz2     :     0.003172  d :     0.030018
      dxz     :     0.002190
      dyz     :     0.007517
      dx2y2   :     0.009068
      dxy     :     0.008071
      f0      :     0.000212  f :     0.001846
      f+1     :     0.000078
      f-1     :     0.000263
      f+2     :     0.000191
      f-2     :     0.000239
      f+3     :     0.000323
      f-3     :     0.000541

  3 C s       :     3.063976  s :     3.063976
      pz      :     0.680398  p :     2.218895
      px      :     0.927176
      py      :     0.611321
      dz2     :     0.046931  d :     0.276993
      dxz     :     0.053124
      dyz     :     0.074448
      dx2y2   :     0.042972
      dxy     :     0.059518
      f0      :     0.006035  f :     0.027762
      f+1     :     0.004162
      f-1     :     0.003977
      f+2     :     0.004360
      f-2     :     0.001914
      f+3     :     0.005009
      f-3     :     0.002305

  4 C s       :     3.163821  s :     3.163821
      pz      :     0.637264  p :     2.213068
      px      :     0.930870
      py      :     0.644933
      dz2     :     0.047863  d :     0.285203
      dxz     :     0.060300
      dyz     :     0.076146
      dx2y2   :     0.041780
      dxy     :     0.059114
      f0      :     0.005193  f :     0.028076
      f+1     :     0.005020
      f-1     :     0.005905
      f+2     :     0.003141
      f-2     :     0.001472
      f+3     :     0.004839
      f-3     :     0.002508

  5 C s       :     3.151050  s :     3.151050
      pz      :     0.615454  p :     2.211726
      px      :     0.914055
      py      :     0.682217
      dz2     :     0.060434  d :     0.285290
      dxz     :     0.058705
      dyz     :     0.070974
      dx2y2   :     0.035936
      dxy     :     0.059241
      f0      :     0.004006  f :     0.028086
      f+1     :     0.004713
      f-1     :     0.008051
      f+2     :     0.002373
      f-2     :     0.002610
      f+3     :     0.003751
      f-3     :     0.002582

  6 C s       :     3.151462  s :     3.151462
      pz      :     0.579974  p :     2.215131
      px      :     0.927594
      py      :     0.707563
      dz2     :     0.073603  d :     0.286286
      dxz     :     0.061856
      dyz     :     0.057636
      dx2y2   :     0.035030
      dxy     :     0.058161
      f0      :     0.005037  f :     0.028053
      f+1     :     0.004379
      f-1     :     0.006269
      f+2     :     0.003239
      f-2     :     0.004422
      f+3     :     0.002546
      f-3     :     0.002160

  7 C s       :     3.076927  s :     3.076927
      pz      :     0.582400  p :     2.216831
      px      :     0.911615
      py      :     0.722816
      dz2     :     0.078729  d :     0.294636
      dxz     :     0.063033
      dyz     :     0.052848
      dx2y2   :     0.046890
      dxy     :     0.053137
      f0      :     0.005937  f :     0.027725
      f+1     :     0.003488
      f-1     :     0.004813
      f+2     :     0.004047
      f-2     :     0.005000
      f+3     :     0.002476
      f-3     :     0.001965

  8 C s       :     3.227157  s :     3.227157
      pz      :     0.665682  p :     2.473804
      px      :     0.883681
      py      :     0.924441
      dz2     :     0.036600  d :     0.142387
      dxz     :     0.045147
      dyz     :     0.025859
      dx2y2   :     0.015301
      dxy     :     0.019480
      f0      :     0.004393  f :     0.017653
      f+1     :     0.003276
      f-1     :     0.002565
      f+2     :     0.002331
      f-2     :     0.002532
      f+3     :     0.001255
      f-3     :     0.001303

  9 C s       :     3.005514  s :     3.005514
      pz      :     0.745204  p :     2.119978
      px      :     0.733087
      py      :     0.641687
      dz2     :     0.057234  d :     0.343507
      dxz     :     0.062298
      dyz     :     0.080311
      dx2y2   :     0.078529
      dxy     :     0.065135
      f0      :     0.007326  f :     0.039842
      f+1     :     0.003862
      f-1     :     0.005349
      f+2     :     0.002679
      f-2     :     0.007394
      f+3     :     0.004731
      f-3     :     0.008500

 10 F s       :     3.915741  s :     3.915741
      pz      :     1.894034  p :     5.244432
      px      :     1.907886
      py      :     1.442512
      dz2     :     0.002291  d :     0.016189
      dxz     :     0.000143
      dyz     :     0.003286
      dx2y2   :     0.006614
      dxy     :     0.003856
      f0      :     0.000056  f :     0.000701
      f+1     :     0.000012
      f-1     :     0.000145
      f+2     :     0.000095
      f-2     :     0.000005
      f+3     :     0.000152
      f-3     :     0.000236

 11 F s       :     3.913433  s :     3.913433
      pz      :     1.493103  p :     5.241591
      px      :     1.902539
      py      :     1.845948
      dz2     :     0.007002  d :     0.016394
      dxz     :     0.003625
      dyz     :     0.004585
      dx2y2   :     0.000613
      dxy     :     0.000569
      f0      :     0.000240  f :     0.000723
      f+1     :     0.000137
      f-1     :     0.000235
      f+2     :     0.000056
      f-2     :     0.000047
      f+3     :     0.000003
      f-3     :     0.000005

 12 F s       :     3.917039  s :     3.917039
      pz      :     1.882954  p :     5.237622
      px      :     1.904101
      py      :     1.450566
      dz2     :     0.002281  d :     0.016468
      dxz     :     0.000194
      dyz     :     0.003636
      dx2y2   :     0.006404
      dxy     :     0.003952
      f0      :     0.000064  f :     0.000707
      f+1     :     0.000012
      f-1     :     0.000137
      f+2     :     0.000112
      f-2     :     0.000012
      f+3     :     0.000153
      f-3     :     0.000216

 13 F s       :     3.916968  s :     3.916968
      pz      :     1.449119  p :     5.238098
      px      :     1.906939
      py      :     1.882040
      dz2     :     0.008461  d :     0.016470
      dxz     :     0.003870
      dyz     :     0.003673
      dx2y2   :     0.000285
      dxy     :     0.000181
      f0      :     0.000338  f :     0.000707
      f+1     :     0.000158
      f-1     :     0.000179
      f+2     :     0.000018
      f-2     :     0.000011
      f+3     :     0.000001
      f-3     :     0.000001

 14 F s       :     3.916588  s :     3.916588
      pz      :     1.821980  p :     5.235430
      px      :     1.904247
      py      :     1.509203
      dz2     :     0.002115  d :     0.016577
      dxz     :     0.000678
      dyz     :     0.005180
      dx2y2   :     0.005129
      dxy     :     0.003475
      f0      :     0.000080  f :     0.000713
      f+1     :     0.000004
      f-1     :     0.000123
      f+2     :     0.000184
      f-2     :     0.000057
      f+3     :     0.000117
      f-3     :     0.000148

 15 F s       :     3.916392  s :     3.916392
      pz      :     1.452755  p :     5.234385
      px      :     1.897256
      py      :     1.884374
      dz2     :     0.008490  d :     0.016626
      dxz     :     0.004114
      dyz     :     0.003495
      dx2y2   :     0.000257
      dxy     :     0.000269
      f0      :     0.000346  f :     0.000716
      f+1     :     0.000177
      f-1     :     0.000158
      f+2     :     0.000014
      f-2     :     0.000018
      f+3     :     0.000001
      f-3     :     0.000001

 16 F s       :     3.917057  s :     3.917057
      pz      :     1.707317  p :     5.237913
      px      :     1.905577
      py      :     1.625019
      dz2     :     0.002697  d :     0.016505
      dxz     :     0.001601
      dyz     :     0.006603
      dx2y2   :     0.003115
      dxy     :     0.002488
      f0      :     0.000080  f :     0.000710
      f+1     :     0.000013
      f-1     :     0.000193
      f+2     :     0.000200
      f-2     :     0.000103
      f+3     :     0.000058
      f-3     :     0.000063

 17 F s       :     3.918657  s :     3.918657
      pz      :     1.507763  p :     5.237549
      px      :     1.906250
      py      :     1.823535
      dz2     :     0.006708  d :     0.016479
      dxz     :     0.003293
      dyz     :     0.005017
      dx2y2   :     0.000678
      dxy     :     0.000784
      f0      :     0.000230  f :     0.000706
      f+1     :     0.000105
      f-1     :     0.000248
      f+2     :     0.000055
      f-2     :     0.000060
      f+3     :     0.000005
      f-3     :     0.000003

 18 F s       :     3.916715  s :     3.916715
      pz      :     1.583588  p :     5.241362
      px      :     1.903848
      py      :     1.753926
      dz2     :     0.004641  d :     0.015835
      dxz     :     0.002615
      dyz     :     0.005925
      dx2y2   :     0.001312
      dxy     :     0.001343
      f0      :     0.000125  f :     0.000680
      f+1     :     0.000064
      f-1     :     0.000256
      f+2     :     0.000110
      f-2     :     0.000094
      f+3     :     0.000017
      f-3     :     0.000015

 19 F s       :     3.918010  s :     3.918010
      pz      :     1.622824  p :     5.236382
      px      :     1.904915
      py      :     1.708643
      dz2     :     0.003821  d :     0.016261
      dxz     :     0.002226
      dyz     :     0.006495
      dx2y2   :     0.001909
      dxy     :     0.001811
      f0      :     0.000097  f :     0.000700
      f+1     :     0.000040
      f-1     :     0.000249
      f+2     :     0.000151
      f-2     :     0.000105
      f+3     :     0.000029
      f-3     :     0.000028

 20 F s       :     3.916915  s :     3.916915
      pz      :     1.536021  p :     5.202128
      px      :     1.872558
      py      :     1.793549
      dz2     :     0.006503  d :     0.018281
      dxz     :     0.004124
      dyz     :     0.005677
      dx2y2   :     0.001060
      dxy     :     0.000917
      f0      :     0.000210  f :     0.000784
      f+1     :     0.000151
      f-1     :     0.000237
      f+2     :     0.000088
      f-2     :     0.000082
      f+3     :     0.000008
      f-3     :     0.000008

 21 F s       :     3.910881  s :     3.910881
      pz      :     1.895086  p :     5.241714
      px      :     1.708358
      py      :     1.638270
      dz2     :     0.002324  d :     0.015808
      dxz     :     0.001606
      dyz     :     0.001887
      dx2y2   :     0.003376
      dxy     :     0.006614
      f0      :     0.000059  f :     0.000719
      f+1     :     0.000067
      f-1     :     0.000095
      f+2     :     0.000009
      f-2     :     0.000098
      f+3     :     0.000223
      f-3     :     0.000169

 22 F s       :     3.911253  s :     3.911253
      pz      :     1.883459  p :     5.233141
      px      :     1.760811
      py      :     1.588872
      dz2     :     0.002320  d :     0.016381
      dxz     :     0.001388
      dyz     :     0.002743
      dx2y2   :     0.003837
      dxy     :     0.006094
      f0      :     0.000071  f :     0.000752
      f+1     :     0.000050
      f-1     :     0.000101
      f+2     :     0.000032
      f-2     :     0.000115
      f+3     :     0.000236
      f-3     :     0.000147

 23 F s       :     3.912957  s :     3.912957
      pz      :     1.523892  p :     5.234203
      px      :     1.820770
      py      :     1.889541
      dz2     :     0.006331  d :     0.016271
      dxz     :     0.005586
      dyz     :     0.002778
      dx2y2   :     0.000755
      dxy     :     0.000821
      f0      :     0.000198  f :     0.000741
      f+1     :     0.000279
      f-1     :     0.000097
      f+2     :     0.000078
      f-2     :     0.000071
      f+3     :     0.000007
      f-3     :     0.000009

 24 H s       :     0.576068  s :     0.576068
      pz      :     0.014101  p :     0.043143
      px      :     0.017774
      py      :     0.011268


SPIN
  0 C s       :     0.000112  s :     0.000112
      pz      :     0.000034  p :     0.000044
      px      :    -0.000034
      py      :     0.000044
      dz2     :     0.000001  d :     0.000011
      dxz     :     0.000001
      dyz     :     0.000004
      dx2y2   :     0.000006
      dxy     :    -0.000000
      f0      :    -0.000000  f :     0.000001
      f+1     :     0.000000
      f-1     :     0.000000
      f+2     :    -0.000000
      f-2     :     0.000000
      f+3     :     0.000000
      f-3     :     0.000000

  1 O s       :    -0.000003  s :    -0.000003
      pz      :     0.000030  p :     0.000014
      px      :    -0.000007
      py      :    -0.000009
      dz2     :     0.000000  d :     0.000001
      dxz     :     0.000000
      dyz     :     0.000000
      dx2y2   :     0.000000
      dxy     :     0.000000
      f0      :     0.000000  f :     0.000000
      f+1     :     0.000000
      f-1     :     0.000000
      f+2     :     0.000000
      f-2     :     0.000000
      f+3     :    -0.000000
      f-3     :     0.000000

  2 O s       :     0.000007  s :     0.000007
      pz      :     0.000140  p :     0.000140
      px      :    -0.000028
      py      :     0.000028
      dz2     :    -0.000000  d :    -0.000001
      dxz     :    -0.000000
      dyz     :    -0.000000
      dx2y2   :    -0.000000
      dxy     :     0.000000
      f0      :    -0.000000  f :    -0.000000
      f+1     :    -0.000000
      f-1     :    -0.000000
      f+2     :    -0.000000
      f-2     :    -0.000000
      f+3     :     0.000000
      f-3     :     0.000000

  3 C s       :    -0.000160  s :    -0.000160
      pz      :     0.000048  p :     0.000474
      px      :     0.000326
      py      :     0.000100
      dz2     :     0.000001  d :     0.000069
      dxz     :     0.000003
      dyz     :    -0.000000
      dx2y2   :     0.000055
      dxy     :     0.000010
      f0      :     0.000000  f :     0.000002
      f+1     :     0.000000
      f-1     :    -0.000000
      f+2     :     0.000000
      f-2     :     0.000001
      f+3     :     0.000001
      f-3     :     0.000000

  4 C s       :    -0.000200  s :    -0.000200
      pz      :     0.000323  p :     0.001916
      px      :     0.000757
      py      :     0.000836
      dz2     :     0.000042  d :     0.000286
      dxz     :    -0.000001
      dyz     :     0.000007
      dx2y2   :     0.000199
      dxy     :     0.000040
      f0      :    -0.000001  f :     0.000009
      f+1     :     0.000000
      f-1     :    -0.000001
      f+2     :     0.000002
      f-2     :     0.000004
      f+3     :     0.000004
      f-3     :    -0.000000

  5 C s       :    -0.002143  s :    -0.002143
      pz      :     0.000263  p :     0.006133
      px      :     0.001753
      py      :     0.004117
      dz2     :     0.000070  d :     0.000641
      dxz     :    -0.000009
      dyz     :    -0.000005
      dx2y2   :     0.000565
      dxy     :     0.000020
      f0      :    -0.000002  f :     0.000024
      f+1     :     0.000001
      f-1     :     0.000000
      f+2     :     0.000001
      f-2     :     0.000000
      f+3     :     0.000024
      f-3     :    -0.000001

  6 C s       :    -0.002930  s :    -0.002930
      pz      :     0.001947  p :     0.030313
      px      :     0.016209
      py      :     0.012158
      dz2     :     0.000461  d :     0.003420
      dxz     :     0.000060
      dyz     :    -0.000035
      dx2y2   :     0.002420
      dxy     :     0.000513
      f0      :    -0.000010  f :    -0.000015
      f+1     :     0.000007
      f-1     :    -0.000009
      f+2     :    -0.000007
      f-2     :    -0.000001
      f+3     :     0.000014
      f-3     :    -0.000009

  7 C s       :    -0.010096  s :    -0.010096
      pz      :    -0.003564  p :    -0.025723
      px      :    -0.016148
      py      :    -0.006010
      dz2     :     0.001231  d :     0.022530
      dxz     :     0.001053
      dyz     :     0.000239
      dx2y2   :     0.016702
      dxy     :     0.003305
      f0      :     0.000070  f :     0.001293
      f+1     :     0.000050
      f-1     :     0.000145
      f+2     :     0.000015
      f-2     :     0.000039
      f+3     :     0.000923
      f-3     :     0.000051

  8 C s       :     0.045836  s :     0.045836
      pz      :     0.065479  p :     0.781400
      px      :     0.184400
      py      :     0.531521
      dz2     :     0.001133  d :     0.004336
      dxz     :     0.001613
      dyz     :     0.001868
      dx2y2   :     0.000330
      dxy     :    -0.000609
      f0      :    -0.000198  f :    -0.001900
      f+1     :    -0.000150
      f-1     :    -0.000365
      f+2     :    -0.000224
      f-2     :    -0.000221
      f+3     :    -0.000177
      f-3     :    -0.000565

  9 C s       :    -0.012373  s :    -0.012373
      pz      :    -0.011363  p :    -0.013242
      px      :    -0.009626
      py      :     0.007748
      dz2     :     0.002483  d :     0.015028
      dxz     :     0.000197
      dyz     :     0.003857
      dx2y2   :     0.001231
      dxy     :     0.007261
      f0      :     0.000122  f :     0.001776
      f+1     :     0.000082
      f-1     :     0.000231
      f+2     :     0.000266
      f-2     :     0.000697
      f+3     :     0.000228
      f-3     :     0.000150

 10 F s       :     0.000013  s :     0.000013
      pz      :     0.000001  p :    -0.000010
      px      :    -0.000002
      py      :    -0.000009
      dz2     :     0.000000  d :     0.000001
      dxz     :    -0.000000
      dyz     :     0.000000
      dx2y2   :     0.000000
      dxy     :     0.000001
      f0      :    -0.000000  f :     0.000000
      f+1     :     0.000000
      f-1     :     0.000000
      f+2     :     0.000000
      f-2     :     0.000000
      f+3     :     0.000000
      f-3     :     0.000000

 11 F s       :     0.000003  s :     0.000003
      pz      :    -0.000011  p :     0.000030
      px      :     0.000028
      py      :     0.000012
      dz2     :     0.000000  d :     0.000001
      dxz     :     0.000001
      dyz     :     0.000000
      dx2y2   :     0.000000
      dxy     :    -0.000000
      f0      :    -0.000000  f :     0.000000
      f+1     :     0.000000
      f-1     :     0.000000
      f+2     :    -0.000000
      f-2     :     0.000000
      f+3     :     0.000000
      f-3     :    -0.000000

 12 F s       :     0.000041  s :     0.000041
      pz      :     0.000011  p :    -0.000017
      px      :    -0.000001
      py      :    -0.000027
      dz2     :     0.000001  d :     0.000003
      dxz     :     0.000000
      dyz     :     0.000000
      dx2y2   :     0.000002
      dxy     :     0.000000
      f0      :    -0.000000  f :     0.000000
      f+1     :    -0.000000
      f-1     :     0.000000
      f+2     :     0.000000
      f-2     :     0.000000
      f+3     :     0.000000
      f-3     :     0.000000

 13 F s       :     0.000004  s :     0.000004
      pz      :    -0.000027  p :     0.000063
      px      :     0.000027
      py      :     0.000064
      dz2     :     0.000000  d :     0.000003
      dxz     :     0.000002
      dyz     :     0.000001
      dx2y2   :     0.000000
      dxy     :     0.000000
      f0      :     0.000000  f :     0.000000
      f+1     :     0.000000
      f-1     :     0.000000
      f+2     :     0.000000
      f-2     :     0.000000
      f+3     :     0.000000
      f-3     :    -0.000000

 14 F s       :    -0.000004  s :    -0.000004
      pz      :     0.000042  p :    -0.000051
      px      :     0.000009
      py      :    -0.000103
      dz2     :     0.000001  d :     0.000011
      dxz     :     0.000000
      dyz     :     0.000000
      dx2y2   :     0.000007
[...]
 11:     55.29   0.000384    1.94  0.002170  ( 0.032459 -0.013797  0.030424)
 12:     58.53   0.000038    0.19  0.000204  (-0.013667  0.000978 -0.003986)
 13:     70.20   0.000202    1.02  0.000899  ( 0.026083  0.013912  0.005005)
 14:     95.69   0.000022    0.11  0.000072  (-0.000665 -0.000808 -0.008408)
 15:    129.19   0.000184    0.93  0.000444  (-0.010902  0.013276  0.012223)
 16:    150.03   0.000425    2.15  0.000884  ( 0.025724  0.006524  0.013420)
 17:    166.67   0.000661    3.34  0.001237  ( 0.013304 -0.008565 -0.031409)
 18:    190.57   0.000033    0.16  0.000053  ( 0.001136 -0.007137 -0.001103)
 19:    198.82   0.001697    8.57  0.002663  ( 0.009275 -0.019631 -0.046814)
 20:    210.48   0.000568    2.87  0.000842  (-0.025413 -0.012124 -0.007035)
 21:    226.71   0.000244    1.24  0.000337  ( 0.016875 -0.006638  0.002771)
 22:    247.56   0.000098    0.49  0.000123  (-0.009258 -0.004242  0.004402)
 23:    248.32   0.000085    0.43  0.000107  ( 0.009198 -0.004634 -0.000826)
 24:    264.01   0.000324    1.64  0.000383  (-0.014301 -0.009902  0.008943)
 25:    271.55   0.000383    1.94  0.000440  ( 0.020005 -0.002434  0.005825)
 26:    303.46   0.000361    1.82  0.000371  (-0.016448  0.008847  0.004718)
 27:    309.26   0.000039    0.19  0.000039  ( 0.004710 -0.003095  0.002674)
 28:    323.16   0.000081    0.41  0.000079  ( 0.002241 -0.006196 -0.005924)
 29:    348.75   0.000232    1.17  0.000208  (-0.005203 -0.008812 -0.010158)
 30:    351.73   0.000102    0.51  0.000090  (-0.005819  0.002484  0.007082)
 31:    362.82   0.000203    1.02  0.000174  (-0.013130 -0.001265  0.000641)
 32:    373.92   0.000068    0.35  0.000057  ( 0.005382  0.005035 -0.001651)
 33:    375.55   0.000843    4.26  0.000701  ( 0.021778  0.014883  0.002226)
 34:    405.21   0.000498    2.51  0.000383  ( 0.018997  0.004295  0.001969)
 35:    427.28   0.002267   11.45  0.001655  (-0.039731  0.008678 -0.001247)
 36:    465.92   0.001517    7.67  0.001016  (-0.016513  0.020767  0.017671)
 37:    503.19   0.000395    2.00  0.000245  (-0.011897  0.009673 -0.003171)
 38:    517.79   0.006278   31.73  0.003784  ( 0.055433  0.003657 -0.026409)
 39:    546.21   0.006281   31.74  0.003588  ( 0.058571 -0.009825 -0.007833)
 40:    553.52   0.001369    6.92  0.000772  ( 0.012344 -0.020777  0.013706)
 41:    563.69   0.010402   52.57  0.005758  (-0.004490  0.055279 -0.051792)
 42:    579.07   0.005709   28.85  0.003077  ( 0.048724 -0.008202 -0.025207)
 43:    587.18   0.006423   32.46  0.003413  (-0.041065  0.011569 -0.039915)
 44:    604.47   0.004721   23.86  0.002437  ( 0.034393 -0.007809  0.034548)
 45:    627.22   0.008800   44.47  0.004378  (-0.044068 -0.008606  0.048603)
 46:    635.53   0.067183  339.51  0.032988  (-0.174026  0.044483 -0.026919)
 47:    668.54   0.001048    5.29  0.000489  ( 0.009653  0.006884 -0.018665)
 48:    697.49   0.011038   55.78  0.004939  ( 0.055830  0.006473  0.042187)
 49:    713.42   0.002010   10.16  0.000879  ( 0.025974  0.006827 -0.012571)
 50:    746.46   0.001748    8.83  0.000731  ( 0.022800  0.012393  0.007573)
 51:    776.29   0.010528   53.20  0.004232  ( 0.035307  0.019676 -0.050974)
 52:    876.41   0.003999   20.21  0.001424  ( 0.027906 -0.020194  0.015410)
 53:    999.20   0.022306  112.72  0.006966  ( 0.066795 -0.026490  0.042462)
 54:   1058.14   0.015616   78.92  0.004606  ( 0.043930  0.041570  0.030783)
 55:   1074.49   0.097193  491.17  0.028227  ( 0.065129  0.148707 -0.043268)
 56:   1119.78   0.022548  113.95  0.006284  ( 0.034595 -0.062346  0.034642)
 57:   1124.26   0.076992  389.09  0.021371  (-0.003542 -0.132782  0.061050)
 58:   1131.38   0.030419  153.73  0.008390  (-0.010516 -0.015050  0.089740)
 59:   1138.98   0.001395    7.05  0.000382  (-0.006624 -0.015384  0.010088)
 60:   1142.28   0.029136  147.24  0.007960  (-0.003440 -0.076773  0.045320)
 61:   1148.36   0.129890  656.41  0.035297  ( 0.014682 -0.096552 -0.160497)
 62:   1151.12   0.028653  144.80  0.007768  (-0.054874 -0.025381 -0.064127)
 63:   1157.51   0.205256  1037.28  0.055337  ( 0.033362 -0.116201 -0.201795)
 64:   1168.36   0.017404   87.96  0.004649  ( 0.012357 -0.060531 -0.028844)
 65:   1186.08   0.016112   81.43  0.004239  (-0.029822  0.021650  0.053677)
 66:   1205.48   0.001464    7.40  0.000379  (-0.005444 -0.015238  0.010820)
 67:   1216.04   0.009425   47.63  0.002419  (-0.032796  0.010242 -0.035188)
 68:   1261.61   0.001192    6.02  0.000295  (-0.001485 -0.014966 -0.008280)
 69:   1297.68   0.001294    6.54  0.000311  ( 0.010634  0.011419  0.008224)
 70:   1330.13   0.042877  216.68  0.010059  ( 0.071111 -0.053029  0.046801)
 71:   1396.73   0.026703  134.95  0.005966  ( 0.061124 -0.031592 -0.035099)
 72:   1415.03   0.009559   48.31  0.002108  ( 0.042568 -0.009738 -0.014185)
 73:   1822.65   0.094486  477.49  0.016177  ( 0.038699  0.110357  0.050010)
 74:   3612.63   0.051530  260.41  0.004451  (-0.048045 -0.004432  0.046079)

* The epsilon (eps) is given for a Dirac delta lineshape.
** The dipole moment derivative (T) already includes vibrational overlap.

The first frequency considered to be a vibration is 6
The total number of vibrations considered is 69


--------------------------
THERMOCHEMISTRY AT 298.15K
--------------------------

Temperature         ...   298.15 K
Pressure            ...     1.00 atm
Total Mass          ...   395.07 AMU
Quasi RRHO          ...     True
Cut-Off Frequency   ...     1.00 cm^-1

Throughout the following assumptions are being made:
  (1) The electronic state is orbitally nondegenerate
      but the spin degeneracy is treated
  (2) There are no thermally accessible electronically excited states
  (3) Hindered rotations indicated by low frequency modes are not
      treated as such but are treated as vibrations and this may
      cause some error
  (4) All equations used are the standard statistical mechanics
      equations for an ideal gas
  (5) All vibrations are strictly harmonic

freq.      14.59  E(vib)   ...       0.57 
freq.      20.18  E(vib)   ...       0.56 
freq.      25.00  E(vib)   ...       0.56 
freq.      35.47  E(vib)   ...       0.54 
freq.      43.17  E(vib)   ...       0.53 
freq.      55.29  E(vib)   ...       0.52 
freq.      58.53  E(vib)   ...       0.51 
freq.      70.20  E(vib)   ...       0.50 
freq.      95.69  E(vib)   ...       0.47 
freq.     129.19  E(vib)   ...       0.43 
freq.     150.03  E(vib)   ...       0.40 
freq.     166.67  E(vib)   ...       0.39 
freq.     190.57  E(vib)   ...       0.36 
freq.     198.82  E(vib)   ...       0.35 
freq.     210.48  E(vib)   ...       0.34 
freq.     226.71  E(vib)   ...       0.33 
freq.     247.56  E(vib)   ...       0.31 
freq.     248.32  E(vib)   ...       0.31 
freq.     264.01  E(vib)   ...       0.29 
freq.     271.55  E(vib)   ...       0.29 
freq.     303.46  E(vib)   ...       0.26 
freq.     309.26  E(vib)   ...       0.26 
freq.     323.16  E(vib)   ...       0.25 
freq.     348.75  E(vib)   ...       0.23 
freq.     351.73  E(vib)   ...       0.23 
freq.     362.82  E(vib)   ...       0.22 
freq.     373.92  E(vib)   ...       0.21 
freq.     375.55  E(vib)   ...       0.21 
freq.     405.21  E(vib)   ...       0.19 
freq.     427.28  E(vib)   ...       0.18 
freq.     465.92  E(vib)   ...       0.16 
freq.     503.19  E(vib)   ...       0.14 
freq.     517.79  E(vib)   ...       0.13 
freq.     546.21  E(vib)   ...       0.12 
freq.     553.52  E(vib)   ...       0.12 
freq.     563.69  E(vib)   ...       0.11 
freq.     579.07  E(vib)   ...       0.11 
freq.     587.18  E(vib)   ...       0.10 
freq.     604.47  E(vib)   ...       0.10 
freq.     627.22  E(vib)   ...       0.09 
freq.     635.53  E(vib)   ...       0.09 
freq.     668.54  E(vib)   ...       0.08 
freq.     697.49  E(vib)   ...       0.07 
freq.     713.42  E(vib)   ...       0.07 
freq.     746.46  E(vib)   ...       0.06 
freq.     776.29  E(vib)   ...       0.05 
freq.     876.41  E(vib)   ...       0.04 
freq.     999.20  E(vib)   ...       0.02 
freq.    1058.14  E(vib)   ...       0.02 
freq.    1074.49  E(vib)   ...       0.02 
freq.    1119.78  E(vib)   ...       0.01 
freq.    1124.26  E(vib)   ...       0.01 
freq.    1131.38  E(vib)   ...       0.01 
freq.    1138.98  E(vib)   ...       0.01 
freq.    1142.28  E(vib)   ...       0.01 
freq.    1148.36  E(vib)   ...       0.01 
freq.    1151.12  E(vib)   ...       0.01 
freq.    1157.51  E(vib)   ...       0.01 
freq.    1168.36  E(vib)   ...       0.01 
freq.    1186.08  E(vib)   ...       0.01 
freq.    1205.48  E(vib)   ...       0.01 
freq.    1216.04  E(vib)   ...       0.01 
freq.    1261.61  E(vib)   ...       0.01 
freq.    1297.68  E(vib)   ...       0.01 
freq.    1330.13  E(vib)   ...       0.01 
freq.    1396.73  E(vib)   ...       0.00 
freq.    1415.03  E(vib)   ...       0.00 
freq.    1822.65  E(vib)   ...       0.00 
freq.    3612.63  E(vib)   ...       0.00 

------------
INNER ENERGY
------------

The inner energy is: U= E(el) + E(ZPE) + E(vib) + E(rot) + E(trans)
    E(el)   - is the total energy from the electronic structure calculation
              = E(kin-el) + E(nuc-el) + E(el-el) + E(nuc-nuc)
    E(ZPE)  - the the zero temperature vibrational energy from the frequency calculation
    E(vib)  - the the finite temperature correction to E(ZPE) due to population
              of excited vibrational states
    E(rot)  - is the rotational thermal energy
    E(trans)- is the translational thermal energy

Summary of contributions to the inner energy U:
Electronic energy                ...  -1853.73447753 Eh
Zero point energy                ...      0.10507700 Eh      65.94 kcal/mol
Thermal vibrational correction   ...      0.02017756 Eh      12.66 kcal/mol
Thermal rotational correction    ...      0.00141627 Eh       0.89 kcal/mol
Thermal translational correction ...      0.00141627 Eh       0.89 kcal/mol
-----------------------------------------------------------------------
Total thermal energy                  -1853.60639043 Eh


Summary of corrections to the electronic energy:
(perhaps to be used in another calculation)
Total thermal correction                  0.02301010 Eh      14.44 kcal/mol
Non-thermal (ZPE) correction              0.10507700 Eh      65.94 kcal/mol
-----------------------------------------------------------------------
Total correction                          0.12808710 Eh      80.38 kcal/mol


--------
ENTHALPY
--------

The enthalpy is H = U + kB*T
                kB is Boltzmann's constant
Total thermal energy              ...  -1853.60639043 Eh 
Thermal Enthalpy correction       ...      0.00094421 Eh       0.59 kcal/mol
-----------------------------------------------------------------------
Total Enthalpy                    ...  -1853.60544623 Eh


Note: Only C1 symmetry has been detected, increase convergence thresholds 
      if your molecule has a higher symmetry. Symmetry factor of 1.0 is   
      used for the rotational entropy correction. 
 

Note: Rotational entropy computed according to Herzberg 
Infrared and Raman Spectra, Chapter V,1, Van Nostrand Reinhold, 1945 
Point Group:  C1, Symmetry Number:   1  
Rotational constants in cm-1:     0.020622     0.004034     0.003965 

Vibrational entropy computed according to the QRRHO of S. Grimme
Chem.Eur.J. 2012 18 9955 using a reference frequency of 100.0 cm-1


-------
ENTROPY
-------

The entropy contributions are T*S = T*(S(el)+S(vib)+S(rot)+S(trans))
     S(el)   - electronic entropy
     S(vib)  - vibrational entropy
     S(rot)  - rotational entropy
     S(trans)- translational entropy
The entropies will be listed as multiplied by the temperature to get
units of energy

Electronic entropy                ...      0.00065446 Eh      0.41 kcal/mol
Vibrational entropy               ...      0.03685601 Eh     23.13 kcal/mol
Rotational entropy                ...      0.01655658 Eh     10.39 kcal/mol
Translational entropy             ...      0.02081703 Eh     13.06 kcal/mol
-----------------------------------------------------------------------
Final entropy term                ...      0.07488409 Eh     46.99 kcal/mol

In case the symmetry of your molecule has not been determined correctly
or in case you have a reason to use a different symmetry number we print 
out the resulting rotational entropy values for sn=1,12:

 non-linear molecules -----------------------------------
|  sn= 1 | S(rot)=       0.01655658 Eh     10.39 kcal/mol|
|  sn= 2 | S(rot)=       0.01590213 Eh      9.98 kcal/mol|
|  sn= 3 | S(rot)=       0.01551929 Eh      9.74 kcal/mol|
|  sn= 4 | S(rot)=       0.01524767 Eh      9.57 kcal/mol|
|  sn= 5 | S(rot)=       0.01503698 Eh      9.44 kcal/mol|
|  sn= 6 | S(rot)=       0.01486484 Eh      9.33 kcal/mol|
|  sn= 7 | S(rot)=       0.01471929 Eh      9.24 kcal/mol|
|  sn= 8 | S(rot)=       0.01459321 Eh      9.16 kcal/mol|
|  sn= 9 | S(rot)=       0.01448201 Eh      9.09 kcal/mol|
|  sn=10 | S(rot)=       0.01438253 Eh      9.03 kcal/mol|
|  sn=11 | S(rot)=       0.01429254 Eh      8.97 kcal/mol|
|  sn=12 | S(rot)=       0.01421038 Eh      8.92 kcal/mol|
 linear molecules ---------------------------------------
|  Dinfh | S(rot)=       0.01054738 Eh      6.62 kcal/mol|
|  Cinfv | S(rot)=       0.01120183 Eh      7.03 kcal/mol|
 --------------------------------------------------------


-------------------
GIBBS FREE ENERGY
-------------------

The Gibbs free energy is G = H - T*S

Total enthalpy                    ...  -1853.60544623 Eh 
Total entropy correction          ...     -0.07488409 Eh    -46.99 kcal/mol
-----------------------------------------------------------------------
Final Gibbs free energy         ...  -1853.68033031 Eh

For completeness - the Gibbs free energy minus the electronic energy
G-E(el)                           ...      0.05414722 Eh     33.98 kcal/mol


Maximum memory used throughout the entire PROP-calculation: 546.1 MB

--------------------------------
SUGGESTED CITATIONS FOR THIS RUN
--------------------------------

Below you find a list of papers that are relevant to this ORCA run
We neither can nor want to force you to cite these papers, but we appreciate if you do
You receive ORCA, which is the product of decades of hard work by many enthusiastic individuals, for free
The only thing we kindly ask in return is that you cite our papers,
We deeply appreciate it, if you show your appreciation for ORCA by not just citing the generic ORCA reference.

Please note that relegating all ORCA citations to the supporting information does *not* help us.
SI sections are not indexed - citations you put there will not count into any citation statistics
But we need these citations in order to attract the funding resources that allow us to do what we are doing

Therefore, if you are a happy ORCA user, please consider citing a few of the papers listed below in the main body of your paper

In addition to the list printed below, the program has created the file rf_mecn_freq_B3L_C7_P_B.bibtex that contains the list in bibtex format
You can import this file easily into all common literature databanks and citation aid programs


List of essential papers. We consider these as the minimum necessary citations

  1. Neese,F.
     Software update: the ORCA program system, version 5.0
     WIRES Comput. Molec. Sci., 2022 12(1)e1606
     doi.org/10.1002/wcms.1606

List of papers to cite with high priority. The work reported in these papers was absolutely
necessary for this run to complete.
Our perspective: the developers of density functionals and basis sets usually get cited in chemistry papers
Good! But without the algorithms to do something with them, the functionals or basis sets would not do anything.
Hence, in our opinion, the algorithm design and method developments papers are equally worthy of getting cited

  1. Neese,F.
     An improvement of the resolution of the identity approximation for the formation of the Coulomb matrix
     J. Comp. Chem., 2003 24(14)1740-1747
     doi.org/10.1002/jcc.10318
  2. Neese,F.; Wennmohs,F.; Hansen,A.; Becker,U.
     Efficient, approximate and parallel Hartree-Fock and hybrid DFT calculations. A 'chain-of-spheres' algorithm for the Hartree-Fock exchange
     Chem. Phys., 2009 356(1-3)98-109
     doi.org/10.1016/j.chemphys.2008.10.036
  3. Bykov,D.; Petrenko,T.; Izsak,R.; Kossmann,S.; Becker,U.; Valeev,E.; Neese,F.
     Efficient implementation of the analytic second derivatives of Hartree-Fock and hybrid DFT energies: a detailed analysis of different approximations
     Molec. Phys., 2015 113 1961-1977
     doi.org/10.1080/00268976.2015.1025114
  4. Garcia-Rates,M.; Neese,F.
     Efficient implementation of the analytical second derivatives of hartree-fock and hybrid DFT energies within the framework of the conductor-like polarizable continuum model
     J. Comput. Chem., 2019 40 1816-1828
     doi.org/10.1002/jcc.25833
  5. Garcia-Rates,M.; Neese,F.
     Effect of the Solute Cavity on the Solvation Energy and its Derivatives within the Framework of the Gaussian Charge Scheme
     J. Comput. Chem., 2020 41 922-939
     doi.org/10.1002/jcc.26139
  6. Helmich-Paris,B.; de Souza,B.; Neese,F.; Izsák,R.
     An improved chain of spheres for exchange algorithm
     J. Chem. Phys., 2021 155 104109
     doi.org/doi: 10.1063/5.0058766.
  7. Neese,F.
     The SHARK Integral Generation and Digestion System
     J. Comp. Chem., 2022  1-16
     doi.org/10.1002/jcc.26942
  8. Grimme,S.; Antony,J.; Ehrlich,S.; Krieg,H.
     A consistent and accurate ab initio parametrization of density functional dispersion correction (DFT-D) for the 94 elements H-Pu
     J. Chem. Phys., 2010 132 154104
     doi.org/10.1063/1.3382344
  9. Grimme,S.; Ehrlich,S.; Goerigk,L.
     Effect of the damping function in dispersion corrected density functional theory
     J. Comput. Chem., 2011 32(7)1456-1465
     doi.org/10.1002/jcc.21759

List of suggested additional citations. These are papers that are important in the 'surrounding' of 
of this run, or papers that preceded the highly important papers. If you like your results we are grateful for a citation.

  1. Izsak,R.; Neese,F.
     An overlap fitted chain of spheres exchange method
     J. Chem. Phys., 2011 135 144105
     doi.org/10.1063/1.3646921
  2. Izsak,R.; Hansen,A.; Neese,F.
     The resolution of identity and chain of spheres approximations for the LPNO-CCSD singles Fock term
     Molec. Phys., 2012 110 2413-2417
     doi.org/10.1080/00268976.2012.687466
  3. Neese,F.
     The ORCA program system
     WIRES Comput. Molec. Sci., 2012 2(1)73-78
     doi.org/10.1002/wcms.81
  4. Izsak,R.; Neese,F.; Klopper,W.
     Robust fitting techniques in the chain of spheres approximation to the Fock exchange: The role of the complementary space
     J. Chem. Phys., 2013 139 
     doi.org/10.1063/1.4819264
  5. Neese,F.
     Software update: the ORCA program system, version 4.0
     WIRES Comput. Molec. Sci., 2018 8(1)1-6
     doi.org/10.1002/wcms.1327
  6. Neese,F.; Wennmohs,F.; Becker,U.; Riplinger,C.
     The ORCA quantum chemistry program package
     J. Chem. Phys., 2020 152 Art. No. L224108
     doi.org/10.1063/5.0004608

List of optional additional citations

  1. Neese,F.
     Approximate second-order SCF convergence for spin unrestricted wavefunctions
     Chem. Phys. Lett., 2000 325(1-3)93-98
     doi.org/10.1016/s0009-2614(00)00662-x

Timings for individual modules:

Sum of individual times          ...     1141.222 sec (=  19.020 min)
Startup calculation              ...        4.376 sec (=   0.073 min)   0.4 %
SCF iterations                   ...       91.465 sec (=   1.524 min)   8.0 %
Property integrals               ...      256.843 sec (=   4.281 min)  22.5 %
SCF Response                     ...      520.614 sec (=   8.677 min)  45.6 %
Property calculations            ...      267.924 sec (=   4.465 min)  23.5 %
                             ****ORCA TERMINATED NORMALLY****
TOTAL RUN TIME: 0 days 0 hours 19 minutes 2 seconds 38 msec
