
                                 *****************
                                 * O   R   C   A *
                                 *****************

                                            #,                                       
                                            ###                                      
                                            ####                                     
                                            #####                                    
                                            ######                                   
                                           ########,                                 
                                     ,,################,,,,,                         
                               ,,#################################,,                 
                          ,,##########################################,,             
                       ,#########################################, ''#####,          
                    ,#############################################,,   '####,        
                  ,##################################################,,,,####,       
                ,###########''''           ''''###############################       
              ,#####''   ,,,,##########,,,,          '''####'''          '####       
            ,##' ,,,,###########################,,,                        '##       
           ' ,,###''''                  '''############,,,                           
         ,,##''                                '''############,,,,        ,,,,,,###''
      ,#''                                            '''#######################'''  
     '                                                          ''''####''''         
             ,#######,   #######,   ,#######,      ##                                
            ,#'     '#,  ##    ##  ,#'     '#,    #''#        ,####,   ,####,        
            ##       ##  ##   ,#'  ##            #'  '#       #'       #'  '#        
            ##       ##  #######   ##           ,######,      #####,   #    #        
            '#,     ,#'  ##    ##  '#,     ,#' ,#      #,     #,   #   #,  ,#        
             '#######'   ##     ##  '#######'  #'      '#     '####' # '####'        



                #########################################################
                #                        -***-                          #
                #          Department of theory and spectroscopy        #
                #                                                       #
                #                      Frank Neese                      #
                #                                                       #
                #     Directorship, Architecture, Infrastructure        #
                #                    SHARK, DRIVERS                     #
                #        Core code/Algorithms in most modules           #
                #                                                       #
                #        Max Planck Institute fuer Kohlenforschung      #
                #                Kaiser Wilhelm Platz 1                 #
                #                 D-45470 Muelheim/Ruhr                 #
                #                      Germany                          #
                #                                                       #
                #                  All rights reserved                  #
                #                        -***-                          #
                #########################################################


                         Program Version 6.0.1  -  RELEASE   -


 With contributions from (in alphabetic order):
[Max-Planck-Institut fuer Kohlenforschung]                               
  Daniel Aravena         : Magnetic Suceptibility                        
  Michael Atanasov       : Ab Initio Ligand Field Theory (pilot matlab implementation)
  Alexander A. Auer      : GIAO ZORA, VPT2 properties, NMR spectrum      
  Ute Becker             : All parallelization in ORCA, NUMFREQ, NUMCALC 
  Giovanni Bistoni       : ED, misc. LED, open-shell LED, HFLD           
  Martin Brehm           : Molecular dynamics                            
  Dmytro Bykov           : pre 5.0 version of the SCF Hessian            
  Marcos Casanova-Páez   : Triplet and SCS-CIS(D). UHF-(DLPNO)-IP/EA/STEOM-CCSD. UHF-CVS-IP/STEOM-CCSD   
  Vijay G. Chilkuri      : MRCI spin determinant printing, contributions to CSF-ICE 
  Pauline Colinet        : FMM embedding                                 
  Dipayan Datta          : RHF DLPNO-CCSD density                        
  Achintya Kumar Dutta   : EOM-CC, STEOM-CC                              
  Nicolas Foglia         : Exact transition moments, OPA infrastructure, MCD improvements    
  Dmitry Ganyushin       : Spin-Orbit,Spin-Spin,Magnetic field MRCI      
  Miquel Garcia-Rates    : C-PCM and meta-GGA Hessian, CCSD/C-PCM, Gaussian charge scheme 
  Tiago L. C. Gouveia    : GS-ROHF, GS-ROCIS                             
  Yang Guo               : DLPNO-NEVPT2, F12-NEVPT2, CIM, IAO-localization        
  Andreas Hansen         : Spin unrestricted coupled pair/coupled cluster methods 
  Ingolf Harden          : AUTO-CI MPn and infrastructure                
  Benjamin Helmich-Paris : MC-RPA, TRAH-(SCF,CASSCF), AVAS, COSX integrals, SCF dyn. polar. 
  Lee Huntington         : MR-EOM, pCC                                   
  Robert Izsak           : Overlap fitted RIJCOSX, COSX-SCS-MP3, EOM     
  Riya Kayal             : Wick's Theorem for AUTO-CI, AUTO-CI UHF-CCSDT 
  Emily Kempfer          : AUTO-CI, RHF CISDT and CCSDT                  
  Christian Kollmar      : KDIIS, OOCD, Brueckner-CCSD(T), CCSD density, CASPT2, CASPT2-K, improved NEVPT2 
  Axel Koslowski         : Symmetry handling                             
  Simone Kossmann        : meta-GGA functionals, TD-DFT gradient, OOMP2, (MP2 Hessian; deprecated post 5.0) 
  Lucas Lang             : DCDCAS                                        
  Marvin Lechner         : AUTO-CI (C++ implementation), FIC-MRCC        
  Spencer Leger          : CASSCF response                               
  Dagmar Lenk            : GEPOL surface, SMD, ORCA-2-JSON               
  Dimitrios Liakos       : Extrapolation schemes; Compound Job, initial MDCI parallelization 
  Dimitrios Manganas     : Further ROCIS development; embedding schemes. LFT, Crystal Embedding 
  Dimitrios Pantazis     : SARC Basis sets                               
  Anastasios Papadopoulos: AUTO-CI, single reference methods and gradients 
  Taras Petrenko         : pre 6.0 DFT Hessian and TD-DFT gradient, (ASA, deprecated), ECA, 1-Electron XAS/XES, NRVS 
  Peter Pinski           : DLPNO-MP2, DLPNO-MP2 Gradient                 
  Christoph Reimann      : Effective Core Potentials                     
  Marius Retegan         : Local ZFS, SOC                                
  Christoph Riplinger    : Optimizer, TS searches, QM/MM, DLPNO-CCSD(T), (RO)-DLPNO pert. Triples 
  Michael Roemelt        : Original ROCIS implementation                 
  Masaaki Saitow         : Open-shell DLPNO-CCSD energy and density      
  Barbara Sandhoefer     : DKH picture change effects                    
  Kantharuban Sivalingam : CASSCF convergence/infrastructure, NEVPT2 and variants, FIC-MRCI 
  Bernardo de Souza      : ESD, SOC TD-DFT                               
  Georgi L. Stoychev     : AutoAux, RI-MP2 NMR, DLPNO-MP2 response, X2C  
  Van Anh Tran           : RI-MP2 g-tensors                              
  Willem Van den Heuvel  : Paramagnetic NMR                              
  Zikuan Wang            : NOTCH, Electric field optimization            
  Frank Wennmohs         : Technical directorship and infrastructure     
  Hang Xu                : AUTO-CI-Response properties                   
                                                                         
[FACCTs GmbH]                                                            
  Markus Bursch, Miquel Garcia-Rates, Christoph Riplinger, Bernardo de Souza, Georgi L. Stoychev 
                                                                 
  APM, Basis sets (HGBS, AHGBS, def-TZVP (Ac-Lr), def2-XVPD (La-Lu)), CI-OPT, improved COSX, DLPNO-Multilevel,           
  DOCKER, DRACO, updates on ESD, GOAT, IRC, LR-CPCM, MBIS, meta-GGA TD-DFT gradient, ML-optimized integration grids, 
  MM, NACMEs, nearIR, NEB, NEB-TS, NL-DFT gradient (VV10), 2- and 3-layer-ONIOM, interface openCOSMO-RS, QMMM,   
  Crystal-QMMM, SF, symmetry and pop. for TD-DFT, r2SCAN hybrids, SOLVATOR                                   
                                                                         
[Other institutions]                                                     
  V. Asgeirsson          : NEB                                           
  Christoph Bannwarth    : sTDA-DFT, sTD-DFT, PBEh-3c, B97-3c, D3        
  Sebastian Ehlert       : rSCAN, r2SCAN, r2SCAN-3c, D4, dhf basis sets  
  Marvin Friede          : D4 for Fr, Ra, Ac-Lr                          
  Lars Goerigk           : TD-DFT with DH, B97 family of functionals     
  Stefan Grimme          : VdW corrections, initial TS optimization, DFT functionals, gCP, sTDA/sTD-DF 
  Waldemar Hujo          : DFT-NL                                        
  H. Jonsson             : NEB                                           
  Holger Kruse           : gCP                                           
  Marcel Mueller         : wB97X-3c, vDZP basis set                      
  Hagen Neugebauer       : wr2SCAN                                       
  Tobias Risthaus        : range-separated hybrid DFT                    
  Lukas Wittmann         : regularized MP2, r2SCAN double-hybrids, wr2SCAN        
                                                                         
We gratefully acknowledge several colleagues who have allowed us to      
interface, adapt or use parts of their codes:                            
  Ed Valeev, F. Pavosevic, A. Kumar             : LibInt (2-el integral package), F12 methods 
  Garnet Chan, S. Sharma, J. Yang, R. Olivares  : DMRG                   
  Ulf Ekstrom                                   : XCFun DFT Library      
  Mihaly Kallay                                 : mrcc  (arbitrary order and MRCC methods)
  Frank Weinhold                                : gennbo (NPA and NBO analysis)           
  Simon Mueller                                 : openCOSMO-RS                            
  Christopher J. Cramer and Donald G. Truhlar   : smd solvation model                     
  S Lehtola, MJT Oliveira, MAL Marques          : LibXC Library                           
  Liviu Ungur et al                             : ANISO software                          


 Your calculation uses the libint2 library for the computation of 2-el integrals
 For citations please refer to: http://libint.valeyev.net

 Your ORCA version has been built with support for libXC version: 6.2.2
 For citations please refer to: https://libxc.gitlab.io

 This ORCA versions uses:
   CBLAS   interface :  Fast vector & matrix operations
   LAPACKE interface :  Fast linear algebra routines
   SCALAPACK package :  Parallel linear algebra routines
   Shared memory     :  Shared parallel matrices
   BLAS/LAPACK       :  OpenBLAS 0.3.27  USE64BITINT DYNAMIC_ARCH NO_AFFINITY SkylakeX SINGLE_THREADED
        Core in use  :  SkylakeX
   Copyright (c) 2011-2014, The OpenBLAS Project


NOTE: MaxCore=8000 MB was set to SCF,MP2,MDCI,CIPSI,MRCI and CIS
      => If you want to overwrite this, your respective input block should be placed after the MaxCore statement
Your calculation utilizes the atom-pairwise dispersion correction
with the Becke-Johnson damping scheme (D3BJ)


Your calculation utilizes the SMD solvation module
Please cite in your paper:
A.V. Marenich, C.J. Cramer, D.G. Truhlar J. Phys. Chem. B, 113, (2009), 6378 

Warning: RI is on but no J-basis has been assigned. Assigning Def2/J (nothing to worry about!)
================================================================================

----- Orbital basis set information -----
Your calculation utilizes the basis: def2-TZVP
   F. Weigend and R. Ahlrichs, Phys. Chem. Chem. Phys. 7, 3297 (2005).

----- AuxJ basis set information -----
Your calculation utilizes the auxiliary basis: def2/J
   F. Weigend, Phys. Chem. Chem. Phys. 8, 1057 (2006).

================================================================================
                                        WARNINGS
                       Please study these warnings very carefully!
================================================================================



WARNING: SCAN, rSCAN, or r2SCAN functional requested.
  ===> : libXC variant has now been activated.



WARNING: your system is open-shell and RHF/RKS was chosen
  ===> : WILL SWITCH to UHF/UKS


WARNING: Geometry Optimization
  ===> : Switching off AutoStart
         For restart on a previous wavefunction, please use MOREAD

================================================================================
                                       INPUT FILE
================================================================================
NAME = rf_mecn_opt_r2s_C8_P_B.inp
|  1> !r2scanh def2-TZVP opt d3 TightSCF SlowConv defgrid2
|  2>  
|  3> %pal
|  4> nprocs 20
|  5> end
|  6>  
|  7> %scf
|  8> MaxIter 1500
|  9> end
| 10>  
| 11> %maxcore 8000
| 12>  
| 13> !CPCM
| 14> %cpcm smd true
| 15> SMDsolvent "ACETONITRILE"
| 16> end
| 17>  
| 18> * xyz 0 2
| 19> 6        4.790427000     -0.033865800     -0.529943200
| 20> 8        5.449345000     -1.206924000     -0.894594600
| 21> 8        4.978223000      1.323071000     -0.737377200
| 22> 6        3.506687600     -0.338741600      0.376153800
| 23> 6        2.222300000      0.400524800     -0.110681600
| 24> 6        0.900506800     -0.386389800      0.175703000
| 25> 6       -0.395261200      0.487294000      0.065549000
| 26> 6       -1.705693600     -0.364773800     -0.068373600
| 27> 6       -3.005136200      0.445344800      0.258164000
| 28> 6       -4.319880200     -0.214526000     -0.270540800
| 29> 9        3.211587400     -1.692050400      0.412735200
| 30> 9        3.741061800      0.055285800      1.689948800
| 31> 9        2.125696800      1.616867800      0.483236600
| 32> 9        2.314152400      0.589704000     -1.455769200
| 33> 9        0.794028800     -1.413561400     -0.700839000
| 34> 9        0.958350600     -0.884509000      1.435093400
| 35> 9       -0.498373400      1.260265600      1.173340200
| 36> 9       -0.299075000      1.289512600     -1.020910800
| 37> 9       -1.641790400     -1.418189000      0.779523800
| 38> 9       -1.792381400     -0.831391600     -1.336863600
| 39> 9       -2.918792200      1.679227200     -0.295171200
| 40> 9       -3.119771000      0.573779800      1.598579800
| 41> 9       -4.383115600     -1.504377600      0.089127600
| 42> 9       -5.365669800      0.430528600      0.260394200
| 43> 1        5.903122371     -2.014774547     -1.145719253
| 44> *
| 45> 
| 46>                          ****END OF INPUT****
================================================================================

                       *****************************
                       * Geometry Optimization Run *
                       *****************************

Geometry optimization settings:
Update method            Update   .... BFGS
Choice of coordinates    CoordSys .... (2022) Redundant Internals
Initial Hessian          InHess   .... Almloef's Model
Max. no of cycles        MaxIter  .... 75

Convergence Tolerances:
Energy Change            TolE     ....  5.0000e-06 Eh
Max. Gradient            TolMAXG  ....  3.0000e-04 Eh/bohr
RMS Gradient             TolRMSG  ....  1.0000e-04 Eh/bohr
Max. Displacement        TolMAXD  ....  4.0000e-03 bohr
RMS Displacement         TolRMSD  ....  2.0000e-03 bohr
Strict Convergence                .... False

------------------------------------------------------------------------------
                        ORCA OPTIMIZATION COORDINATE SETUP
------------------------------------------------------------------------------

The optimization will be done in redundant internal coordinates (2022)
Making redundant internal coordinates   ...  (2022 redundants) done
Evaluating the initial hessian          ...  (Almloef) done
Evaluating the coordinates              ...  done
Calculating the B-matrix                .... done
Calculating the G-matrix                .... done
Diagonalizing the G-matrix              .... done
Small eigenvalue found = 4.878e-03
Small eigenvalue found = 1.411e-02
Small eigenvalue found = 2.899e-02
The first mode is                       ....   40
The number of degrees of freedom        ....   69

    -----------------------------------------------------------------
                    Redundant Internal Coordinates


    -----------------------------------------------------------------
         Definition                    Initial Value    Approx d2E/dq
    -----------------------------------------------------------------
      1. B(O   1,C   0)                  1.3940         0.551454   
      2. B(O   2,C   0)                  1.3855         0.568952   
      3. B(C   3,C   0)                  1.6006         0.288221   
      4. B(C   4,C   3)                  1.5599         0.334759   
      5. B(C   5,C   4)                  1.5647         0.328824   
      6. B(C   6,C   5)                  1.5667         0.326486   
      7. B(C   7,C   6)                  1.5688         0.323927   
      8. B(C   8,C   7)                  1.5657         0.327637   
      9. B(C   9,C   8)                  1.5632         0.330714   
     10. B(F  10,C   3)                  1.3856         0.528443   
     11. B(F  11,C   3)                  1.3915         0.517117   
     12. B(F  12,C   4)                  1.3570         0.586881   
     13. B(F  13,C   4)                  1.3614         0.577499   
     14. B(F  14,C   5)                  1.3545         0.592326   
     15. B(F  15,C   5)                  1.3556         0.590092   
     16. B(F  16,C   6)                  1.3547         0.591865   
     17. B(F  17,C   6)                  1.3540         0.593567   
     18. B(F  18,C   7)                  1.3538         0.593973   
     19. B(F  19,C   7)                  1.3544         0.592672   
     20. B(F  20,C   8)                  1.3550         0.591238   
     21. B(F  21,C   8)                  1.3514         0.599114   
     22. B(F  22,C   9)                  1.3406         0.623533   
     23. B(F  23,C   9)                  1.3385         0.628179   
     24. B(H  24,O   1)                  0.9600         0.519956   
     25. A(O   2,C   0,C   3)          112.3347         0.371210   
     26. A(O   1,C   0,C   3)          111.5249         0.369222   
     27. A(O   1,C   0,O   2)          136.1318         0.413163   
     28. L(C   0,O   1,H  24,C   3, 2) 180.0000         0.362759   
     29. L(C   0,O   1,H  24,C   3, 1) 180.0000         0.362759   
     30. A(C   4,C   3,F  11)          107.4072         0.373095   
     31. A(C   0,C   3,F  11)          110.2099         0.363632   
     32. A(F  10,C   3,F  11)          106.7094         0.399684   
     33. A(C   4,C   3,F  10)          107.2033         0.374492   
     34. A(C   0,C   3,F  10)          111.8265         0.364982   
     35. A(C   0,C   3,C   4)          113.1687         0.341363   
     36. A(C   3,C   4,F  12)          110.2926         0.381351   
     37. A(F  12,C   4,F  13)          108.2194         0.415201   
     38. A(C   3,C   4,C   5)          113.5839         0.349005   
     39. A(C   5,C   4,F  13)          107.9208         0.379109   
     40. A(C   3,C   4,F  13)          108.5818         0.380286   
     41. A(C   5,C   4,F  12)          108.0911         0.380169   
     42. A(F  14,C   5,F  15)          109.0206         0.417483   
     43. A(C   4,C   5,C   6)          113.9128         0.347536   
     44. A(C   6,C   5,F  15)          107.7906         0.380059   
     45. A(C   4,C   5,F  15)          108.5900         0.380529   
     46. A(C   6,C   5,F  14)          108.2026         0.380308   
     47. A(C   4,C   5,F  14)          109.2282         0.380779   
     48. A(C   5,C   6,C   7)          113.2023         0.346660   
     49. A(F  16,C   6,F  17)          108.8752         0.417862   
     50. A(C   7,C   6,F  17)          108.2186         0.379927   
     51. A(C   5,C   6,F  17)          109.1523         0.380446   
     52. A(C   7,C   6,F  16)          108.4284         0.379738   
     53. A(C   5,C   6,F  16)          108.8835         0.380256   
     54. A(C   8,C   7,F  18)          108.1296         0.380723   
     55. A(C   6,C   7,F  18)          109.2524         0.379972   
     56. A(F  18,C   7,F  19)          108.7561         0.418014   
     57. A(C   6,C   7,C   8)          113.2298         0.346865   
     58. A(C   8,C   7,F  19)          108.6915         0.380579   
     59. A(C   6,C   7,F  19)          108.6955         0.379828   
     60. A(F  20,C   8,F  21)          108.8987         0.418476   
     61. A(C   9,C   8,F  21)          107.7127         0.381912   
     62. A(C   7,C   8,F  21)          109.0521         0.381293   
     63. A(C   9,C   8,F  20)          107.4499         0.381036   
     64. A(C   7,C   8,C   9)          114.1471         0.348078   
     65. A(C   7,C   8,F  20)          109.4572         0.380419   
     66. A(F  22,C   9,F  23)          108.6877         0.426061   
     67. A(C   8,C   9,F  23)          108.6349         0.385069   
     68. A(C   8,C   9,F  22)          110.7995         0.384572   
     69. D(F  11,C   3,C   0,O   2)    -70.4768         0.006601   
     70. D(C   4,C   3,C   0,O   1)   -131.0839         0.006601   
     71. D(F  11,C   3,C   0,O   1)    108.6317         0.006601   
     72. D(F  10,C   3,C   0,O   2)    171.0025         0.006601   
     73. D(F  10,C   3,C   0,O   1)     -9.8890         0.006601   
     74. D(C   4,C   3,C   0,O   2)     49.8076         0.006601   
     75. D(F  12,C   4,C   3,C   0)    -89.8453         0.009100   
     76. D(C   5,C   4,C   3,C   0)    148.6429         0.009100   
     77. D(F  12,C   4,C   3,F  10)    146.3851         0.009100   
     78. D(F  12,C   4,C   3,F  11)     32.0233         0.009100   
     79. D(C   5,C   4,C   3,F  10)     24.8733         0.009100   
     80. D(C   5,C   4,C   3,F  11)    -89.4885         0.009100   
     81. D(C   6,C   5,C   4,F  12)     41.2001         0.008811   
     82. D(C   6,C   5,C   4,F  13)    -75.6292         0.008811   
     83. D(C   6,C   5,C   4,C   3)    163.9326         0.008811   
     84. D(F  14,C   5,C   4,F  13)     45.4721         0.008811   
     85. D(F  14,C   5,C   4,F  12)    162.3014         0.008811   
     86. D(F  14,C   5,C   4,C   3)    -74.9661         0.008811   
     87. D(F  16,C   6,C   5,F  15)     44.2190         0.008700   
     88. D(F  16,C   6,C   5,F  14)    161.9826         0.008700   
     89. D(F  16,C   6,C   5,C   4)    -76.3465         0.008700   
     90. D(C   7,C   6,C   5,F  15)    -76.4529         0.008700   
     91. D(C   7,C   6,C   5,F  14)     41.3107         0.008700   
     92. D(C   7,C   6,C   5,C   4)    162.9815         0.008700   
     93. D(F  18,C   7,C   6,F  17)    162.9167         0.008578   
     94. D(F  18,C   7,C   6,F  16)    -79.1358         0.008578   
     95. D(F  18,C   7,C   6,C   5)     41.7939         0.008578   
     96. D(C   8,C   7,C   6,F  17)    -76.5134         0.008578   
     97. D(C   8,C   7,C   6,F  16)     41.4341         0.008578   
     98. D(C   8,C   7,C   6,C   5)    162.3638         0.008578   
     99. D(C   9,C   8,C   7,C   6)    162.4166         0.008755   
    100. D(F  20,C   8,C   7,F  19)    -78.9355         0.008755   
    101. D(F  20,C   8,C   7,F  18)    163.1633         0.008755   
    102. D(F  20,C   8,C   7,C   6)     41.9584         0.008755   
    103. D(C   9,C   8,C   7,F  19)     41.5227         0.008755   
    104. D(C   9,C   8,C   7,F  18)    -76.3785         0.008755   
    105. D(F  23,C   9,C   8,F  20)    -69.0724         0.008360   
    106. D(F  23,C   9,C   8,C   7)    169.3552         0.008360   
    107. D(F  22,C   9,C   8,F  21)    -71.2185         0.008360   
    108. D(F  22,C   9,C   8,F  20)    171.5999         0.008360   
    109. D(F  22,C   9,C   8,C   7)     50.0276         0.008360   
    -----------------------------------------------------------------

Number of atoms                         .... 25
Number of degrees of freedom            .... 109


         *************************************************************
         *                GEOMETRY OPTIMIZATION CYCLE   1            *
         *************************************************************
---------------------------------
CARTESIAN COORDINATES (ANGSTROEM)
---------------------------------
  C      4.790427   -0.033866   -0.529943
  O      5.449345   -1.206924   -0.894595
  O      4.978223    1.323071   -0.737377
  C      3.506688   -0.338742    0.376154
  C      2.222300    0.400525   -0.110682
  C      0.900507   -0.386390    0.175703
  C     -0.395261    0.487294    0.065549
  C     -1.705694   -0.364774   -0.068374
  C     -3.005136    0.445345    0.258164
  C     -4.319880   -0.214526   -0.270541
  F      3.211587   -1.692050    0.412735
  F      3.741062    0.055286    1.689949
  F      2.125697    1.616868    0.483237
  F      2.314152    0.589704   -1.455769
  F      0.794029   -1.413561   -0.700839
  F      0.958351   -0.884509    1.435093
  F     -0.498373    1.260266    1.173340
  F     -0.299075    1.289513   -1.020911
  F     -1.641790   -1.418189    0.779524
  F     -1.792381   -0.831392   -1.336864
  F     -2.918792    1.679227   -0.295171
  F     -3.119771    0.573780    1.598580
  F     -4.383116   -1.504378    0.089128
  F     -5.365670    0.430529    0.260394
  H      5.903122   -2.014775   -1.145719

----------------------------
CARTESIAN COORDINATES (A.U.)
----------------------------
  NO LB      ZA    FRAG     MASS         X           Y           Z
   0 C     6.0000    0    12.011    9.052595   -0.063997   -1.001448
   1 O     8.0000    0    15.999   10.297770   -2.280756   -1.690539
   2 O     8.0000    0    15.999    9.407478    2.500242   -1.393441
   3 C     6.0000    0    12.011    6.626679   -0.640129    0.710828
   4 C     6.0000    0    12.011    4.199538    0.756882   -0.209158
   5 C     6.0000    0    12.011    1.701711   -0.730171    0.332031
   6 C     6.0000    0    12.011   -0.746935    0.920852    0.123870
   7 C     6.0000    0    12.011   -3.223294   -0.689323   -0.129207
   8 C     6.0000    0    12.011   -5.678884    0.841580    0.487859
   9 C     6.0000    0    12.011   -8.163391   -0.405395   -0.511248
  10 F     9.0000    0    18.998    6.069021   -3.197512    0.779956
  11 F     9.0000    0    18.998    7.069582    0.104475    3.193540
  12 F     9.0000    0    18.998    4.016985    3.055437    0.913185
  13 F     9.0000    0    18.998    4.373114    1.114379   -2.751005
  14 F     9.0000    0    18.998    1.500497   -2.671244   -1.324394
  15 F     9.0000    0    18.998    1.811020   -1.671480    2.711934
  16 F     9.0000    0    18.998   -0.941789    2.381557    2.217292
  17 F     9.0000    0    18.998   -0.565170    2.436826   -1.929242
  18 F     9.0000    0    18.998   -3.102534   -2.679989    1.473086
  19 F     9.0000    0    18.998   -3.387110   -1.571102   -2.526306
  20 F     9.0000    0    18.998   -5.515718    3.173280   -0.557793
  21 F     9.0000    0    18.998   -5.895513    1.084287    3.020878
  22 F     9.0000    0    18.998   -8.282888   -2.842862    0.168427
  23 F     9.0000    0    18.998  -10.139646    0.813581    0.492074
  24 H     1.0000    0     1.008   11.155285   -3.807372   -2.165096

--------------------------------
INTERNAL COORDINATES (ANGSTROEM)
--------------------------------
 C      0   0   0     0.000000000000     0.00000000     0.00000000
 O      1   0   0     1.393990356793     0.00000000     0.00000000
 O      1   2   0     1.385486802956   136.13177198     0.00000000
 C      1   2   3     1.600608594862   111.52489317   181.18992567
 C      4   1   2     1.559863783763   113.16872737   228.91614990
 C      5   4   1     1.564732561934   113.58394786   148.64287440
 C      6   5   4     1.566675459667   113.91280616   163.93256239
 C      7   6   5     1.568817348692   113.20226571   162.98152714
 C      8   7   6     1.565717094808   113.22984595   162.36375422
 C      9   8   7     1.563173062643   114.14707705   162.41661495
 F      4   1   2     1.385592665621   111.82651119   350.11101305
 F      4   1   2     1.391490625050   110.20991618   108.63170802
 F      5   4   1     1.357041377479   110.29260564   270.15468021
 F      5   4   1     1.361428031433   108.58179722    28.57841973
 F      6   5   4     1.354527570075   109.22822656   285.03385927
 F      6   5   4     1.355556277776   108.59004089    43.81583148
 F      7   6   5     1.354739297058   108.88346185   283.65347401
 F      7   6   5     1.353957667090   109.15230848    42.38718856
 F      8   7   6     1.353771473879   109.25240264    41.79387651
 F      8   7   6     1.354368423305   108.69554158   283.25540020
 F      9   8   7     1.355028009646   109.45719767    41.95842364
 F      9   8   7     1.351425618925   109.05210362   282.91820052
 F     10   9   8     1.340551089588   110.79953142    50.02756898
 F     10   9   8     1.338530275591   108.63493714   169.35523750
 H      2   1   3     0.960000000033   180.00000000     0.00000000

---------------------------
INTERNAL COORDINATES (A.U.)
---------------------------
 C      0   0   0     0.000000000000     0.00000000     0.00000000
 O      1   0   0     2.634260007667     0.00000000     0.00000000
 O      1   2   0     2.618190619750   136.13177198     0.00000000
 C      1   2   3     3.024711891890   111.52489317   181.18992567
 C      4   1   2     2.947715357535   113.16872737   228.91614990
 C      5   4   1     2.956916014884   113.58394786   148.64287440
 C      6   5   4     2.960587559506   113.91280616   163.93256239
 C      7   6   5     2.964635143173   113.20226571   162.98152714
 C      8   7   6     2.958776512386   113.22984595   162.36375422
 C      9   8   7     2.953968988318   114.14707705   162.41661495
 F      4   1   2     2.618390671194   111.82651119   350.11101305
 F      4   1   2     2.629536199263   110.20991618   108.63170802
 F      5   4   1     2.564436555835   110.29260564   270.15468021
 F      5   4   1     2.572726130452   108.58179722    28.57841973
 F      6   5   4     2.559686148288   109.22822656   285.03385927
 F      6   5   4     2.561630124115   108.59004089    43.81583148
 F      7   6   5     2.560086254300   108.88346185   283.65347401
 F      7   6   5     2.558609187723   109.15230848    42.38718856
 F      8   7   6     2.558257333546   109.25240264    41.79387651
 F      8   7   6     2.559385404477   108.69554158   283.25540020
 F      9   8   7     2.560631842023   109.45719767    41.95842364
 F      9   8   7     2.553824310132   109.05210362   282.91820052
 F     10   9   8     2.533274427850   110.79953142    50.02756898
 F     10   9   8     2.529455642830   108.63493714   169.35523750
 H      2   1   3     1.814137088628   180.00000000     0.00000000

---------------------
BASIS SET INFORMATION
---------------------
There are 4 groups of distinct atoms

 Group   1 Type C   : 11s6p2d1f contracted to 5s3p2d1f pattern {62111/411/11/1}
 Group   2 Type O   : 11s6p2d1f contracted to 5s3p2d1f pattern {62111/411/11/1}
 Group   3 Type F   : 11s6p2d1f contracted to 5s3p2d1f pattern {62111/411/11/1}
 Group   4 Type H   : 5s1p contracted to 3s1p pattern {311/1}

Atom   0C    basis set group =>   1
Atom   1O    basis set group =>   2
Atom   2O    basis set group =>   2
Atom   3C    basis set group =>   1
Atom   4C    basis set group =>   1
Atom   5C    basis set group =>   1
Atom   6C    basis set group =>   1
Atom   7C    basis set group =>   1
Atom   8C    basis set group =>   1
Atom   9C    basis set group =>   1
Atom  10F    basis set group =>   3
Atom  11F    basis set group =>   3
Atom  12F    basis set group =>   3
Atom  13F    basis set group =>   3
Atom  14F    basis set group =>   3
Atom  15F    basis set group =>   3
Atom  16F    basis set group =>   3
Atom  17F    basis set group =>   3
Atom  18F    basis set group =>   3
Atom  19F    basis set group =>   3
Atom  20F    basis set group =>   3
Atom  21F    basis set group =>   3
Atom  22F    basis set group =>   3
Atom  23F    basis set group =>   3
Atom  24H    basis set group =>   4
---------------------------------
AUXILIARY/J BASIS SET INFORMATION
---------------------------------
There are 4 groups of distinct atoms

 Group   1 Type C   : 12s5p4d2f1g contracted to 6s4p3d1f1g pattern {711111/2111/211/2/1}
 Group   2 Type O   : 12s5p4d2f1g contracted to 6s4p3d1f1g pattern {711111/2111/211/2/1}
 Group   3 Type F   : 12s5p4d2f1g contracted to 6s4p3d1f1g pattern {711111/2111/211/2/1}
 Group   4 Type H   : 5s2p1d contracted to 3s1p1d pattern {311/2/1}

Atom   0C    basis set group =>   1
Atom   1O    basis set group =>   2
Atom   2O    basis set group =>   2
Atom   3C    basis set group =>   1
Atom   4C    basis set group =>   1
Atom   5C    basis set group =>   1
Atom   6C    basis set group =>   1
Atom   7C    basis set group =>   1
Atom   8C    basis set group =>   1
Atom   9C    basis set group =>   1
Atom  10F    basis set group =>   3
Atom  11F    basis set group =>   3
Atom  12F    basis set group =>   3
Atom  13F    basis set group =>   3
Atom  14F    basis set group =>   3
Atom  15F    basis set group =>   3
Atom  16F    basis set group =>   3
Atom  17F    basis set group =>   3
Atom  18F    basis set group =>   3
Atom  19F    basis set group =>   3
Atom  20F    basis set group =>   3
Atom  21F    basis set group =>   3
Atom  22F    basis set group =>   3
Atom  23F    basis set group =>   3
Atom  24H    basis set group =>   4


           ************************************************************
           *        Program running with 20 parallel MPI-processes    *
           *              working on a common directory               *
           ************************************************************
------------------------------------------------------------------------------
                             ORCA STARTUP CALCULATIONS
                           -- RI-GTO INTEGRALS CHOSEN --
------------------------------------------------------------------------------
------------------------------------------------------------------------------
                   ___                                                        
                  /   \      - P O W E R E D   B Y -                         
                 /     \                                                     
                 |  |  |   _    _      __       _____    __    __             
                 |  |  |  | |  | |    /  \     |  _  \  |  |  /  |          
                  \  \/   | |  | |   /    \    | | | |  |  | /  /          
                 / \  \   | |__| |  /  /\  \   | |_| |  |  |/  /          
                |  |  |   |  __  | /  /__\  \  |    /   |      \           
                |  |  |   | |  | | |   __   |  |    \   |  |\   \          
                \     /   | |  | | |  |  |  |  | |\  \  |  | \   \       
                 \___/    |_|  |_| |__|  |__|  |_| \__\ |__|  \__/        
                                                                              
                      - O R C A' S   B I G   F R I E N D -                    
                                      &                                       
                       - I N T E G R A L  F E E D E R -                       
                                                                              
 v1 FN, 2020, v2 2021, v3 2022-2024                                           
------------------------------------------------------------------------------


----------------------
SHARK INTEGRAL PACKAGE
----------------------

Number of atoms                             ...     25
Number of basis functions                   ...    750
Number of shells                            ...    268
Maximum angular momentum                    ...      3
Integral batch strategy                     ... SHARK/LIBINT Hybrid
RI-J (if used) integral strategy            ... SPLIT-RIJ (Revised 2003 algorithm where possible)
Printlevel                                  ...      1
Contraction scheme used                     ... SEGMENTED contraction
Prescreening option                         ... SCHWARTZ
   Thresh                                   ... 2.500e-11
   Tcut                                     ... 2.500e-12
   Tpresel                                  ... 2.500e-12 
Coulomb Range Separation                    ... NOT USED
Exchange Range Separation                   ... NOT USED
Multipole approximations                    ... NOT USED
Finite Nucleus Model                        ... NOT USED
CABS basis                                  ... NOT available
Auxiliary Coulomb fitting basis             ... AVAILABLE
   # of basis functions in Aux-J            ...   1187
   # of shells in Aux-J                     ...    365
   Maximum angular momentum in Aux-J        ...      4
Auxiliary J/K fitting basis                 ... NOT available
Auxiliary Correlation fitting basis         ... NOT available
Auxiliary 'external' fitting basis          ... NOT available

Checking pre-screening integrals            ... done (  0.0 sec) Dimension = 268
Check shell pair data                       ... done (  0.0 sec)
Shell pair information
Shell pair cut-off parameter TPreSel        ...   2.5e-12
Total number of shell pairs                 ...     36046
Shell pairs after pre-screening             ...     22481
Total number of primitive shell pairs       ...    118872
Primitive shell pairs kept                  ...     47640
          la=0 lb=0:   4290 shell pairs
          la=1 lb=0:   6140 shell pairs
          la=1 lb=1:   2117 shell pairs
          la=2 lb=0:   3339 shell pairs
          la=2 lb=1:   2436 shell pairs
          la=2 lb=2:    689 shell pairs
          la=3 lb=0:   1514 shell pairs
          la=3 lb=1:   1175 shell pairs
          la=3 lb=2:    629 shell pairs
          la=3 lb=3:    152 shell pairs

Calculating one electron integrals          ... done (  0.0 sec)
Calculating RI/J V-Matrix + Cholesky decomp.... done (  0.1 sec)
Calculating Nuclear repulsion               ... done (  0.0 sec) ENN=   2659.344683347456 Eh

Diagonalization of the overlap matrix:
Smallest eigenvalue                        ... 6.427e-05
Time for diagonalization                   ...    0.153 sec
Threshold for overlap eigenvalues          ... 1.000e-07
Number of eigenvalues below threshold      ... 0
Time for construction of square roots      ...    0.079 sec
Total time needed                          ...    0.242 sec

-------------------
DFT GRID GENERATION
-------------------

General Integration Accuracy     IntAcc      ... 4.388
Radial Grid Type                 RadialGrid  ... OptM3 with GC (2021)
Angular Grid (max. ang.)         AngularGrid ... 4 (Lebedev-302)
Angular grid pruning method      GridPruning ... 4 (adaptive)
Weight generation scheme         WeightScheme... mBecke (2022)
Basis function cutoff            BFCut       ... 1.0000e-11
Integration weight cutoff        WCut        ... 1.0000e-14
Partially contracted basis set               ... off
Rotationally invariant grid construction     ... off
Angular grids for H and He will be reduced by one unit

Total number of grid points                  ...   148703
Total number of batches                      ...     2333
Average number of points per batch           ...       63
Average number of grid points per atom       ...     5948

--------------------
COSX GRID GENERATION
--------------------

GRIDX 1
-------
General Integration Accuracy     IntAcc      ... 3.816
Radial Grid Type                 RadialGrid  ... OptM3 with GC (2021)
Angular Grid (max. ang.)         AngularGrid ... 1 (Lebedev-50)
Angular grid pruning method      GridPruning ... 4 (adaptive)
Weight generation scheme         WeightScheme... mBecke (2022)
Basis function cutoff            BFCut       ... 1.0000e-11
Integration weight cutoff        WCut        ... 1.0000e-14
Partially contracted basis set               ... on
Rotationally invariant grid construction     ... off
Angular grids for H and He will be reduced by one unit

Total number of grid points                  ...    18711
Total number of batches                      ...      158
Average number of points per batch           ...      118
Average number of grid points per atom       ...      748
UseSFitting                                  ... on

GRIDX 2
-------
General Integration Accuracy     IntAcc      ... 4.020
Radial Grid Type                 RadialGrid  ... OptM3 with GC (2021)
Angular Grid (max. ang.)         AngularGrid ... 2 (Lebedev-110)
Angular grid pruning method      GridPruning ... 4 (adaptive)
Weight generation scheme         WeightScheme... mBecke (2022)
Basis function cutoff            BFCut       ... 1.0000e-11
Integration weight cutoff        WCut        ... 1.0000e-14
Partially contracted basis set               ... on
Rotationally invariant grid construction     ... off
Angular grids for H and He will be reduced by one unit

Total number of grid points                  ...    44091
Total number of batches                      ...      360
Average number of points per batch           ...      122
Average number of grid points per atom       ...     1764
UseSFitting                                  ... on

GRIDX 3
-------
General Integration Accuracy     IntAcc      ... 4.338
Radial Grid Type                 RadialGrid  ... OptM3 with GC (2021)
Angular Grid (max. ang.)         AngularGrid ... 3 (Lebedev-194)
Angular grid pruning method      GridPruning ... 4 (adaptive)
Weight generation scheme         WeightScheme... mBecke (2022)
Basis function cutoff            BFCut       ... 1.0000e-11
Integration weight cutoff        WCut        ... 1.0000e-14
Partially contracted basis set               ... on
Rotationally invariant grid construction     ... off
Angular grids for H and He will be reduced by one unit

Total number of grid points                  ...    97583
Total number of batches                      ...      773
Average number of points per batch           ...      126
Average number of grid points per atom       ...     3903
UseSFitting                                  ... on
Initializing property integral containers    ... done (  0.0 sec)

SHARK setup successfully completed in   4.3 seconds

Maximum memory used throughout the entire STARTUP-calculation: 57.5 MB


           ************************************************************
           *        Program running with 20 parallel MPI-processes    *
           *              working on a common directory               *
           ************************************************************
-------------------------------------------------------------------------------
                                 ORCA GUESS
                   Start orbitals & Density for SCF / CASSCF
-------------------------------------------------------------------------------

------------
SCF SETTINGS
------------
Hamiltonian:
 Density Functional     Method          .... DFT(GTOs)
  Functional kind                       .... Exchange
  Functional name                       .... Re-regularized SCAN exchange by Furness et al
  Functional family                     .... MGGA
  Functional refs                              
    [ 0] J. W. Furness, A. D. Kaplan, J. Ning, J. P. Perdew, and J. Sun.,  J. Phys. Chem. Lett. 11, 8208-8215 (2020), doi: 10.1021/acs.jpclett.0c02405
    [ 1] J. W. Furness, A. D. Kaplan, J. Ning, J. P. Perdew, and J. Sun.,  J. Phys. Chem. Lett. 11, 9248-9248 (2020), doi: 10.1021/acs.jpclett.0c03077
  Functional external parameters        .... 6
    Parameter  0 _c1        =  6.670000e-01 : c1 parameter        
    Parameter  1 _c2        =  8.000000e-01 : c2 parameter        
    Parameter  2 _d         =  1.240000e+00 : d parameter         
    Parameter  3 _k1        =  6.500000e-02 : k1 parameter        
    Parameter  4 _eta       =  1.000000e-03 : eta parameter       
    Parameter  5 _dp2       =  3.610000e-01 : dp2 parameter       
  Functional kind                       .... Correlation
  Functional name                       .... Re-regularized SCAN correlation by Furness et al
  Functional family                     .... MGGA
  Functional refs                              
    [ 0] J. W. Furness, A. D. Kaplan, J. Ning, J. P. Perdew, and J. Sun.,  J. Phys. Chem. Lett. 11, 8208-8215 (2020), doi: 10.1021/acs.jpclett.0c02405
    [ 1] J. W. Furness, A. D. Kaplan, J. Ning, J. P. Perdew, and J. Sun.,  J. Phys. Chem. Lett. 11, 9248-9248 (2020), doi: 10.1021/acs.jpclett.0c03077
  Functional external parameters        .... 1
    Parameter  0 _eta       =  1.000000e-03 : Regularization parameter
 Gradients option       PostSCFGGA      .... off
 Hybrid DFT is turned on
   Fraction HF Exchange ScalHFX         ....  0.100000
   Scaling of DF-GGA-X  ScalDFX         ....  0.900000
   Scaling of DF-GGA-C  ScalDFC         ....  1.000000
   Scaling of DF-LDA-C  ScalLDAC        ....  1.000000
   Perturbative correction              ....  0.000000
   NL short-range parameter             .... 11.900000
 RI-approximation to the Coulomb term is turned on
   Number of AuxJ basis functions       .... 1187
   RIJ-COSX (HFX calculated with COS-X)).... on


General Settings:
 Integral files         IntName         .... rf_mecn_opt_r2s_C8_P_B
 Hartree-Fock type      HFTyp           .... UHF
 Total Charge           Charge          ....    0
 Multiplicity           Mult            ....    2
 Number of Electrons    NEL             ....  191
 Basis Dimension        Dim             ....  750
 Nuclear Repulsion      ENuc            ....   2659.3446833475 Eh

Convergence Acceleration:
 AO-DIIS                CNVDIIS         .... on
   Start iteration      DIISMaxIt       ....     0
   Startup error        DIISStart       ....  0.200000
   # of expansion vecs  DIISMaxEq       ....     5
   Bias factor          DIISBfac        ....   1.050
   Max. coefficient     DIISMaxC        ....  10.000
 MO-DIIS                CNVKDIIS        .... off
 Trust-Rad. Augm. Hess. CNVTRAH         .... auto
   Auto Start mean grad. ratio tolernc. ....  1.125000
   Auto Start start iteration           ....    50
   Auto Start num. interpolation iter.  ....    10
   Max. Number of Micro iterations      ....    24
   Max. Number of Macro iterations      .... Maxiter - #DIIS iter
   Number of Davidson start vectors     ....     2
   Converg. threshold    (grad. norm)   ....   1.000e-05
   Grad. Scal. Fac. for Micro threshold ....   0.100
   Minimum threshold for Micro iter.    ....   1.000e-02
   NR start threshold (gradient norm)   ....   1.000e-04
   Initial trust radius                 ....   0.400
   Minimum AH scaling param. (alpha)    ....   1.000
   Maximum AH scaling param. (alpha)    .... 1000.000
   Quad. conv. algorithm                .... NR
   White noise on init. David. guess    .... on
   Maximum white noise                  ....   0.010
   Pseudo random numbers                .... off
   Inactive MOs                         .... canonical
   Orbital update algorithm             .... Taylor
   Preconditioner                       .... Diag
   Full preconditioner red. dimension   ....   250
 SOSCF                  CNVSOSCF        .... on
   Start iteration      SOSCFMaxIt      ....   150
   Startup grad/error   SOSCFStart      ....  0.001000
   Hessian update       SOSCFHessUp     .... L-BFGS
 Level Shifting         CNVShift        .... on
   Level shift para.    LevelShift      ....    0.2500
   Turn off err/grad.   ShiftErr        ....    0.0000
 Zerner damping         CNVZerner       .... off
 Static damping         CNVDamp         .... on
   Fraction old density DampFac         ....    0.8500
   Max. Damping (<1)    DampMax         ....    0.9800
   Min. Damping (>=0)   DampMin         ....    0.0000
   Turn off err/grad.   DampErr         ....    0.0300

SCF Procedure:
 Maximum # iterations   MaxIter         ....  1500
 SCF integral mode      SCFMode         .... Direct
   Integral package                     .... SHARK and LIBINT hybrid scheme
 Reset frequency        DirectResetFreq ....    20
 Integral Threshold     Thresh          ....  2.500e-11 Eh
 Primitive CutOff       TCut            ....  2.500e-12 Eh

Convergence Tolerance:
 Convergence Check Mode ConvCheckMode   .... Total+1el-Energy
 Convergence forced     ConvForced      .... 0
 Energy Change          TolE            ....  1.000e-08 Eh
 1-El. energy change                    ....  1.000e-05 Eh
 Orbital Gradient       TolG            ....  1.000e-05
 Orbital Rotation angle TolX            ....  1.000e-05
 DIIS Error             TolErr          ....  5.000e-07

------------------------------
INITIAL GUESS: MODEL POTENTIAL
------------------------------
Loading Hartree-Fock densities                     ... done
Calculating cut-offs                               ... done
Initializing the effective Hamiltonian             ... done
Setting up the integral package (SHARK)            ... done
Starting the Coulomb interaction                   ... done (   0.2 sec)
Making the grid                                    ... done (   0.5 sec)
Mapping shells                                     ... done
Starting the XC term evaluation                    ... done (   0.2 sec)
  promolecular density results
     # of electrons  =    191.000381577
     EX              =   -197.371650440
     EC              =     -6.683821185
     EX+EC           =   -204.055471625
Transforming the Hamiltonian                       ... done (   0.1 sec)
Diagonalizing the Hamiltonian                      ... done (   0.1 sec)
Back transforming the eigenvectors                 ... done (   0.1 sec)
Now organizing SCF variables                       ... done
                      ------------------
                      INITIAL GUESS DONE (   1.3 sec)
                      ------------------
             **** ENERGY FILE WAS UPDATED (rf_mecn_opt_r2s_C8_P_B.en.tmp) ****
Finished Guess after   2.2 sec
Maximum memory used throughout the entire GUESS-calculation: 46.8 MB


           ************************************************************
           *        Program running with 20 parallel MPI-processes    *
           *              working on a common directory               *
           ************************************************************

-------------------------------------------------------------------------------------------
                                      ORCA LEAN-SCF
                              memory conserving SCF solver
-------------------------------------------------------------------------------------------

--------------------
CPCM SOLVATION MODEL
--------------------
CPCM parameters:
  Epsilon                                         ...      35.6880
  Refrac                                          ...       1.3442
  Rsolv                                           ...       1.3000
  Surface type                                    ... GAUSSIAN VDW
  Discretization scheme                           ... Constant charge density
    Threshold for H atoms                         ...       5.0000 (charges/Ang^2)
    Threshold for non-H atoms                     ...       5.0000 (charges/Ang^2)
  Epsilon function type                           ...         CPCM
Solvent:                                          ... ACETONITRILE
SMD-CDS solvent descriptors:
  Soln                                            ...       1.3442
  Soln25                                          ...       1.3416
  Sola                                            ...       0.0700
  Solb                                            ...       0.3200
  Solg                                            ...      41.2500
  Solc                                            ...       0.0000
  Solh                                            ...       0.0000
Radii:
  Scheme                                          ... Element-dependent radii
  Radius for C  used is    3.4960 Bohr (=   1.8500 Ang.)
  Radius for O  used is    4.0969 Bohr (=   2.1680 Ang.)
  Radius for F  used is    3.2692 Bohr (=   1.7300 Ang.)
  Radius for H  used is    2.2677 Bohr (=   1.2000 Ang.)
Calculating surface                               ...        done! (  0.0s)
Cavity surface points                             ...         2132
Cavity Volume                                     ...    2127.2962
Cavity Surface-area                               ...    1104.9996
Calculating surface distance matrix               ...        done! (  0.1s)
Performing Cholesky decomposition & store         ...        done! (  0.1s)
Overall time for CPCM initialization              ...                 0.2s

----------------------------------------D-I-I-S--------------------------------------------
Iteration    Energy (Eh)           Delta-E    RMSDP     MaxDP     DIISErr   Damp  Time(sec)
-------------------------------------------------------------------------------------------
               ***  Starting incremental Fock matrix formation  ***
    1    -1853.0156480630566875     0.00e+00  2.14e-04  1.61e-02  1.44e-01  0.850   8.0
Warning: op=1 Small HOMO/LUMO gap (   0.066) - skipping pre-diagonalization
         Will do a full diagonalization
    2    -1853.1510066703503981    -1.35e-01  2.03e-04  1.58e-02  8.92e-02  0.850   5.7
                               ***Turning on AO-DIIS***
    3    -1853.2184616727745379    -6.75e-02  9.16e-05  1.12e-02  5.19e-02  0.850   4.8
    4    -1853.2584415057363003    -4.00e-02  6.08e-05  9.94e-03  3.83e-02  0.850   4.6
    5    -1853.2868913097836412    -2.84e-02  5.05e-05  9.15e-03  3.04e-02  0.850   4.6
    6    -1853.3096243474228686    -2.27e-02  4.51e-05  8.50e-03  2.69e-02  0.850   4.5
    7    -1853.3287990676244590    -1.92e-02  2.80e-04  5.34e-02  2.29e-02  0.000   4.3
    8    -1853.4314410475135446    -1.03e-01  5.50e-05  7.62e-03  1.28e-02  0.000   4.8
    9    -1853.4315451790553197    -1.04e-04  2.00e-05  2.55e-03  1.21e-02  0.000   4.0
   10    -1853.4324573431349563    -9.12e-04  9.49e-06  1.67e-03  3.27e-03  0.000   4.0
                              *** Initializing SOSCF ***
---------------------------------------S-O-S-C-F--------------------------------------
Iteration    Energy (Eh)           Delta-E    RMSDP     MaxDP     MaxGrad    Time(sec)
--------------------------------------------------------------------------------------
   11    -1853.4325499151909753    -9.26e-05  4.70e-06  1.15e-03  8.08e-04     4.4
               *** Restarting incremental Fock matrix formation ***
   12    -1853.4325738173238278    -2.39e-05  3.50e-06  6.32e-04  3.00e-04     7.8
   13    -1853.4325750316265840    -1.21e-06  2.97e-06  6.53e-04  2.24e-04     4.8
   14    -1853.4325756493781228    -6.18e-07  1.53e-06  1.33e-04  1.99e-04     4.5
   15    -1853.4325758754721392    -2.26e-07  1.33e-06  1.92e-04  2.00e-04     4.4
   16    -1853.4325761615018564    -2.86e-07  8.66e-07  9.01e-05  6.26e-05     4.1
   17    -1853.4325762889711768    -1.27e-07  3.32e-07  3.27e-05  1.95e-05     4.1
   18    -1853.4325762769749417     1.20e-08  1.94e-07  2.75e-05  6.49e-06     3.6
   19    -1853.4325762965308968    -1.96e-08  1.12e-07  6.23e-06  3.30e-06     3.5
   20    -1853.4325762947210023     1.81e-09  6.45e-08  7.58e-06  2.09e-06     3.4
                 **** Energy Check signals convergence ****

               *****************************************************
               *                     SUCCESS                       *
               *           SCF CONVERGED AFTER  20 CYCLES          *
               *****************************************************

Recomputing exchange energy using gridx3       ... done (    8.970 sec)
Old exchange energy                            :    -19.881745947 Eh
New exchange energy                            :    -19.881755755 Eh
Exchange energy change after final integration :     -0.000009808 Eh
Total energy after final integration           :  -1853.432586103 Eh

SMD CDS free energy correction energy :                 4.03038     Kcal/mol
Total Energy after SMD CDS correction =             -1853.426163292 Eh
             **** ENERGY FILE WAS UPDATED (rf_mecn_opt_r2s_C8_P_B.en.tmp) ****

----------------
TOTAL SCF ENERGY
----------------

Total Energy       :      -1853.42616329220391 Eh          -50434.28993 eV

Components:
Nuclear Repulsion  :       2659.34468334745634 Eh           72364.44777 eV
Electronic Energy  :      -4512.76040417103104 Eh         -122798.45355 eV
One Electron Energy:      -7870.69250281429140 Eh         -214172.43132 eV
Two Electron Energy:       3357.93209864325991 Eh           91373.97777 eV
CPCM Dielectric    :         -0.01685547114611 Eh              -0.45866 eV
SMD CDS (Gcds)     :          0.00642281100933 Eh               0.17477 eV

Virial components:
Potential Energy   :      -3699.17231529514538 Eh         -100659.59613 eV
Kinetic Energy     :       1845.74615200294124 Eh           50225.30620 eV
Virial Ratio       :          2.00416092499011

DFT components:
N(Alpha)           :       95.999989562485 electrons
N(Beta)            :       94.999973036096 electrons
N(Total)           :      190.999962598581 electrons
E(X)               :     -179.950252718372 Eh       
E(C)               :       -6.626312324246 Eh       
E(XC)              :     -186.576565042618 Eh       

CPCM Solvation Model Properties:
Surface-charge          :         -0.00870003251884
Corrected charge        :          0.00000000000000
Outlying charge corr.   :          0.00000414445324 Eh               0.00011 eV
Free-energy (cav+disp)  :          0.00642281100933 Eh               0.17477 eV

---------------
SCF CONVERGENCE
---------------

  Last Energy change         ...   -1.8099e-09  Tolerance :   1.0000e-08
  Last MAX-Density change    ...    7.5814e-06  Tolerance :   1.0000e-07
  Last RMS-Density change    ...    6.4539e-08  Tolerance :   5.0000e-09
  Last DIIS Error            ...    8.0782e-04  Tolerance :   5.0000e-07
  Last Orbital Gradient      ...    2.0903e-06  Tolerance :   1.0000e-05
  Last Orbital Rotation      ...    6.6608e-06  Tolerance :   1.0000e-05


----------------------
UHF SPIN CONTAMINATION
----------------------

Warning: in a DFT calculation there is little theoretical justification to 
         calculate <S**2> as in Hartree-Fock theory. We will do it anyways
         but you should keep in mind that the values have only limited relevance

Expectation value of <S**2>     :     0.753759
Ideal value S*(S+1) for S=0.5   :     0.750000
Deviation                       :     0.003759

----------------
ORBITAL ENERGIES
----------------
                 SPIN UP ORBITALS
  NO   OCC          E(Eh)            E(eV) 
   0   1.0000     -24.734066      -673.0482 
   1   1.0000     -24.734047      -673.0476 
   2   1.0000     -24.733841      -673.0420 
   3   1.0000     -24.733675      -673.0375 
   4   1.0000     -24.733482      -673.0322 
   5   1.0000     -24.733464      -673.0318 
   6   1.0000     -24.733394      -673.0299 
   7   1.0000     -24.732060      -672.9936 
   8   1.0000     -24.730814      -672.9597 
   9   1.0000     -24.729766      -672.9311 
  10   1.0000     -24.728198      -672.8885 
  11   1.0000     -24.727816      -672.8781 
  12   1.0000     -24.721995      -672.7197 
  13   1.0000     -24.721908      -672.7173 
  14   1.0000     -19.195010      -522.3228 
  15   1.0000     -19.161484      -521.4105 
  16   1.0000     -10.395232      -282.8686 
  17   1.0000     -10.394478      -282.8481 
  18   1.0000     -10.393994      -282.8349 
  19   1.0000     -10.393321      -282.8167 
  20   1.0000     -10.392686      -282.7994 
  21   1.0000     -10.391390      -282.7641 
  22   1.0000     -10.390091      -282.7288 
  23   1.0000     -10.372648      -282.2541 
  24   1.0000      -1.338129       -36.4123 
  25   1.0000      -1.327875       -36.1333 
  26   1.0000      -1.318474       -35.8775 
  27   1.0000      -1.310834       -35.6696 
  28   1.0000      -1.308618       -35.6093 
  29   1.0000      -1.305012       -35.5112 
  30   1.0000      -1.291075       -35.1319 
  31   1.0000      -1.269799       -34.5530 
  32   1.0000      -1.262368       -34.3508 
  33   1.0000      -1.258125       -34.2353 
  34   1.0000      -1.256544       -34.1923 
  35   1.0000      -1.253328       -34.1048 
  36   1.0000      -1.253026       -34.0966 
  37   1.0000      -1.237988       -33.6874 
  38   1.0000      -1.095324       -29.8053 
  39   1.0000      -1.006763       -27.3954 
  40   1.0000      -0.850279       -23.1373 
  41   1.0000      -0.832361       -22.6497 
  42   1.0000      -0.805577       -21.9209 
  43   1.0000      -0.771070       -20.9819 
  44   1.0000      -0.736166       -20.0321 
  45   1.0000      -0.702072       -19.1044 
  46   1.0000      -0.674275       -18.3479 
  47   1.0000      -0.670581       -18.2474 
  48   1.0000      -0.635607       -17.2957 
  49   1.0000      -0.633629       -17.2419 
  50   1.0000      -0.623806       -16.9746 
  51   1.0000      -0.615400       -16.7459 
  52   1.0000      -0.612736       -16.6734 
  53   1.0000      -0.609527       -16.5861 
  54   1.0000      -0.597703       -16.2643 
  55   1.0000      -0.592387       -16.1197 
  56   1.0000      -0.588820       -16.0226 
  57   1.0000      -0.582874       -15.8608 
  58   1.0000      -0.580433       -15.7944 
  59   1.0000      -0.573119       -15.5953 
  60   1.0000      -0.570984       -15.5373 
  61   1.0000      -0.562284       -15.3005 
  62   1.0000      -0.542187       -14.7537 
  63   1.0000      -0.503851       -13.7105 
  64   1.0000      -0.500218       -13.6116 
  65   1.0000      -0.494963       -13.4686 
  66   1.0000      -0.492375       -13.3982 
  67   1.0000      -0.488739       -13.2993 
  68   1.0000      -0.484668       -13.1885 
  69   1.0000      -0.478647       -13.0246 
  70   1.0000      -0.474791       -12.9197 
  71   1.0000      -0.471259       -12.8236 
  72   1.0000      -0.470526       -12.8037 
  73   1.0000      -0.465472       -12.6661 
  74   1.0000      -0.461588       -12.5604 
  75   1.0000      -0.457832       -12.4582 
  76   1.0000      -0.454129       -12.3575 
  77   1.0000      -0.449748       -12.2383 
  78   1.0000      -0.443044       -12.0558 
  79   1.0000      -0.439932       -11.9711 
  80   1.0000      -0.438870       -11.9423 
  81   1.0000      -0.437341       -11.9006 
  82   1.0000      -0.435269       -11.8443 
  83   1.0000      -0.432524       -11.7696 
  84   1.0000      -0.431175       -11.7329 
  85   1.0000      -0.429195       -11.6790 
  86   1.0000      -0.425870       -11.5885 
  87   1.0000      -0.424177       -11.5424 
  88   1.0000      -0.420594       -11.4449 
  89   1.0000      -0.408538       -11.1169 
  90   1.0000      -0.381966       -10.3938 
  91   1.0000      -0.355687        -9.6787 
  92   1.0000      -0.338894        -9.2218 
  93   1.0000      -0.336325        -9.1519 
  94   1.0000      -0.307225        -8.3600 
  95   1.0000      -0.280160        -7.6235 
  96   0.0000      -0.112140        -3.0515 
  97   0.0000      -0.035933        -0.9778 
  98   0.0000      -0.014194        -0.3862 
  99   0.0000      -0.004286        -0.1166 
 100   0.0000       0.017100         0.4653 
 101   0.0000       0.028641         0.7794 
 102   0.0000       0.065591         1.7848 
 103   0.0000       0.071672         1.9503 
 104   0.0000       0.099317         2.7025 
 105   0.0000       0.109442         2.9781 
 106   0.0000       0.110592         3.0094 

                 SPIN DOWN ORBITALS
  NO   OCC          E(Eh)            E(eV) 
   0   1.0000     -24.734064      -673.0481 
   1   1.0000     -24.734049      -673.0477 
   2   1.0000     -24.733674      -673.0375 
   3   1.0000     -24.733492      -673.0325 
   4   1.0000     -24.733331      -673.0281 
   5   1.0000     -24.732060      -672.9936 
   6   1.0000     -24.730814      -672.9597 
   7   1.0000     -24.729697      -672.9293 
   8   1.0000     -24.729406      -672.9214 
   9   1.0000     -24.728406      -672.8941 
  10   1.0000     -24.728199      -672.8885 
  11   1.0000     -24.727957      -672.8819 
  12   1.0000     -24.721995      -672.7197 
  13   1.0000     -24.721908      -672.7173 
  14   1.0000     -19.195010      -522.3228 
  15   1.0000     -19.161484      -521.4105 
  16   1.0000     -10.395212      -282.8681 
  17   1.0000     -10.394478      -282.8481 
  18   1.0000     -10.393993      -282.8349 
  19   1.0000     -10.393422      -282.8194 
  20   1.0000     -10.392686      -282.7994 
  21   1.0000     -10.391390      -282.7641 
  22   1.0000     -10.388786      -282.6932 
  23   1.0000     -10.354961      -281.7728 
  24   1.0000      -1.337714       -36.4010 
  25   1.0000      -1.325731       -36.0750 
  26   1.0000      -1.315570       -35.7985 
  27   1.0000      -1.310469       -35.6597 
  28   1.0000      -1.308143       -35.5964 
  29   1.0000      -1.301371       -35.4121 
  30   1.0000      -1.291074       -35.1319 
  31   1.0000      -1.269733       -34.5512 
  32   1.0000      -1.262110       -34.3438 
  33   1.0000      -1.256428       -34.1892 
  34   1.0000      -1.253209       -34.1015 
  35   1.0000      -1.252553       -34.0837 
  36   1.0000      -1.250940       -34.0398 
  37   1.0000      -1.237988       -33.6874 
  38   1.0000      -1.095324       -29.8053 
  39   1.0000      -1.006763       -27.3954 
  40   1.0000      -0.849845       -23.1255 
  41   1.0000      -0.830471       -22.5983 
  42   1.0000      -0.801414       -21.8076 
  43   1.0000      -0.766021       -20.8445 
  44   1.0000      -0.731833       -19.9142 
  45   1.0000      -0.697819       -18.9886 
  46   1.0000      -0.671110       -18.2618 
  47   1.0000      -0.667853       -18.1732 
  48   1.0000      -0.634138       -17.2558 
  49   1.0000      -0.633123       -17.2281 
  50   1.0000      -0.623548       -16.9676 
  51   1.0000      -0.614564       -16.7231 
  52   1.0000      -0.611395       -16.6369 
  53   1.0000      -0.606942       -16.5157 
  54   1.0000      -0.595521       -16.2050 
  55   1.0000      -0.589909       -16.0522 
  56   1.0000      -0.587498       -15.9866 
  57   1.0000      -0.580388       -15.7931 
  58   1.0000      -0.576853       -15.6970 
  59   1.0000      -0.571410       -15.5489 
  60   1.0000      -0.569055       -15.4848 
  61   1.0000      -0.562247       -15.2995 
  62   1.0000      -0.511097       -13.9077 
  63   1.0000      -0.503304       -13.6956 
  64   1.0000      -0.499630       -13.5956 
  65   1.0000      -0.494326       -13.4513 
  66   1.0000      -0.490451       -13.3458 
  67   1.0000      -0.488096       -13.2818 
  68   1.0000      -0.484375       -13.1805 
  69   1.0000      -0.477555       -12.9949 
  70   1.0000      -0.474525       -12.9125 
  71   1.0000      -0.470830       -12.8119 
  72   1.0000      -0.468578       -12.7507 
  73   1.0000      -0.464551       -12.6411 
  74   1.0000      -0.457615       -12.4523 
  75   1.0000      -0.453766       -12.3476 
  76   1.0000      -0.449992       -12.2449 
  77   1.0000      -0.447086       -12.1658 
  78   1.0000      -0.442947       -12.0532 
  79   1.0000      -0.439746       -11.9661 
  80   1.0000      -0.437278       -11.8989 
  81   1.0000      -0.435293       -11.8449 
  82   1.0000      -0.434608       -11.8263 
  83   1.0000      -0.431698       -11.7471 
  84   1.0000      -0.430736       -11.7209 
  85   1.0000      -0.429088       -11.6761 
  86   1.0000      -0.425127       -11.5683 
  87   1.0000      -0.423697       -11.5294 
  88   1.0000      -0.419029       -11.4024 
  89   1.0000      -0.405484       -11.0338 
  90   1.0000      -0.378443       -10.2979 
  91   1.0000      -0.354097        -9.6355 
  92   1.0000      -0.336823        -9.1654 
  93   1.0000      -0.336274        -9.1505 
  94   1.0000      -0.307175        -8.3587 
  95   0.0000      -0.113429        -3.0866 
  96   0.0000      -0.111991        -3.0474 
  97   0.0000      -0.034669        -0.9434 
  98   0.0000      -0.013300        -0.3619 
  99   0.0000      -0.002977        -0.0810 
 100   0.0000       0.019519         0.5311 
 101   0.0000       0.033271         0.9054 
 102   0.0000       0.071595         1.9482 
 103   0.0000       0.077204         2.1008 
 104   0.0000       0.103781         2.8240 
 105   0.0000       0.110429         3.0049 
*Only the first 10 virtual orbitals were printed.

                    ********************************
                    * MULLIKEN POPULATION ANALYSIS *
                    ********************************

--------------------------------------------
MULLIKEN ATOMIC CHARGES AND SPIN POPULATIONS
--------------------------------------------
   0 C :    0.382525    0.000000
   1 O :   -0.455631    0.000001
   2 O :   -0.393881    0.000000
   3 C :    0.370596    0.000010
   4 C :    0.326182   -0.000007
   5 C :    0.331072    0.000032
   6 C :    0.320217   -0.000093
   7 C :    0.311434   -0.001354
   8 C :    0.378375    0.011767
   9 C :    0.276026    0.837072
  10 F :   -0.176423    0.000000
  11 F :   -0.176084    0.000000
  12 F :   -0.165677    0.000002
  13 F :   -0.170150   -0.000000
  14 F :   -0.164325    0.000007
  15 F :   -0.165049   -0.000007
  16 F :   -0.164119    0.000048
  17 F :   -0.163543   -0.000009
  18 F :   -0.166037   -0.000050
  19 F :   -0.165262    0.000892
  20 F :   -0.170617   -0.002613
  21 F :   -0.162303    0.026956
  22 F :   -0.153250    0.064827
  23 F :   -0.150198    0.062517
  24 H :    0.466122    0.000000
Sum of atomic charges         :   -0.0000000
Sum of atomic spin populations:    1.0000000

-----------------------------------------------------
MULLIKEN REDUCED ORBITAL CHARGES AND SPIN POPULATIONS
-----------------------------------------------------
CHARGE
  0 C s       :     3.169161  s :     3.169161
      pz      :     0.775263  p :     2.219056
      px      :     0.790794
      py      :     0.652999
      dz2     :     0.015540  d :     0.211214
      dxz     :     0.014497
      dyz     :     0.060068
      dx2y2   :     0.053251
      dxy     :     0.067857
      f0      :     0.001820  f :     0.018044
      f+1     :     0.001149
      f-1     :     0.002317
      f+2     :     0.002603
      f-2     :     0.001966
      f+3     :     0.003812
      f-3     :     0.004376

  1 O s       :     3.684752  s :     3.684752
      pz      :     1.718588  p :     4.753163
      px      :     1.684345
      py      :     1.350230
      dz2     :     0.001741  d :     0.014829
      dxz     :     0.001256
      dyz     :     0.003215
      dx2y2   :     0.003298
      dxy     :     0.005320
      f0      :     0.000283  f :     0.002887
      f+1     :     0.000134
      f-1     :     0.000389
      f+2     :     0.000246
      f-2     :     0.000445
      f+3     :     0.000930
      f-3     :     0.000461

  2 O s       :     3.899344  s :     3.899344
      pz      :     1.539646  p :     4.468054
      px      :     1.690978
      py      :     1.237430
      dz2     :     0.003282  d :     0.025180
      dxz     :     0.000340
      dyz     :     0.006626
      dx2y2   :     0.009252
      dxy     :     0.005680
      f0      :     0.000119  f :     0.001303
      f+1     :     0.000015
      f-1     :     0.000231
      f+2     :     0.000222
      f-2     :     0.000031
      f+3     :     0.000292
      f-3     :     0.000393

  3 C s       :     3.107112  s :     3.107112
      pz      :     0.679036  p :     2.235580
      px      :     0.914347
      py      :     0.642198
      dz2     :     0.045791  d :     0.261976
      dxz     :     0.052654
      dyz     :     0.066100
      dx2y2   :     0.044216
      dxy     :     0.053215
      f0      :     0.005251  f :     0.024736
      f+1     :     0.003534
      f-1     :     0.003772
      f+2     :     0.003562
      f-2     :     0.001996
      f+3     :     0.003654
      f-3     :     0.002967

  4 C s       :     3.122796  s :     3.122796
      pz      :     0.608409  p :     2.242295
      px      :     0.934164
      py      :     0.699723
      dz2     :     0.061590  d :     0.281860
      dxz     :     0.059301
      dyz     :     0.069357
      dx2y2   :     0.032883
      dxy     :     0.058729
      f0      :     0.003471  f :     0.026866
      f+1     :     0.004837
      f-1     :     0.007885
      f+2     :     0.002114
      f-2     :     0.002613
      f+3     :     0.003485
      f-3     :     0.002462

  5 C s       :     3.149137  s :     3.149137
      pz      :     0.587725  p :     2.204515
      px      :     0.908811
      py      :     0.707978
      dz2     :     0.076345  d :     0.288146
      dxz     :     0.061776
      dyz     :     0.059792
      dx2y2   :     0.031615
      dxy     :     0.058618
      f0      :     0.004756  f :     0.027131
      f+1     :     0.004321
      f-1     :     0.005995
      f+2     :     0.003080
      f-2     :     0.004295
      f+3     :     0.002524
      f-3     :     0.002159

  6 C s       :     3.144519  s :     3.144519
      pz      :     0.580161  p :     2.221334
      px      :     0.922970
      py      :     0.718203
      dz2     :     0.081626  d :     0.286838
      dxz     :     0.061425
      dyz     :     0.054644
      dx2y2   :     0.031433
      dxy     :     0.057710
      f0      :     0.005933  f :     0.027092
      f+1     :     0.003850
      f-1     :     0.004198
      f+2     :     0.003951
      f-2     :     0.005139
      f+3     :     0.002081
      f-3     :     0.001938

  7 C s       :     3.146773  s :     3.146773
      pz      :     0.585494  p :     2.229338
      px      :     0.929489
      py      :     0.714356
      dz2     :     0.074316  d :     0.285383
      dxz     :     0.061012
      dyz     :     0.060717
      dx2y2   :     0.031739
      dxy     :     0.057599
      f0      :     0.004580  f :     0.027072
      f+1     :     0.004289
      f-1     :     0.006302
      f+2     :     0.002937
      f-2     :     0.004208
      f+3     :     0.002616
      f-3     :     0.002141

  8 C s       :     3.096484  s :     3.096484
      pz      :     0.605349  p :     2.214169
      px      :     0.922478
      py      :     0.686342
      dz2     :     0.058170  d :     0.283796
      dxz     :     0.063340
      dyz     :     0.071851
      dx2y2   :     0.033154
      dxy     :     0.057281
      f0      :     0.003484  f :     0.027176
      f+1     :     0.004927
      f-1     :     0.008099
      f+2     :     0.002089
      f-2     :     0.002373
      f+3     :     0.003720
      f-3     :     0.002484

  9 C s       :     3.285738  s :     3.285738
      pz      :     0.899520  p :     2.204455
      px      :     0.727142
      py      :     0.577793
      dz2     :     0.032830  d :     0.208460
      dxz     :     0.024973
      dyz     :     0.041607
      dx2y2   :     0.052631
      dxy     :     0.056419
      f0      :     0.001616  f :     0.025321
      f+1     :     0.002990
      f-1     :     0.003563
      f+2     :     0.004218
      f-2     :     0.002981
      f+3     :     0.006762
      f-3     :     0.003190

 10 F s       :     3.930955  s :     3.930955
      pz      :     1.893581  p :     5.229524
      px      :     1.882269
      py      :     1.453674
      dz2     :     0.002155  d :     0.015327
      dxz     :     0.000304
      dyz     :     0.002945
      dx2y2   :     0.005818
      dxy     :     0.004105
      f0      :     0.000049  f :     0.000618
      f+1     :     0.000015
      f-1     :     0.000122
      f+2     :     0.000071
      f-2     :     0.000018
      f+3     :     0.000166
      f-3     :     0.000176

 11 F s       :     3.931464  s :     3.931464
      pz      :     1.467003  p :     5.229200
      px      :     1.896468
      py      :     1.865729
      dz2     :     0.006675  d :     0.014815
      dxz     :     0.003507
      dyz     :     0.003721
      dx2y2   :     0.000456
      dxy     :     0.000456
      f0      :     0.000215  f :     0.000606
      f+1     :     0.000135
      f-1     :     0.000174
      f+2     :     0.000038
      f-2     :     0.000038
      f+3     :     0.000003
      f-3     :     0.000003

 12 F s       :     3.929774  s :     3.929774
      pz      :     1.807584  p :     5.218629
      px      :     1.898515
      py      :     1.512530
      dz2     :     0.002114  d :     0.016587
      dxz     :     0.000818
      dyz     :     0.005353
      dx2y2   :     0.004924
      dxy     :     0.003378
      f0      :     0.000076  f :     0.000687
      f+1     :     0.000004
      f-1     :     0.000122
      f+2     :     0.000180
      f-2     :     0.000064
      f+3     :     0.000109
      f-3     :     0.000131

 13 F s       :     3.931670  s :     3.931670
      pz      :     1.441549  p :     5.221375
      px      :     1.901549
      py      :     1.878277
      dz2     :     0.008461  d :     0.016429
      dxz     :     0.003814
      dyz     :     0.003593
      dx2y2   :     0.000275
      dxy     :     0.000286
      f0      :     0.000330  f :     0.000677
      f+1     :     0.000155
      f-1     :     0.000161
      f+2     :     0.000011
      f-2     :     0.000018
      f+3     :     0.000001
      f-3     :     0.000001

 14 F s       :     3.929643  s :     3.929643
      pz      :     1.702440  p :     5.217258
      px      :     1.897861
      py      :     1.616956
      dz2     :     0.002738  d :     0.016733
      dxz     :     0.001665
      dyz     :     0.006587
      dx2y2   :     0.003145
      dxy     :     0.002599
      f0      :     0.000078  f :     0.000690
      f+1     :     0.000014
      f-1     :     0.000184
      f+2     :     0.000189
      f-2     :     0.000106
      f+3     :     0.000060
      f-3     :     0.000061

 15 F s       :     3.929577  s :     3.929577
      pz      :     1.495077  p :     5.218078
      px      :     1.901385
      py      :     1.821616
      dz2     :     0.006870  d :     0.016705
      dxz     :     0.003378
      dyz     :     0.005006
      dx2y2   :     0.000637
      dxy     :     0.000815
      f0      :     0.000227  f :     0.000689
      f+1     :     0.000109
      f-1     :     0.000234
      f+2     :     0.000050
      f-2     :     0.000060
      f+3     :     0.000005
      f-3     :     0.000004

 16 F s       :     3.930138  s :     3.930138
      pz      :     1.587589  p :     5.216547
      px      :     1.897402
      py      :     1.731556
      dz2     :     0.004576  d :     0.016744
      dxz     :     0.002671
      dyz     :     0.006340
      dx2y2   :     0.001564
      dxy     :     0.001593
      f0      :     0.000119  f :     0.000690
      f+1     :     0.000056
      f-1     :     0.000252
      f+2     :     0.000123
      f-2     :     0.000102
      f+3     :     0.000021
      f-3     :     0.000018

 17 F s       :     3.930039  s :     3.930039
      pz      :     1.598639  p :     5.216039
      px      :     1.897781
      py      :     1.719620
      dz2     :     0.004351  d :     0.016774
      dxz     :     0.002565
      dyz     :     0.006460
      dx2y2   :     0.001704
[...]
      dz2     :     0.000000  d :     0.000000
      dxz     :    -0.000001
      dyz     :     0.000001
      dx2y2   :     0.000000
      dxy     :     0.000001
      f0      :     0.000000  f :    -0.000000
      f+1     :    -0.000000
      f-1     :    -0.000000
      f+2     :     0.000000
      f-2     :    -0.000000
      f+3     :    -0.000000
      f-3     :    -0.000000

 17 F s       :    -0.000003  s :    -0.000003
      pz      :     0.000012  p :    -0.000046
      px      :    -0.000047
      py      :    -0.000012
      dz2     :    -0.000001  d :    -0.000006
      dxz     :    -0.000003
      dyz     :    -0.000001
      dx2y2   :     0.000000
      dxy     :    -0.000001
      f0      :    -0.000000  f :    -0.000000
      f+1     :    -0.000000
      f-1     :    -0.000000
      f+2     :     0.000000
      f-2     :    -0.000000
      f+3     :    -0.000000
      f-3     :     0.000000

 18 F s       :     0.000001  s :     0.000001
      pz      :     0.000022  p :     0.000542
      px      :     0.000127
      py      :     0.000393
      dz2     :    -0.000005  d :    -0.000016
      dxz     :     0.000004
      dyz     :    -0.000004
      dx2y2   :    -0.000007
      dxy     :    -0.000003
      f0      :    -0.000000  f :    -0.000001
      f+1     :     0.000000
      f-1     :    -0.000000
      f+2     :    -0.000000
      f-2     :    -0.000000
      f+3     :    -0.000000
      f-3     :    -0.000000

 19 F s       :     0.000607  s :     0.000607
      pz      :     0.000091  p :     0.004074
      px      :     0.003637
      py      :     0.000346
      dz2     :     0.000018  d :     0.000071
      dxz     :    -0.000006
      dyz     :    -0.000002
      dx2y2   :     0.000049
      dxy     :     0.000012
      f0      :    -0.000000  f :    -0.000000
      f+1     :     0.000000
      f-1     :    -0.000000
      f+2     :    -0.000001
      f-2     :    -0.000000
      f+3     :     0.000000
      f-3     :     0.000000

 20 F s       :    -0.000045  s :    -0.000045
      pz      :     0.000964  p :     0.000152
      px      :    -0.001422
      py      :     0.000609
      dz2     :    -0.000071  d :    -0.000095
      dxz     :     0.000094
      dyz     :     0.000033
      dx2y2   :    -0.000018
      dxy     :    -0.000133
      f0      :     0.000001  f :    -0.000004
      f+1     :    -0.000000
      f-1     :    -0.000004
      f+2     :     0.000001
      f-2     :     0.000003
      f+3     :    -0.000005
      f-3     :     0.000001

 21 F s       :     0.001657  s :     0.001657
      pz      :     0.013863  p :     0.030130
      px      :     0.007745
      py      :     0.008522
      dz2     :     0.000106  d :     0.000970
      dxz     :     0.000385
      dyz     :     0.000413
      dx2y2   :     0.000010
      dxy     :     0.000055
      f0      :    -0.000001  f :     0.000053
      f+1     :     0.000024
      f-1     :     0.000022
      f+2     :     0.000004
      f-2     :     0.000005
      f+3     :     0.000000
      f-3     :    -0.000000

 22 F s       :     0.003999  s :     0.003999
      pz      :     0.076858  p :     0.072442
      px      :     0.000374
      py      :    -0.004790
      dz2     :     0.003463  d :     0.009360
      dxz     :     0.000283
      dyz     :     0.004826
      dx2y2   :     0.000716
      dxy     :     0.000071
      f0      :    -0.000001  f :     0.000495
      f+1     :     0.000015
      f-1     :     0.000347
      f+2     :     0.000072
      f-2     :     0.000020
      f+3     :     0.000011
      f-3     :     0.000032

 23 F s       :     0.004066  s :     0.004066
      pz      :     0.072516  p :     0.072872
      px      :    -0.003515
      py      :     0.003872
      dz2     :     0.000209  d :     0.009363
      dxz     :     0.005489
      dyz     :     0.002743
      dx2y2   :     0.000256
      dxy     :     0.000666
      f0      :     0.000164  f :     0.000497
      f+1     :     0.000007
      f-1     :    -0.000001
      f+2     :     0.000028
      f-2     :     0.000258
      f+3     :     0.000021
      f-3     :     0.000021

 24 H s       :    -0.000000  s :    -0.000000
      pz      :    -0.000000  p :    -0.000000
      px      :     0.000000
      py      :     0.000000



                      *****************************
                      * MAYER POPULATION ANALYSIS *
                      *****************************

  NA   - Mulliken gross atomic population
  ZA   - Total nuclear charge
  QA   - Mulliken gross atomic charge
  VA   - Mayer's total valence
  BVA  - Mayer's bonded valence
  FA   - Mayer's free valence

  ATOM       NA         ZA         QA         VA         BVA        FA
  0 C      5.7187     6.0000     0.2813     4.3370     4.3370     0.0000
  1 O      8.3650     8.0000    -0.3650     2.1750     2.1750     0.0000
  2 O      8.3263     8.0000    -0.3263     2.1850     2.1850     0.0000
  3 C      5.5862     6.0000     0.4138     4.1205     4.1205     0.0000
  4 C      5.7121     6.0000     0.2879     4.1944     4.1944     0.0000
  5 C      5.6792     6.0000     0.3208     4.1991     4.1991     0.0000
  6 C      5.6711     6.0000     0.3289     4.1919     4.1919     0.0000
  7 C      5.6928     6.0000     0.3072     4.1647     4.1647     0.0000
  8 C      5.6126     6.0000     0.3874     4.1381     4.1361     0.0021
  9 C      5.7357     6.0000     0.2643     3.9960     3.2803     0.7158
 10 F      9.1738     9.0000    -0.1738     1.1398     1.1398     0.0000
 11 F      9.1699     9.0000    -0.1699     1.1469     1.1469     0.0000
 12 F      9.1657     9.0000    -0.1657     1.1596     1.1596     0.0000
 13 F      9.1679     9.0000    -0.1679     1.1542     1.1542     0.0000
 14 F      9.1634     9.0000    -0.1634     1.1596     1.1596     0.0000
 15 F      9.1621     9.0000    -0.1621     1.1610     1.1610     0.0000
 16 F      9.1621     9.0000    -0.1621     1.1616     1.1616     0.0000
 17 F      9.1629     9.0000    -0.1629     1.1599     1.1599     0.0000
 18 F      9.1649     9.0000    -0.1649     1.1590     1.1590     0.0000
 19 F      9.1625     9.0000    -0.1625     1.1591     1.1590     0.0001
 20 F      9.1692     9.0000    -0.1692     1.1433     1.1433     0.0000
 21 F      9.1718     9.0000    -0.1718     1.1414     1.1403     0.0012
 22 F      9.1472     9.0000    -0.1472     1.1640     1.1579     0.0062
 23 F      9.1462     9.0000    -0.1462     1.1664     1.1602     0.0062
 24 H      0.6107     1.0000     0.3893     0.8742     0.8742     0.0000

  Mayer bond orders larger than 0.100000
B(  0-C ,  1-O ) :   1.2962 B(  0-C ,  2-O ) :   2.0426 B(  0-C ,  3-C ) :   0.8816 
B(  1-O , 24-H ) :   0.8170 B(  3-C ,  4-C ) :   0.9504 B(  3-C , 10-F ) :   1.0805 
B(  3-C , 11-F ) :   1.1005 B(  4-C ,  5-C ) :   0.9316 B(  4-C , 12-F ) :   1.0829 
B(  4-C , 13-F ) :   1.0776 B(  5-C ,  6-C ) :   0.9319 B(  5-C , 14-F ) :   1.0817 
B(  5-C , 15-F ) :   1.0849 B(  6-C ,  7-C ) :   0.9312 B(  6-C , 16-F ) :   1.0859 
B(  6-C , 17-F ) :   1.0813 B(  7-C ,  8-C ) :   0.9291 B(  7-C , 18-F ) :   1.0792 
B(  7-C , 19-F ) :   1.0882 B(  8-C ,  9-C ) :   0.9517 B(  8-C , 20-F ) :   1.0725 
B(  8-C , 21-F ) :   1.0728 B(  9-C , 22-F ) :   1.1155 B(  9-C , 23-F ) :   1.1191 


-------
TIMINGS
-------

Total SCF time: 0 days 0 hours 0 min 48 sec 

Total time                  ....      48.343 sec
Sum of individual times     ....      47.209 sec  ( 97.7%)

SCF preparation             ....       1.462 sec  (  3.0%)
Fock matrix formation       ....      40.111 sec  ( 83.0%)
  Startup                   ....       0.190 sec  (  0.5% of F)
  Split-RI-J                ....       2.579 sec  (  6.4% of F)
  Chain of spheres X        ....      25.922 sec  ( 64.6% of F)
  XC integration            ....       8.704 sec  ( 21.7% of F)
    XC Preparation          ....       0.000 sec  (  0.0% of XC)
    Basis function eval.    ....       0.594 sec  (  6.8% of XC)
    Density eval.           ....       2.818 sec  ( 32.4% of XC)
    XC-Functional eval.     ....       0.183 sec  (  2.1% of XC)
    XC-Potential eval.      ....       2.731 sec  ( 31.4% of XC)
  CPCM terms                ....       2.256 sec  (  5.6% of F)
Diagonalization             ....       0.000 sec  (  0.0%)
Density matrix formation    ....       0.465 sec  (  1.0%)
Total Energy calculation    ....       0.336 sec  (  0.7%)
Population analysis         ....       0.552 sec  (  1.1%)
Orbital Transformation      ....       0.503 sec  (  1.0%)
Orbital Orthonormalization  ....       0.000 sec  (  0.0%)
DIIS solution               ....       0.729 sec  (  1.5%)
SOSCF solution              ....       3.052 sec  (  6.3%)
Finished LeanSCF after  48.9 sec

Maximum memory used throughout the entire LEANSCF-calculation: 110.1 MB


-------------------------------------------------------------------------------
                          DFT DISPERSION CORRECTION                            
                                                                               
                              DFTD3 V3.1  Rev 1                                
                          USING Becke-Johnson damping                          
-------------------------------------------------------------------------------
The R2SCANh functional is recognized
Active option DFTDOPT                   ...         4   

molecular C6(AA) [au] = 6518.446317 


            DFT-D V3
 parameters
 s6 scaling factor         :     1.0000 
 a1 scaling factor         :     0.4709 
 s8 scaling factor         :     1.1236 
 a2 scaling factor         :     5.9157 
 ad hoc parameters k1-k3   :    16.0000     1.3333    -4.0000 

 Edisp/kcal,au: -5.236751349337  -0.008345293589 
 E6   /kcal   :  -3.824989697 
 E8   /kcal   :  -1.411761652 
 % E8         :  26.958729908 

-------------------------   ----------------
Dispersion correction           -0.008345294
-------------------------   ----------------


-------------------------   --------------------
FINAL SINGLE POINT ENERGY     -1853.549781728824
-------------------------   --------------------

                                *** OPTIMIZATION RUN DONE ***



           ************************************************************
           *        Program running with 20 parallel MPI-processes    *
           *              working on a common directory               *
           ************************************************************

------------------------------------------------------------------------------
                              ORCA PROPERTY CALCULATIONS
------------------------------------------------------------------------------

GBWName                                 ... rf_mecn_opt_r2s_C8_P_B.gbw
Number of atoms                         ...     25
Number of basis functions               ...    750
Max core memory                         ...   8000 MB

Electric properties:
Dipole moment                           ... YES
Quadrupole moment                       ...  NO
Static polarizability (Dipole/Dipole)   ...  NO
Static polarizability (Dipole/Quad.)    ...  NO
Static polarizability (Quad./Quad.)     ...  NO
Static polarizability (Velocity)        ...  NO

Atomic electric properties:
Dipole moment                           ...  NO
Quadrupole moment                       ...  NO
Static polarizability                   ...  NO

Choice of electric origin               ... Center of mass
Position of electric origin             ...     0.318649    -0.132138     0.171485

General magnetic properties:
Magnetizability                         ...  NO

EPR properties:
g-Tensor (aka g-matrix)                 ...  NO
Zero-Field splitting spin-orbit         ...  NO
Zero-field splitting spin-spin          ...  NO
Hyperfine couplings                     ...  NO (   0 nuclei)
Quadrupole couplings                    ...  NO (   0 nuclei)
Contact density                         ...  NO (   0 nuclei)

NMR properties:
Chemical shifts                         ...  NO (   0 nuclei)
Spin-rotation constants                 ...  NO (   0 nuclei)
Spin-spin couplings                     ...  NO (   0 nuclei,    0 pairs)

Choice of magnetic origin               ... GIAO
Position of magnetic origin             ...     0.000000     0.000000     0.000000

Properties with geometric perturbations:
SCF Hessian                             ...  NO
IR spectrum                             ...  NO
VCD spectrum                            ...  NO
X-ray spectroscopy properties:
SCF XES/XAS/RIXS spectra                ...  NO


-------------
DIPOLE MOMENT
-------------

Method             : SCF
Type of density    : Electron Density
Multiplicity       :   2
Irrep              :   0
Energy             : -1853.5414364352354823 Eh
Relativity type    : 
Basis              : AO
                                X                 Y                 Z
Electronic contribution:    -13.451575406      -0.258817807       2.066575920
Nuclear contribution   :     13.999938031      -0.275992413      -3.072490769
                        -----------------------------------------
Total Dipole Moment    :      0.548362624      -0.534810220      -1.005914849
                        -----------------------------------------
Magnitude (a.u.)       :      1.264352887
Magnitude (Debye)      :      3.213729639



--------------------
Rotational spectrum 
--------------------
 
Rotational constants in cm-1:             0.022829             0.004134             0.004038 
Rotational constants in MHz :           684.406755           123.942234           121.052785 

Dipole components along the rotational axes: 
x,y,z [a.u.] :    -0.596837     0.398569     1.040921 
x,y,z [Debye]:    -1.517039     1.013082     2.645811 

 

Dipole moment calculation done in   0.1 sec 

Maximum memory used throughout the entire PROP-calculation: 57.4 MB

--------------------------------
SUGGESTED CITATIONS FOR THIS RUN
--------------------------------

Below you find a list of papers that are relevant to this ORCA run
We neither can nor want to force you to cite these papers, but we appreciate if you do
You receive ORCA, which is the product of decades of hard work by many enthusiastic individuals, for free
The only thing we kindly ask in return is that you cite our papers,
We deeply appreciate it, if you show your appreciation for ORCA by not just citing the generic ORCA reference.

Please note that relegating all ORCA citations to the supporting information does *not* help us.
SI sections are not indexed - citations you put there will not count into any citation statistics
But we need these citations in order to attract the funding resources that allow us to do what we are doing

Therefore, if you are a happy ORCA user, please consider citing a few of the papers listed below in the main body of your paper

In addition to the list printed below, the program has created the file rf_mecn_opt_r2s_C8_P_B.bibtex that contains the list in bibtex format
You can import this file easily into all common literature databanks and citation aid programs


List of essential papers. We consider these as the minimum necessary citations

  1. Neese,F.
     Software update: the ORCA program system, version 5.0
     WIRES Comput. Molec. Sci., 2022 12(1)e1606
     doi.org/10.1002/wcms.1606

List of papers to cite with high priority. The work reported in these papers was absolutely
necessary for this run to complete.
Our perspective: the developers of density functionals and basis sets usually get cited in chemistry papers
Good! But without the algorithms to do something with them, the functionals or basis sets would not do anything.
Hence, in our opinion, the algorithm design and method developments papers are equally worthy of getting cited

  1. Neese,F.
     An improvement of the resolution of the identity approximation for the formation of the Coulomb matrix
     J. Comp. Chem., 2003 24(14)1740-1747
     doi.org/10.1002/jcc.10318
  2. Neese,F.; Wennmohs,F.; Hansen,A.; Becker,U.
     Efficient, approximate and parallel Hartree-Fock and hybrid DFT calculations. A 'chain-of-spheres' algorithm for the Hartree-Fock exchange
     Chem. Phys., 2009 356(1-3)98-109
     doi.org/10.1016/j.chemphys.2008.10.036
  3. Garcia-Rates,M.; Neese,F.
     Effect of the Solute Cavity on the Solvation Energy and its Derivatives within the Framework of the Gaussian Charge Scheme
     J. Comput. Chem., 2020 41 922-939
     doi.org/10.1002/jcc.26139
  4. Helmich-Paris,B.; de Souza,B.; Neese,F.; Izsák,R.
     An improved chain of spheres for exchange algorithm
     J. Chem. Phys., 2021 155 104109
     doi.org/doi: 10.1063/5.0058766.
  5. Neese,F.
     The SHARK Integral Generation and Digestion System
     J. Comp. Chem., 2022  1-16
     doi.org/10.1002/jcc.26942
  6. Lehtola,S.; Steigemann,C.; Oliveira,M.; Marques,M.
     Recent developments in Libxc - A comprehensive library of functionals for density functional theory
     Software X, 2018 7 
     doi.org/10.1016/j.softx.2017.11.002
  7. Grimme,S.; Antony,J.; Ehrlich,S.; Krieg,H.
     A consistent and accurate ab initio parametrization of density functional dispersion correction (DFT-D) for the 94 elements H-Pu
     J. Chem. Phys., 2010 132 154104
     doi.org/10.1063/1.3382344
  8. Grimme,S.; Ehrlich,S.; Goerigk,L.
     Effect of the damping function in dispersion corrected density functional theory
     J. Comput. Chem., 2011 32(7)1456-1465
     doi.org/10.1002/jcc.21759
  9. Bursch,M.; Neugebauer,H.; Ehlert,S.; Grimme,S.
     Dispersion corrected r2SCAN based global hybrid functionals: r2SCANh, r2SCAN0, and r2SCAN50
     J. Phys. Chem., 2022 156(13)134105
     doi.org/10.1063/5.0086040

List of suggested additional citations. These are papers that are important in the 'surrounding' of 
of this run, or papers that preceded the highly important papers. If you like your results we are grateful for a citation.

  1. Izsak,R.; Neese,F.
     An overlap fitted chain of spheres exchange method
     J. Chem. Phys., 2011 135 144105
     doi.org/10.1063/1.3646921
  2. Izsak,R.; Hansen,A.; Neese,F.
     The resolution of identity and chain of spheres approximations for the LPNO-CCSD singles Fock term
     Molec. Phys., 2012 110 2413-2417
     doi.org/10.1080/00268976.2012.687466
  3. Neese,F.
     The ORCA program system
     WIRES Comput. Molec. Sci., 2012 2(1)73-78
     doi.org/10.1002/wcms.81
  4. Izsak,R.; Neese,F.; Klopper,W.
     Robust fitting techniques in the chain of spheres approximation to the Fock exchange: The role of the complementary space
     J. Chem. Phys., 2013 139 
     doi.org/10.1063/1.4819264
  5. Neese,F.
     Software update: the ORCA program system, version 4.0
     WIRES Comput. Molec. Sci., 2018 8(1)1-6
     doi.org/10.1002/wcms.1327
  6. Neese,F.; Wennmohs,F.; Becker,U.; Riplinger,C.
     The ORCA quantum chemistry program package
     J. Chem. Phys., 2020 152 Art. No. L224108
     doi.org/10.1063/5.0004608
  7. Wittmann,L.; Neugebauer,H.; Grimme,S.; Bursch,M.
     Dispersion-corrected r2SCAN based double-hybrid functionals
     J. Chem. Phys., 2023 159(22)224103
     doi.org/10.1063/5.0174988

List of optional additional citations

  1. Neese,F.
     Approximate second-order SCF convergence for spin unrestricted wavefunctions
     Chem. Phys. Lett., 2000 325(1-3)93-98
     doi.org/10.1016/s0009-2614(00)00662-x

Timings for individual modules:

Sum of individual times          ...     3975.148 sec (=  66.252 min)
Startup calculation              ...      201.016 sec (=   3.350 min)   5.1 %
SCF iterations                   ...     2805.619 sec (=  46.760 min)  70.6 %
Property calculations            ...        1.066 sec (=   0.018 min)   0.0 %
SCF Gradient evaluation          ...      966.379 sec (=  16.106 min)  24.3 %
Geometry relaxation              ...        1.068 sec (=   0.018 min)   0.0 %
                             ****ORCA TERMINATED NORMALLY****
TOTAL RUN TIME: 0 days 1 hours 6 minutes 46 seconds 695 msec
