
                                 *****************
                                 * O   R   C   A *
                                 *****************

                                            #,                                       
                                            ###                                      
                                            ####                                     
                                            #####                                    
                                            ######                                   
                                           ########,                                 
                                     ,,################,,,,,                         
                               ,,#################################,,                 
                          ,,##########################################,,             
                       ,#########################################, ''#####,          
                    ,#############################################,,   '####,        
                  ,##################################################,,,,####,       
                ,###########''''           ''''###############################       
              ,#####''   ,,,,##########,,,,          '''####'''          '####       
            ,##' ,,,,###########################,,,                        '##       
           ' ,,###''''                  '''############,,,                           
         ,,##''                                '''############,,,,        ,,,,,,###''
      ,#''                                            '''#######################'''  
     '                                                          ''''####''''         
             ,#######,   #######,   ,#######,      ##                                
            ,#'     '#,  ##    ##  ,#'     '#,    #''#        ,####,   ,####,        
            ##       ##  ##   ,#'  ##            #'  '#       #'       #'  '#        
            ##       ##  #######   ##           ,######,      #####,   #    #        
            '#,     ,#'  ##    ##  '#,     ,#' ,#      #,     #,   #   #,  ,#        
             '#######'   ##     ##  '#######'  #'      '#     '####' # '####'        



                #########################################################
                #                        -***-                          #
                #          Department of theory and spectroscopy        #
                #                                                       #
                #                      Frank Neese                      #
                #                                                       #
                #     Directorship, Architecture, Infrastructure        #
                #                    SHARK, DRIVERS                     #
                #        Core code/Algorithms in most modules           #
                #                                                       #
                #        Max Planck Institute fuer Kohlenforschung      #
                #                Kaiser Wilhelm Platz 1                 #
                #                 D-45470 Muelheim/Ruhr                 #
                #                      Germany                          #
                #                                                       #
                #                  All rights reserved                  #
                #                        -***-                          #
                #########################################################


                         Program Version 6.0.1  -  RELEASE   -


 With contributions from (in alphabetic order):
[Max-Planck-Institut fuer Kohlenforschung]                               
  Daniel Aravena         : Magnetic Suceptibility                        
  Michael Atanasov       : Ab Initio Ligand Field Theory (pilot matlab implementation)
  Alexander A. Auer      : GIAO ZORA, VPT2 properties, NMR spectrum      
  Ute Becker             : All parallelization in ORCA, NUMFREQ, NUMCALC 
  Giovanni Bistoni       : ED, misc. LED, open-shell LED, HFLD           
  Martin Brehm           : Molecular dynamics                            
  Dmytro Bykov           : pre 5.0 version of the SCF Hessian            
  Marcos Casanova-Páez   : Triplet and SCS-CIS(D). UHF-(DLPNO)-IP/EA/STEOM-CCSD. UHF-CVS-IP/STEOM-CCSD   
  Vijay G. Chilkuri      : MRCI spin determinant printing, contributions to CSF-ICE 
  Pauline Colinet        : FMM embedding                                 
  Dipayan Datta          : RHF DLPNO-CCSD density                        
  Achintya Kumar Dutta   : EOM-CC, STEOM-CC                              
  Nicolas Foglia         : Exact transition moments, OPA infrastructure, MCD improvements    
  Dmitry Ganyushin       : Spin-Orbit,Spin-Spin,Magnetic field MRCI      
  Miquel Garcia-Rates    : C-PCM and meta-GGA Hessian, CCSD/C-PCM, Gaussian charge scheme 
  Tiago L. C. Gouveia    : GS-ROHF, GS-ROCIS                             
  Yang Guo               : DLPNO-NEVPT2, F12-NEVPT2, CIM, IAO-localization        
  Andreas Hansen         : Spin unrestricted coupled pair/coupled cluster methods 
  Ingolf Harden          : AUTO-CI MPn and infrastructure                
  Benjamin Helmich-Paris : MC-RPA, TRAH-(SCF,CASSCF), AVAS, COSX integrals, SCF dyn. polar. 
  Lee Huntington         : MR-EOM, pCC                                   
  Robert Izsak           : Overlap fitted RIJCOSX, COSX-SCS-MP3, EOM     
  Riya Kayal             : Wick's Theorem for AUTO-CI, AUTO-CI UHF-CCSDT 
  Emily Kempfer          : AUTO-CI, RHF CISDT and CCSDT                  
  Christian Kollmar      : KDIIS, OOCD, Brueckner-CCSD(T), CCSD density, CASPT2, CASPT2-K, improved NEVPT2 
  Axel Koslowski         : Symmetry handling                             
  Simone Kossmann        : meta-GGA functionals, TD-DFT gradient, OOMP2, (MP2 Hessian; deprecated post 5.0) 
  Lucas Lang             : DCDCAS                                        
  Marvin Lechner         : AUTO-CI (C++ implementation), FIC-MRCC        
  Spencer Leger          : CASSCF response                               
  Dagmar Lenk            : GEPOL surface, SMD, ORCA-2-JSON               
  Dimitrios Liakos       : Extrapolation schemes; Compound Job, initial MDCI parallelization 
  Dimitrios Manganas     : Further ROCIS development; embedding schemes. LFT, Crystal Embedding 
  Dimitrios Pantazis     : SARC Basis sets                               
  Anastasios Papadopoulos: AUTO-CI, single reference methods and gradients 
  Taras Petrenko         : pre 6.0 DFT Hessian and TD-DFT gradient, (ASA, deprecated), ECA, 1-Electron XAS/XES, NRVS 
  Peter Pinski           : DLPNO-MP2, DLPNO-MP2 Gradient                 
  Christoph Reimann      : Effective Core Potentials                     
  Marius Retegan         : Local ZFS, SOC                                
  Christoph Riplinger    : Optimizer, TS searches, QM/MM, DLPNO-CCSD(T), (RO)-DLPNO pert. Triples 
  Michael Roemelt        : Original ROCIS implementation                 
  Masaaki Saitow         : Open-shell DLPNO-CCSD energy and density      
  Barbara Sandhoefer     : DKH picture change effects                    
  Kantharuban Sivalingam : CASSCF convergence/infrastructure, NEVPT2 and variants, FIC-MRCI 
  Bernardo de Souza      : ESD, SOC TD-DFT                               
  Georgi L. Stoychev     : AutoAux, RI-MP2 NMR, DLPNO-MP2 response, X2C  
  Van Anh Tran           : RI-MP2 g-tensors                              
  Willem Van den Heuvel  : Paramagnetic NMR                              
  Zikuan Wang            : NOTCH, Electric field optimization            
  Frank Wennmohs         : Technical directorship and infrastructure     
  Hang Xu                : AUTO-CI-Response properties                   
                                                                         
[FACCTs GmbH]                                                            
  Markus Bursch, Miquel Garcia-Rates, Christoph Riplinger, Bernardo de Souza, Georgi L. Stoychev 
                                                                 
  APM, Basis sets (HGBS, AHGBS, def-TZVP (Ac-Lr), def2-XVPD (La-Lu)), CI-OPT, improved COSX, DLPNO-Multilevel,           
  DOCKER, DRACO, updates on ESD, GOAT, IRC, LR-CPCM, MBIS, meta-GGA TD-DFT gradient, ML-optimized integration grids, 
  MM, NACMEs, nearIR, NEB, NEB-TS, NL-DFT gradient (VV10), 2- and 3-layer-ONIOM, interface openCOSMO-RS, QMMM,   
  Crystal-QMMM, SF, symmetry and pop. for TD-DFT, r2SCAN hybrids, SOLVATOR                                   
                                                                         
[Other institutions]                                                     
  V. Asgeirsson          : NEB                                           
  Christoph Bannwarth    : sTDA-DFT, sTD-DFT, PBEh-3c, B97-3c, D3        
  Sebastian Ehlert       : rSCAN, r2SCAN, r2SCAN-3c, D4, dhf basis sets  
  Marvin Friede          : D4 for Fr, Ra, Ac-Lr                          
  Lars Goerigk           : TD-DFT with DH, B97 family of functionals     
  Stefan Grimme          : VdW corrections, initial TS optimization, DFT functionals, gCP, sTDA/sTD-DF 
  Waldemar Hujo          : DFT-NL                                        
  H. Jonsson             : NEB                                           
  Holger Kruse           : gCP                                           
  Marcel Mueller         : wB97X-3c, vDZP basis set                      
  Hagen Neugebauer       : wr2SCAN                                       
  Tobias Risthaus        : range-separated hybrid DFT                    
  Lukas Wittmann         : regularized MP2, r2SCAN double-hybrids, wr2SCAN        
                                                                         
We gratefully acknowledge several colleagues who have allowed us to      
interface, adapt or use parts of their codes:                            
  Ed Valeev, F. Pavosevic, A. Kumar             : LibInt (2-el integral package), F12 methods 
  Garnet Chan, S. Sharma, J. Yang, R. Olivares  : DMRG                   
  Ulf Ekstrom                                   : XCFun DFT Library      
  Mihaly Kallay                                 : mrcc  (arbitrary order and MRCC methods)
  Frank Weinhold                                : gennbo (NPA and NBO analysis)           
  Simon Mueller                                 : openCOSMO-RS                            
  Christopher J. Cramer and Donald G. Truhlar   : smd solvation model                     
  S Lehtola, MJT Oliveira, MAL Marques          : LibXC Library                           
  Liviu Ungur et al                             : ANISO software                          


 Your calculation uses the libint2 library for the computation of 2-el integrals
 For citations please refer to: http://libint.valeyev.net

 Your ORCA version has been built with support for libXC version: 6.2.2
 For citations please refer to: https://libxc.gitlab.io

 This ORCA versions uses:
   CBLAS   interface :  Fast vector & matrix operations
   LAPACKE interface :  Fast linear algebra routines
   SCALAPACK package :  Parallel linear algebra routines
   Shared memory     :  Shared parallel matrices
   BLAS/LAPACK       :  OpenBLAS 0.3.27  USE64BITINT DYNAMIC_ARCH NO_AFFINITY SkylakeX SINGLE_THREADED
        Core in use  :  SkylakeX
   Copyright (c) 2011-2014, The OpenBLAS Project


NOTE: MaxCore=8000 MB was set to SCF,MP2,MDCI,CIPSI,MRCI and CIS
      => If you want to overwrite this, your respective input block should be placed after the MaxCore statement
Your calculation utilizes the atom-pairwise dispersion correction
with the Becke-Johnson damping scheme (D3BJ)


Your calculation utilizes the SMD solvation module
Please cite in your paper:
A.V. Marenich, C.J. Cramer, D.G. Truhlar J. Phys. Chem. B, 113, (2009), 6378 

Warning: RI is on but no J-basis has been assigned. Assigning Def2/J (nothing to worry about!)
================================================================================

----- Orbital basis set information -----
Your calculation utilizes the basis: def2-TZVP
   F. Weigend and R. Ahlrichs, Phys. Chem. Chem. Phys. 7, 3297 (2005).

----- AuxJ basis set information -----
Your calculation utilizes the auxiliary basis: def2/J
   F. Weigend, Phys. Chem. Chem. Phys. 8, 1057 (2006).

================================================================================
                                        WARNINGS
                       Please study these warnings very carefully!
================================================================================


WARNING: your system is open-shell and RHF/RKS was chosen
  ===> : WILL SWITCH to UHF/UKS


================================================================================
                                       INPUT FILE
================================================================================
NAME = rf_mecn_freq_B3L_C2_P_B.inp
|  1> !B3LYP def2-TZVP freq d3 TightSCF SlowConv defgrid2
|  2>  
|  3> %pal
|  4> nprocs 20
|  5> end
|  6>  
|  7> %scf
|  8> MaxIter 1500
|  9> end
| 10>  
| 11> %maxcore 8000
| 12>  
| 13> !CPCM
| 14> %cpcm smd true
| 15> SMDsolvent "ACETONITRILE"
| 16> end
| 17>  
| 18> * xyz 0 2
| 19> 6        4.750173000     -0.142199000     -0.282166000
| 20> 8        5.660645000     -1.098881000     -0.068133000
| 21> 8        4.994945000      1.029650000     -0.473682000
| 22> 6        3.392570000     -0.666116000     -0.268551000
| 23> 6        2.173233000      0.178800000     -0.517064000
| 24> 6        0.839320000     -0.538051000     -0.120284000
| 25> 6       -0.408858000      0.414750000     -0.083306000
| 26> 6       -1.773366000     -0.362067000     -0.115432000
| 27> 6       -2.984950000      0.502631000      0.375363000
| 28> 6       -4.381723000     -0.064385000     -0.038637000
| 29> 9        3.205608000     -1.968927000     -0.178326000
| 30> 9        2.249367000      1.335543000      0.184124000
| 31> 9        2.103543000      0.509267000     -1.838853000
| 32> 9        0.605985000     -1.532876000     -1.000847000
| 33> 9        0.990375000     -1.068448000      1.110792000
| 34> 9       -0.353283000      1.148405000      1.045761000
| 35> 9       -0.374597000      1.247471000     -1.140565000
| 36> 9       -1.688455000     -1.449935000      0.675634000
| 37> 9       -2.005558000     -0.766881000     -1.379265000
| 38> 9       -2.885659000      1.750177000     -0.125218000
| 39> 9       -2.952566000      0.567950000      1.719074000
| 40> 9       -4.474365000     -1.358033000      0.278230000
| 41> 9       -5.330010000      0.607846000      0.616685000
| 42> 9       -4.586504000      0.079417000     -1.347180000
| 43> 1        6.547596000     -0.691613000     -0.090281000
| 44> *
| 45> 
| 46>                          ****END OF INPUT****
================================================================================

                       ****************************
                       * Single Point Calculation *
                       ****************************

---------------------------------
CARTESIAN COORDINATES (ANGSTROEM)
---------------------------------
  C      4.750173   -0.142199   -0.282166
  O      5.660645   -1.098881   -0.068133
  O      4.994945    1.029650   -0.473682
  C      3.392570   -0.666116   -0.268551
  C      2.173233    0.178800   -0.517064
  C      0.839320   -0.538051   -0.120284
  C     -0.408858    0.414750   -0.083306
  C     -1.773366   -0.362067   -0.115432
  C     -2.984950    0.502631    0.375363
  C     -4.381723   -0.064385   -0.038637
  F      3.205608   -1.968927   -0.178326
  F      2.249367    1.335543    0.184124
  F      2.103543    0.509267   -1.838853
  F      0.605985   -1.532876   -1.000847
  F      0.990375   -1.068448    1.110792
  F     -0.353283    1.148405    1.045761
  F     -0.374597    1.247471   -1.140565
  F     -1.688455   -1.449935    0.675634
  F     -2.005558   -0.766881   -1.379265
  F     -2.885659    1.750177   -0.125218
  F     -2.952566    0.567950    1.719074
  F     -4.474365   -1.358033    0.278230
  F     -5.330010    0.607846    0.616685
  F     -4.586504    0.079417   -1.347180
  H      6.547596   -0.691613   -0.090281

----------------------------
CARTESIAN COORDINATES (A.U.)
----------------------------
  NO LB      ZA    FRAG     MASS         X           Y           Z
   0 C     6.0000    0    12.011    8.976526   -0.268717   -0.533216
   1 O     8.0000    0    15.999   10.697069   -2.076584   -0.128753
   2 O     8.0000    0    15.999    9.439078    1.945757   -0.895129
   3 C     6.0000    0    12.011    6.411028   -1.258777   -0.507488
   4 C     6.0000    0    12.011    4.106815    0.337883   -0.977109
   5 C     6.0000    0    12.011    1.586085   -1.016769   -0.227304
   6 C     6.0000    0    12.011   -0.772630    0.783764   -0.157426
   7 C     6.0000    0    12.011   -3.351176   -0.684207   -0.218135
   8 C     6.0000    0    12.011   -5.640738    0.949835    0.709333
   9 C     6.0000    0    12.011   -8.280256   -0.121670   -0.073013
  10 F     9.0000    0    18.998    6.057721   -3.720733   -0.336987
  11 F     9.0000    0    18.998    4.250688    2.523811    0.347944
  12 F     9.0000    0    18.998    3.975120    0.962375   -3.474929
  13 F     9.0000    0    18.998    1.145146   -2.896716   -1.891327
  14 F     9.0000    0    18.998    1.871538   -2.019074    2.099093
  15 F     9.0000    0    18.998   -0.667608    2.170171    1.976202
  16 F     9.0000    0    18.998   -0.707886    2.357379   -2.155355
  17 F     9.0000    0    18.998   -3.190718   -2.739980    1.276763
  18 F     9.0000    0    18.998   -3.789955   -1.449195   -2.606433
  19 F     9.0000    0    18.998   -5.453105    3.307355   -0.236628
  20 F     9.0000    0    18.998   -5.579541    1.073270    3.248579
  21 F     9.0000    0    18.998   -8.455324   -2.566310    0.525779
  22 F     9.0000    0    18.998  -10.072259    1.148662    1.165366
  23 F     9.0000    0    18.998   -8.667236    0.150076   -2.545801
  24 H     1.0000    0     1.008   12.373163   -1.306959   -0.170606

--------------------------------
INTERNAL COORDINATES (ANGSTROEM)
--------------------------------
 C      0   0   0     0.000000000000     0.00000000     0.00000000
 O      1   0   0     1.337912492279     0.00000000     0.00000000
 O      1   2   0     1.212362070110   125.38290934     0.00000000
 C      1   2   3     1.455252657350   112.08140782   179.70049496
 C      4   1   2     1.504135791009   123.53744571   181.63348834
 C      5   4   1     1.565449972426   113.05739657   193.49306942
 C      6   5   4     1.570714944784   113.91080319   167.85072747
 C      7   6   5     1.570464521544   112.94883861   162.67584620
 C      8   7   6     1.567328348587   113.10063081   161.52120463
 C      9   8   7     1.563290746402   114.05732676   162.53373677
 F      4   1   2     1.319246694819   119.23427190   354.03185793
 F      5   4   1     1.354811929881   110.39807579   314.49367290
 F      5   4   1     1.364254849619   109.72807190    72.56299336
 F      6   5   4     1.348893324106   108.64230842   289.52553793
 F      6   5   4     1.348957637737   108.41783058    47.82086107
 F      7   6   5     1.347638872302   108.49296909   283.38104467
 F      7   6   5     1.346252083766   109.66385468    41.93799504
 F      8   7   6     1.347758168108   109.42136668    40.99037272
 F      8   7   6     1.347242127960   108.51554145   282.64967562
 F      9   8   7     1.347891339225   109.71800525    41.69039014
 F      9   8   7     1.345687388192   108.71480376   282.68019089
 F     10   9   8     1.335107630027   110.52335082    50.01493286
 F     10   9   8     1.334387378318   108.79463174   169.41371363
 F     10   9   8     1.332253375306   110.99583437   288.83707058
 H      2   1   3     0.976237591024   108.44170580     0.16757366

---------------------------
INTERNAL COORDINATES (A.U.)
---------------------------
 C      0   0   0     0.000000000000     0.00000000     0.00000000
 O      1   0   0     2.528288201560     0.00000000     0.00000000
 O      1   2   0     2.291032287661   125.38290934     0.00000000
 C      1   2   3     2.750028978052   112.08140782   179.70049496
 C      4   1   2     2.842404713236   123.53744571   181.63348834
 C      5   4   1     2.958271724241   113.05739657   193.49306942
 C      6   5   4     2.968221080100   113.91080319   167.85072747
 C      7   6   5     2.967747848758   112.94883861   162.67584620
 C      8   7   6     2.961821340761   113.10063081   161.52120463
 C      9   8   7     2.954191378392   114.05732676   162.53373677
 F      4   1   2     2.493014956288   119.23427190   354.03185793
 F      5   4   1     2.560223510445   110.39807579   314.49367290
 F      5   4   1     2.578068042655   109.72807190    72.56299336
 F      6   5   4     2.549038966436   108.64230842   289.52553793
 F      6   5   4     2.549160501585   108.41783058    47.82086107
 F      7   6   5     2.546668396077   108.49296909   283.38104467
 F      7   6   5     2.544047745538   109.66385468    41.93799504
 F      8   7   6     2.546893832479   109.42136668    40.99037272
 F      8   7   6     2.545918657925   108.51554145   282.64967562
 F      9   8   7     2.547145489420   109.71800525    41.69039014
 F      9   8   7     2.542980625554   108.71480376   282.68019089
 F     10   9   8     2.522987780060   110.52335082    50.01493286
 F     10   9   8     2.521626701582   108.79463174   169.41371363
 F     10   9   8     2.517594020320   110.99583437   288.83707058
 H      2   1   3     1.844821688675   108.44170580     0.16757366

---------------------
BASIS SET INFORMATION
---------------------
There are 4 groups of distinct atoms

 Group   1 Type C   : 11s6p2d1f contracted to 5s3p2d1f pattern {62111/411/11/1}
 Group   2 Type O   : 11s6p2d1f contracted to 5s3p2d1f pattern {62111/411/11/1}
 Group   3 Type F   : 11s6p2d1f contracted to 5s3p2d1f pattern {62111/411/11/1}
 Group   4 Type H   : 5s1p contracted to 3s1p pattern {311/1}

Atom   0C    basis set group =>   1
Atom   1O    basis set group =>   2
Atom   2O    basis set group =>   2
Atom   3C    basis set group =>   1
Atom   4C    basis set group =>   1
Atom   5C    basis set group =>   1
Atom   6C    basis set group =>   1
Atom   7C    basis set group =>   1
Atom   8C    basis set group =>   1
Atom   9C    basis set group =>   1
Atom  10F    basis set group =>   3
Atom  11F    basis set group =>   3
Atom  12F    basis set group =>   3
Atom  13F    basis set group =>   3
Atom  14F    basis set group =>   3
Atom  15F    basis set group =>   3
Atom  16F    basis set group =>   3
Atom  17F    basis set group =>   3
Atom  18F    basis set group =>   3
Atom  19F    basis set group =>   3
Atom  20F    basis set group =>   3
Atom  21F    basis set group =>   3
Atom  22F    basis set group =>   3
Atom  23F    basis set group =>   3
Atom  24H    basis set group =>   4
---------------------------------
AUXILIARY/J BASIS SET INFORMATION
---------------------------------
There are 4 groups of distinct atoms

 Group   1 Type C   : 12s5p4d2f1g contracted to 6s4p3d1f1g pattern {711111/2111/211/2/1}
 Group   2 Type O   : 12s5p4d2f1g contracted to 6s4p3d1f1g pattern {711111/2111/211/2/1}
 Group   3 Type F   : 12s5p4d2f1g contracted to 6s4p3d1f1g pattern {711111/2111/211/2/1}
 Group   4 Type H   : 5s2p1d contracted to 3s1p1d pattern {311/2/1}

Atom   0C    basis set group =>   1
Atom   1O    basis set group =>   2
Atom   2O    basis set group =>   2
Atom   3C    basis set group =>   1
Atom   4C    basis set group =>   1
Atom   5C    basis set group =>   1
Atom   6C    basis set group =>   1
Atom   7C    basis set group =>   1
Atom   8C    basis set group =>   1
Atom   9C    basis set group =>   1
Atom  10F    basis set group =>   3
Atom  11F    basis set group =>   3
Atom  12F    basis set group =>   3
Atom  13F    basis set group =>   3
Atom  14F    basis set group =>   3
Atom  15F    basis set group =>   3
Atom  16F    basis set group =>   3
Atom  17F    basis set group =>   3
Atom  18F    basis set group =>   3
Atom  19F    basis set group =>   3
Atom  20F    basis set group =>   3
Atom  21F    basis set group =>   3
Atom  22F    basis set group =>   3
Atom  23F    basis set group =>   3
Atom  24H    basis set group =>   4


           ************************************************************
           *        Program running with 20 parallel MPI-processes    *
           *              working on a common directory               *
           ************************************************************
------------------------------------------------------------------------------
                             ORCA STARTUP CALCULATIONS
                           -- RI-GTO INTEGRALS CHOSEN --
------------------------------------------------------------------------------
------------------------------------------------------------------------------
                   ___                                                        
                  /   \      - P O W E R E D   B Y -                         
                 /     \                                                     
                 |  |  |   _    _      __       _____    __    __             
                 |  |  |  | |  | |    /  \     |  _  \  |  |  /  |          
                  \  \/   | |  | |   /    \    | | | |  |  | /  /          
                 / \  \   | |__| |  /  /\  \   | |_| |  |  |/  /          
                |  |  |   |  __  | /  /__\  \  |    /   |      \           
                |  |  |   | |  | | |   __   |  |    \   |  |\   \          
                \     /   | |  | | |  |  |  |  | |\  \  |  | \   \       
                 \___/    |_|  |_| |__|  |__|  |_| \__\ |__|  \__/        
                                                                              
                      - O R C A' S   B I G   F R I E N D -                    
                                      &                                       
                       - I N T E G R A L  F E E D E R -                       
                                                                              
 v1 FN, 2020, v2 2021, v3 2022-2024                                           
------------------------------------------------------------------------------


----------------------
SHARK INTEGRAL PACKAGE
----------------------

Number of atoms                             ...     25
Number of basis functions                   ...    750
Number of shells                            ...    268
Maximum angular momentum                    ...      3
Integral batch strategy                     ... SHARK/LIBINT Hybrid
RI-J (if used) integral strategy            ... SPLIT-RIJ (Revised 2003 algorithm where possible)
Printlevel                                  ...      1
Contraction scheme used                     ... SEGMENTED contraction
Prescreening option                         ... SCHWARTZ
   Thresh                                   ... 2.500e-11
   Tcut                                     ... 2.500e-12
   Tpresel                                  ... 2.500e-12 
Coulomb Range Separation                    ... NOT USED
Exchange Range Separation                   ... NOT USED
Multipole approximations                    ... NOT USED
Finite Nucleus Model                        ... NOT USED
CABS basis                                  ... NOT available
Auxiliary Coulomb fitting basis             ... AVAILABLE
   # of basis functions in Aux-J            ...   1187
   # of shells in Aux-J                     ...    365
   Maximum angular momentum in Aux-J        ...      4
Auxiliary J/K fitting basis                 ... NOT available
Auxiliary Correlation fitting basis         ... NOT available
Auxiliary 'external' fitting basis          ... NOT available

Checking pre-screening integrals            ... done (  0.0 sec) Dimension = 268
Check shell pair data                       ... done (  0.0 sec)
Shell pair information
Shell pair cut-off parameter TPreSel        ...   2.5e-12
Total number of shell pairs                 ...     36046
Shell pairs after pre-screening             ...     22282
Total number of primitive shell pairs       ...    118872
Primitive shell pairs kept                  ...     47402
          la=0 lb=0:   4250 shell pairs
          la=1 lb=0:   6084 shell pairs
          la=1 lb=1:   2098 shell pairs
          la=2 lb=0:   3309 shell pairs
          la=2 lb=1:   2410 shell pairs
          la=2 lb=2:    682 shell pairs
          la=3 lb=0:   1509 shell pairs
          la=3 lb=1:   1164 shell pairs
          la=3 lb=2:    625 shell pairs
          la=3 lb=3:    151 shell pairs

Calculating one electron integrals          ... done (  0.0 sec)
Calculating RI/J V-Matrix + Cholesky decomp.... done (  0.1 sec)
Calculating Nuclear repulsion               ... done (  0.0 sec) ENN=   2661.862439301063 Eh

Diagonalization of the overlap matrix:
Smallest eigenvalue                        ... 4.740e-05
Time for diagonalization                   ...    0.097 sec
Threshold for overlap eigenvalues          ... 1.000e-07
Number of eigenvalues below threshold      ... 0
Time for construction of square roots      ...    0.044 sec
Total time needed                          ...    0.146 sec

-------------------
DFT GRID GENERATION
-------------------

General Integration Accuracy     IntAcc      ... 4.388
Radial Grid Type                 RadialGrid  ... OptM3 with GC (2021)
Angular Grid (max. ang.)         AngularGrid ... 4 (Lebedev-302)
Angular grid pruning method      GridPruning ... 4 (adaptive)
Weight generation scheme         WeightScheme... mBecke (2022)
Basis function cutoff            BFCut       ... 1.0000e-11
Integration weight cutoff        WCut        ... 1.0000e-14
Partially contracted basis set               ... off
Rotationally invariant grid construction     ... off
Angular grids for H and He will be reduced by one unit

Total number of grid points                  ...   148662
Total number of batches                      ...     2334
Average number of points per batch           ...       63
Average number of grid points per atom       ...     5946

--------------------
COSX GRID GENERATION
--------------------

GRIDX 1
-------
General Integration Accuracy     IntAcc      ... 3.816
Radial Grid Type                 RadialGrid  ... OptM3 with GC (2021)
Angular Grid (max. ang.)         AngularGrid ... 1 (Lebedev-50)
Angular grid pruning method      GridPruning ... 4 (adaptive)
Weight generation scheme         WeightScheme... mBecke (2022)
Basis function cutoff            BFCut       ... 1.0000e-11
Integration weight cutoff        WCut        ... 1.0000e-14
Partially contracted basis set               ... on
Rotationally invariant grid construction     ... off
Angular grids for H and He will be reduced by one unit

Total number of grid points                  ...    18685
Total number of batches                      ...      157
Average number of points per batch           ...      119
Average number of grid points per atom       ...      747
UseSFitting                                  ... on

GRIDX 2
-------
General Integration Accuracy     IntAcc      ... 4.020
Radial Grid Type                 RadialGrid  ... OptM3 with GC (2021)
Angular Grid (max. ang.)         AngularGrid ... 2 (Lebedev-110)
Angular grid pruning method      GridPruning ... 4 (adaptive)
Weight generation scheme         WeightScheme... mBecke (2022)
Basis function cutoff            BFCut       ... 1.0000e-11
Integration weight cutoff        WCut        ... 1.0000e-14
Partially contracted basis set               ... on
Rotationally invariant grid construction     ... off
Angular grids for H and He will be reduced by one unit

Total number of grid points                  ...    44067
Total number of batches                      ...      357
Average number of points per batch           ...      123
Average number of grid points per atom       ...     1763
UseSFitting                                  ... on

GRIDX 3
-------
General Integration Accuracy     IntAcc      ... 4.338
Radial Grid Type                 RadialGrid  ... OptM3 with GC (2021)
Angular Grid (max. ang.)         AngularGrid ... 3 (Lebedev-194)
Angular grid pruning method      GridPruning ... 4 (adaptive)
Weight generation scheme         WeightScheme... mBecke (2022)
Basis function cutoff            BFCut       ... 1.0000e-11
Integration weight cutoff        WCut        ... 1.0000e-14
Partially contracted basis set               ... on
Rotationally invariant grid construction     ... off
Angular grids for H and He will be reduced by one unit

Total number of grid points                  ...    97607
Total number of batches                      ...      772
Average number of points per batch           ...      126
Average number of grid points per atom       ...     3904
UseSFitting                                  ... on
Initializing property integral containers    ... done (  0.0 sec)

SHARK setup successfully completed in   2.9 seconds

Maximum memory used throughout the entire STARTUP-calculation: 57.3 MB


           ************************************************************
           *        Program running with 20 parallel MPI-processes    *
           *              working on a common directory               *
           ************************************************************
-------------------------------------------------------------------------------
                                 ORCA GUESS
                   Start orbitals & Density for SCF / CASSCF
-------------------------------------------------------------------------------

------------
SCF SETTINGS
------------
Hamiltonian:
 Density Functional     Method          .... DFT(GTOs)
 Exchange Functional    Exchange        .... B88
   X-Alpha parameter    XAlpha          ....  0.666667
   Becke's b parameter  XBeta           ....  0.004200
 Correlation Functional Correlation     .... LYP
 LDA part of GGA corr.  LDAOpt          .... VWN-5
 Gradients option       PostSCFGGA      .... off
 Hybrid DFT is turned on
   Fraction HF Exchange ScalHFX         ....  0.200000
   Scaling of DF-GGA-X  ScalDFX         ....  0.720000
   Scaling of DF-GGA-C  ScalDFC         ....  0.810000
   Scaling of DF-LDA-C  ScalLDAC        ....  1.000000
   Perturbative correction              ....  0.000000
   NL short-range parameter             ....  4.800000
 RI-approximation to the Coulomb term is turned on
   Number of AuxJ basis functions       .... 1187
   RIJ-COSX (HFX calculated with COS-X)).... on


General Settings:
 Integral files         IntName         .... rf_mecn_freq_B3L_C2_P_B
 Hartree-Fock type      HFTyp           .... UHF
 Total Charge           Charge          ....    0
 Multiplicity           Mult            ....    2
 Number of Electrons    NEL             ....  191
 Basis Dimension        Dim             ....  750
 Nuclear Repulsion      ENuc            ....   2661.8624393011 Eh

Convergence Acceleration:
 AO-DIIS                CNVDIIS         .... on
   Start iteration      DIISMaxIt       ....     0
   Startup error        DIISStart       ....  0.200000
   # of expansion vecs  DIISMaxEq       ....     5
   Bias factor          DIISBfac        ....   1.050
   Max. coefficient     DIISMaxC        ....  10.000
 MO-DIIS                CNVKDIIS        .... off
 Trust-Rad. Augm. Hess. CNVTRAH         .... auto
   Auto Start mean grad. ratio tolernc. ....  1.125000
   Auto Start start iteration           ....    50
   Auto Start num. interpolation iter.  ....    10
   Max. Number of Micro iterations      ....    24
   Max. Number of Macro iterations      .... Maxiter - #DIIS iter
   Number of Davidson start vectors     ....     2
   Converg. threshold    (grad. norm)   ....   1.000e-05
   Grad. Scal. Fac. for Micro threshold ....   0.100
   Minimum threshold for Micro iter.    ....   1.000e-02
   NR start threshold (gradient norm)   ....   1.000e-04
   Initial trust radius                 ....   0.400
   Minimum AH scaling param. (alpha)    ....   1.000
   Maximum AH scaling param. (alpha)    .... 1000.000
   Quad. conv. algorithm                .... NR
   White noise on init. David. guess    .... on
   Maximum white noise                  ....   0.010
   Pseudo random numbers                .... off
   Inactive MOs                         .... canonical
   Orbital update algorithm             .... Taylor
   Preconditioner                       .... Diag
   Full preconditioner red. dimension   ....   250
 SOSCF                  CNVSOSCF        .... on
   Start iteration      SOSCFMaxIt      ....   150
   Startup grad/error   SOSCFStart      ....  0.001000
   Hessian update       SOSCFHessUp     .... L-BFGS
 Level Shifting         CNVShift        .... on
   Level shift para.    LevelShift      ....    0.2500
   Turn off err/grad.   ShiftErr        ....    0.0000
 Zerner damping         CNVZerner       .... off
 Static damping         CNVDamp         .... on
   Fraction old density DampFac         ....    0.8500
   Max. Damping (<1)    DampMax         ....    0.9800
   Min. Damping (>=0)   DampMin         ....    0.0000
   Turn off err/grad.   DampErr         ....    0.0300

SCF Procedure:
 Maximum # iterations   MaxIter         ....  1500
 SCF integral mode      SCFMode         .... Direct
   Integral package                     .... SHARK and LIBINT hybrid scheme
 Reset frequency        DirectResetFreq ....    20
 Integral Threshold     Thresh          ....  2.500e-11 Eh
 Primitive CutOff       TCut            ....  2.500e-12 Eh

Convergence Tolerance:
 Convergence Check Mode ConvCheckMode   .... Total+1el-Energy
 Convergence forced     ConvForced      .... 0
 Energy Change          TolE            ....  1.000e-08 Eh
 1-El. energy change                    ....  1.000e-05 Eh
 Orbital Gradient       TolG            ....  1.000e-05
 Orbital Rotation angle TolX            ....  1.000e-05
 DIIS Error             TolErr          ....  5.000e-07

------------------------------
INITIAL GUESS: MODEL POTENTIAL
------------------------------
Loading Hartree-Fock densities                     ... done
Calculating cut-offs                               ... done
Initializing the effective Hamiltonian             ... done
Setting up the integral package (SHARK)            ... done
Starting the Coulomb interaction                   ... done (   0.1 sec)
Making the grid                                    ... done (   0.4 sec)
Mapping shells                                     ... done
Starting the XC term evaluation                    ... done (   0.2 sec)
  promolecular density results
     # of electrons  =    190.998758567
     EX              =   -198.640744770
     EC              =     -7.179192786
     EX+EC           =   -205.819937556
Transforming the Hamiltonian                       ... done (   0.0 sec)
Diagonalizing the Hamiltonian                      ... done (   0.1 sec)
Back transforming the eigenvectors                 ... done (   0.0 sec)
Now organizing SCF variables                       ... done
                      ------------------
                      INITIAL GUESS DONE (   1.0 sec)
                      ------------------
             **** ENERGY FILE WAS UPDATED (rf_mecn_freq_B3L_C2_P_B.en.tmp) ****
Finished Guess after   1.7 sec
Maximum memory used throughout the entire GUESS-calculation: 46.1 MB


           ************************************************************
           *        Program running with 20 parallel MPI-processes    *
           *              working on a common directory               *
           ************************************************************

-------------------------------------------------------------------------------------------
                                      ORCA LEAN-SCF
                              memory conserving SCF solver
-------------------------------------------------------------------------------------------

--------------------
CPCM SOLVATION MODEL
--------------------
CPCM parameters:
  Epsilon                                         ...      35.6880
  Refrac                                          ...       1.3442
  Rsolv                                           ...       1.3000
  Surface type                                    ... GAUSSIAN VDW
  Discretization scheme                           ... Constant charge density
    Threshold for H atoms                         ...       5.0000 (charges/Ang^2)
    Threshold for non-H atoms                     ...       5.0000 (charges/Ang^2)
  Epsilon function type                           ...         CPCM
Solvent:                                          ... ACETONITRILE
SMD-CDS solvent descriptors:
  Soln                                            ...       1.3442
  Soln25                                          ...       1.3416
  Sola                                            ...       0.0700
  Solb                                            ...       0.3200
  Solg                                            ...      41.2500
  Solc                                            ...       0.0000
  Solh                                            ...       0.0000
Radii:
  Scheme                                          ... Element-dependent radii
  Radius for C  used is    3.4960 Bohr (=   1.8500 Ang.)
  Radius for O  used is    4.0969 Bohr (=   2.1680 Ang.)
  Radius for F  used is    3.2692 Bohr (=   1.7300 Ang.)
  Radius for H  used is    2.2677 Bohr (=   1.2000 Ang.)
Calculating surface                               ...        done! (  0.0s)
Cavity surface points                             ...         2159
Cavity Volume                                     ...    2103.0982
Cavity Surface-area                               ...    1100.9438
Calculating surface distance matrix               ...        done! (  0.0s)
Performing Cholesky decomposition & store         ...        done! (  0.1s)
Overall time for CPCM initialization              ...                 0.1s

----------------------------------------D-I-I-S--------------------------------------------
Iteration    Energy (Eh)           Delta-E    RMSDP     MaxDP     DIISErr   Damp  Time(sec)
-------------------------------------------------------------------------------------------
               ***  Starting incremental Fock matrix formation  ***
    1    -1853.2184198645036304     0.00e+00  2.50e-04  3.00e-02  1.63e-01  0.850   6.3
Warning: op=1 Small HOMO/LUMO gap (   0.029) - skipping pre-diagonalization
         Will do a full diagonalization
    2    -1853.3680606873795114    -1.50e-01  2.83e-04  4.99e-02  1.11e-01  0.850   4.2
                               ***Turning on AO-DIIS***
    3    -1853.4494552404103160    -8.14e-02  1.13e-04  1.57e-02  6.60e-02  0.850   3.6
    4    -1853.4983645679531037    -4.89e-02  5.69e-05  4.62e-03  5.07e-02  0.850   3.6
    5    -1853.5332766732699383    -3.49e-02  4.18e-05  3.58e-03  4.34e-02  0.850   3.5
    6    -1853.5610166503056462    -2.77e-02  3.62e-05  3.12e-03  3.80e-02  0.850   3.2
    7    -1853.5841296965127185    -2.31e-02  3.29e-05  2.88e-03  3.26e-02  0.850   3.3
    8    -1853.6036457725649598    -1.95e-02  2.89e-05  2.64e-03  2.70e-02  0.850   3.3
    9    -1853.6199045763796676    -1.63e-02  1.64e-04  1.54e-02  2.24e-02  0.000   3.6
   10    -1853.7053351110744188    -8.54e-02  1.53e-05  1.59e-03  3.45e-03  0.000   4.1
   11    -1853.7054581485363087    -1.23e-04  8.90e-06  1.27e-03  1.59e-03  0.000   3.7
   12    -1853.7054812803144159    -2.31e-05  3.43e-06  4.78e-04  1.05e-03  0.000   3.2
                              *** Initializing SOSCF ***
---------------------------------------S-O-S-C-F--------------------------------------
Iteration    Energy (Eh)           Delta-E    RMSDP     MaxDP     MaxGrad    Time(sec)
--------------------------------------------------------------------------------------
   13    -1853.7054898668538954    -8.59e-06  1.99e-06  2.32e-04  2.67e-04     4.4
               *** Restarting incremental Fock matrix formation ***
   14    -1853.7054798735589429     9.99e-06  2.76e-06  1.79e-04  1.56e-04     7.2
   15    -1853.7054806832356917    -8.10e-07  2.48e-06  2.07e-04  6.52e-05     4.6
   16    -1853.7054808847615277    -2.02e-07  1.54e-06  1.11e-04  3.87e-05     5.4
   17    -1853.7054810182307847    -1.33e-07  3.70e-07  2.71e-05  1.34e-05     4.3
   18    -1853.7054810216777696    -3.45e-09  1.95e-07  2.29e-05  2.32e-05     3.5
                 **** Energy Check signals convergence ****

               *****************************************************
               *                     SUCCESS                       *
               *           SCF CONVERGED AFTER  18 CYCLES          *
               *****************************************************

Recomputing exchange energy using gridx3       ... done (    8.877 sec)
Old exchange energy                            :    -39.825123545 Eh
New exchange energy                            :    -39.825145208 Eh
Exchange energy change after final integration :     -0.000021663 Eh
Total energy after final integration           :  -1853.705502684 Eh

SMD CDS free energy correction energy :                 3.26842     Kcal/mol
Total Energy after SMD CDS correction =             -1853.700294126 Eh
             **** ENERGY FILE WAS UPDATED (rf_mecn_freq_B3L_C2_P_B.en.tmp) ****

----------------
TOTAL SCF ENERGY
----------------

Total Energy       :      -1853.70029412574081 Eh          -50441.74941 eV

Components:
Nuclear Repulsion  :       2661.86243930106320 Eh           72432.95939 eV
Electronic Energy  :      -4515.55540834509520 Eh         -122874.50948 eV
One Electron Energy:      -7874.23943766305456 Eh         -214268.94832 eV
Two Electron Energy:       3358.68402931795890 Eh           91394.43884 eV
CPCM Dielectric    :         -0.01251197764513 Eh              -0.34047 eV
SMD CDS (Gcds)     :          0.00520855857532 Eh               0.14173 eV

Virial components:
Potential Energy   :      -3701.09701160695931 Eh         -100711.96978 eV
Kinetic Energy     :       1847.39671748121827 Eh           50270.22037 eV
Virial Ratio       :          2.00341214022136

DFT components:
N(Alpha)           :       95.999995064744 electrons
N(Beta)            :       94.999989120455 electrons
N(Total)           :      190.999984185199 electrons
E(X)               :     -158.705449990298 Eh       
E(C)               :       -8.384189858545 Eh       
E(XC)              :     -167.089639848843 Eh       

CPCM Solvation Model Properties:
Surface-charge          :         -0.00927702954634
Corrected charge        :         -0.00000000000000
Outlying charge corr.   :          0.00000471488300 Eh               0.00013 eV
Free-energy (cav+disp)  :          0.00520855857532 Eh               0.14173 eV

---------------
SCF CONVERGENCE
---------------

  Last Energy change         ...    3.4470e-09  Tolerance :   1.0000e-08
  Last MAX-Density change    ...    2.2850e-05  Tolerance :   1.0000e-07
  Last RMS-Density change    ...    1.9547e-07  Tolerance :   5.0000e-09
  Last DIIS Error            ...    2.6665e-04  Tolerance :   5.0000e-07
  Last Orbital Gradient      ...    2.3169e-05  Tolerance :   1.0000e-05
  Last Orbital Rotation      ...    6.0659e-05  Tolerance :   1.0000e-05


----------------------
UHF SPIN CONTAMINATION
----------------------

Warning: in a DFT calculation there is little theoretical justification to 
         calculate <S**2> as in Hartree-Fock theory. We will do it anyways
         but you should keep in mind that the values have only limited relevance

Expectation value of <S**2>     :     0.756624
Ideal value S*(S+1) for S=0.5   :     0.750000
Deviation                       :     0.006624

----------------
ORBITAL ENERGIES
----------------
                 SPIN UP ORBITALS
  NO   OCC          E(Eh)            E(eV) 
   0   1.0000     -24.755027      -673.6185 
   1   1.0000     -24.746666      -673.3910 
   2   1.0000     -24.746362      -673.3827 
   3   1.0000     -24.746305      -673.3812 
   4   1.0000     -24.745948      -673.3715 
   5   1.0000     -24.745607      -673.3622 
   6   1.0000     -24.745131      -673.3492 
   7   1.0000     -24.745018      -673.3462 
   8   1.0000     -24.744941      -673.3441 
   9   1.0000     -24.744449      -673.3307 
  10   1.0000     -24.744391      -673.3291 
  11   1.0000     -24.743271      -673.2986 
  12   1.0000     -24.734783      -673.0677 
  13   1.0000     -24.731501      -672.9784 
  14   1.0000     -19.192621      -522.2578 
  15   1.0000     -19.142839      -520.9031 
  16   1.0000     -10.463080      -284.7149 
  17   1.0000     -10.411733      -283.3177 
  18   1.0000     -10.411070      -283.2996 
  19   1.0000     -10.409639      -283.2607 
  20   1.0000     -10.407819      -283.2111 
  21   1.0000     -10.403617      -283.0968 
  22   1.0000     -10.335520      -281.2438 
  23   1.0000     -10.326764      -281.0055 
  24   1.0000      -1.355625       -36.8884 
  25   1.0000      -1.335409       -36.3383 
  26   1.0000      -1.320941       -35.9446 
  27   1.0000      -1.310558       -35.6621 
  28   1.0000      -1.310194       -35.6522 
  29   1.0000      -1.300828       -35.3973 
  30   1.0000      -1.295037       -35.2398 
  31   1.0000      -1.269833       -34.5539 
  32   1.0000      -1.264614       -34.4119 
  33   1.0000      -1.262311       -34.3492 
  34   1.0000      -1.258124       -34.2353 
  35   1.0000      -1.253296       -34.1039 
  36   1.0000      -1.252050       -34.0700 
  37   1.0000      -1.241945       -33.7950 
  38   1.0000      -1.132031       -30.8041 
  39   1.0000      -1.047679       -28.5088 
  40   1.0000      -0.853782       -23.2326 
  41   1.0000      -0.841494       -22.8982 
  42   1.0000      -0.816920       -22.2295 
  43   1.0000      -0.781248       -21.2588 
  44   1.0000      -0.741200       -20.1691 
  45   1.0000      -0.705064       -19.1858 
  46   1.0000      -0.686639       -18.6844 
  47   1.0000      -0.659595       -17.9485 
  48   1.0000      -0.653894       -17.7934 
  49   1.0000      -0.648835       -17.6557 
  50   1.0000      -0.640716       -17.4348 
  51   1.0000      -0.634123       -17.2554 
  52   1.0000      -0.631687       -17.1891 
  53   1.0000      -0.626860       -17.0577 
  54   1.0000      -0.616742       -16.7824 
  55   1.0000      -0.611860       -16.6495 
  56   1.0000      -0.606462       -16.5027 
  57   1.0000      -0.602193       -16.3865 
  58   1.0000      -0.593811       -16.1584 
  59   1.0000      -0.589412       -16.0387 
  60   1.0000      -0.583589       -15.8803 
  61   1.0000      -0.562816       -15.3150 
  62   1.0000      -0.541998       -14.7485 
  63   1.0000      -0.522151       -14.2085 
  64   1.0000      -0.518005       -14.0956 
  65   1.0000      -0.516393       -14.0518 
  66   1.0000      -0.511038       -13.9061 
  67   1.0000      -0.506941       -13.7946 
  68   1.0000      -0.503234       -13.6937 
  69   1.0000      -0.500794       -13.6273 
  70   1.0000      -0.498227       -13.5575 
  71   1.0000      -0.491896       -13.3852 
  72   1.0000      -0.488845       -13.3021 
  73   1.0000      -0.485566       -13.2129 
  74   1.0000      -0.483141       -13.1469 
  75   1.0000      -0.477366       -12.9898 
  76   1.0000      -0.476326       -12.9615 
  77   1.0000      -0.470875       -12.8132 
  78   1.0000      -0.465621       -12.6702 
  79   1.0000      -0.460861       -12.5407 
  80   1.0000      -0.457759       -12.4562 
  81   1.0000      -0.455366       -12.3911 
  82   1.0000      -0.452996       -12.3267 
  83   1.0000      -0.449046       -12.2192 
  84   1.0000      -0.447780       -12.1847 
  85   1.0000      -0.444734       -12.1018 
  86   1.0000      -0.443571       -12.0702 
  87   1.0000      -0.441921       -12.0253 
  88   1.0000      -0.438774       -11.9396 
  89   1.0000      -0.430678       -11.7193 
  90   1.0000      -0.421110       -11.4590 
  91   1.0000      -0.390645       -10.6300 
  92   1.0000      -0.356911        -9.7121 
  93   1.0000      -0.353938        -9.6311 
  94   1.0000      -0.315490        -8.5849 
  95   1.0000      -0.272805        -7.4234 
  96   0.0000      -0.015991        -0.4351 
  97   0.0000      -0.005091        -0.1385 
  98   0.0000       0.009532         0.2594 
  99   0.0000       0.034461         0.9377 
 100   0.0000       0.046468         1.2645 
 101   0.0000       0.052394         1.4257 
 102   0.0000       0.081317         2.2128 
 103   0.0000       0.092698         2.5224 
 104   0.0000       0.094011         2.5582 
 105   0.0000       0.112040         3.0488 
 106   0.0000       0.122608         3.3363 

                 SPIN DOWN ORBITALS
  NO   OCC          E(Eh)            E(eV) 
   0   1.0000     -24.750609      -673.4983 
   1   1.0000     -24.746666      -673.3910 
   2   1.0000     -24.746361      -673.3827 
   3   1.0000     -24.746305      -673.3812 
   4   1.0000     -24.745948      -673.3715 
   5   1.0000     -24.745607      -673.3622 
   6   1.0000     -24.745131      -673.3492 
   7   1.0000     -24.745015      -673.3461 
   8   1.0000     -24.744941      -673.3441 
   9   1.0000     -24.744408      -673.3296 
  10   1.0000     -24.744391      -673.3291 
  11   1.0000     -24.743218      -673.2972 
  12   1.0000     -24.734220      -673.0523 
  13   1.0000     -24.730127      -672.9410 
  14   1.0000     -19.192217      -522.2468 
  15   1.0000     -19.138518      -520.7856 
  16   1.0000     -10.463080      -284.7149 
  17   1.0000     -10.411734      -283.3177 
  18   1.0000     -10.411077      -283.2998 
  19   1.0000     -10.409639      -283.2607 
  20   1.0000     -10.407787      -283.2103 
  21   1.0000     -10.404243      -283.1139 
  22   1.0000     -10.336662      -281.2749 
  23   1.0000     -10.313854      -280.6542 
  24   1.0000      -1.355625       -36.8884 
  25   1.0000      -1.335275       -36.3347 
  26   1.0000      -1.320496       -35.9325 
  27   1.0000      -1.310417       -35.6583 
  28   1.0000      -1.309925       -35.6449 
  29   1.0000      -1.298907       -35.3450 
  30   1.0000      -1.286342       -35.0031 
  31   1.0000      -1.269820       -34.5535 
  32   1.0000      -1.264551       -34.4102 
  33   1.0000      -1.262309       -34.3492 
  34   1.0000      -1.258018       -34.2324 
  35   1.0000      -1.253244       -34.1025 
  36   1.0000      -1.252015       -34.0691 
  37   1.0000      -1.239761       -33.7356 
  38   1.0000      -1.129422       -30.7331 
  39   1.0000      -1.041874       -28.3508 
  40   1.0000      -0.852195       -23.1894 
  41   1.0000      -0.835606       -22.7380 
  42   1.0000      -0.809735       -22.0340 
  43   1.0000      -0.774595       -21.0778 
  44   1.0000      -0.737943       -20.0805 
  45   1.0000      -0.704081       -19.1590 
  46   1.0000      -0.686285       -18.6748 
  47   1.0000      -0.657410       -17.8890 
  48   1.0000      -0.653543       -17.7838 
  49   1.0000      -0.647555       -17.6209 
  50   1.0000      -0.640654       -17.4331 
  51   1.0000      -0.633611       -17.2414 
  52   1.0000      -0.630874       -17.1670 
  53   1.0000      -0.625946       -17.0329 
  54   1.0000      -0.615744       -16.7552 
  55   1.0000      -0.611041       -16.6273 
  56   1.0000      -0.605763       -16.4837 
  57   1.0000      -0.600443       -16.3389 
  58   1.0000      -0.591177       -16.0867 
  59   1.0000      -0.587242       -15.9797 
  60   1.0000      -0.581811       -15.8319 
  61   1.0000      -0.559576       -15.2268 
  62   1.0000      -0.521598       -14.1934 
  63   1.0000      -0.517860       -14.0917 
  64   1.0000      -0.514875       -14.0105 
  65   1.0000      -0.514099       -13.9893 
  66   1.0000      -0.509525       -13.8649 
  67   1.0000      -0.505703       -13.7609 
  68   1.0000      -0.502955       -13.6861 
  69   1.0000      -0.500541       -13.6204 
  70   1.0000      -0.496762       -13.5176 
  71   1.0000      -0.491565       -13.3762 
  72   1.0000      -0.488297       -13.2872 
  73   1.0000      -0.484425       -13.1819 
  74   1.0000      -0.481866       -13.1123 
  75   1.0000      -0.476137       -12.9563 
  76   1.0000      -0.473770       -12.8919 
  77   1.0000      -0.465618       -12.6701 
  78   1.0000      -0.462909       -12.5964 
  79   1.0000      -0.458558       -12.4780 
  80   1.0000      -0.457179       -12.4405 
  81   1.0000      -0.455284       -12.3889 
  82   1.0000      -0.452853       -12.3227 
  83   1.0000      -0.448629       -12.2078 
  84   1.0000      -0.447677       -12.1819 
  85   1.0000      -0.443671       -12.0729 
  86   1.0000      -0.441615       -12.0170 
  87   1.0000      -0.440706       -11.9922 
  88   1.0000      -0.437592       -11.9075 
  89   1.0000      -0.428030       -11.6473 
  90   1.0000      -0.419600       -11.4179 
  91   1.0000      -0.389292       -10.5932 
  92   1.0000      -0.353037        -9.6066 
  93   1.0000      -0.341520        -9.2932 
  94   1.0000      -0.310354        -8.4452 
  95   0.0000      -0.143744        -3.9115 
  96   0.0000      -0.015121        -0.4115 
  97   0.0000       0.001044         0.0284 
  98   0.0000       0.019022         0.5176 
  99   0.0000       0.036484         0.9928 
 100   0.0000       0.049852         1.3565 
 101   0.0000       0.057904         1.5756 
 102   0.0000       0.089935         2.4473 
 103   0.0000       0.094090         2.5603 
 104   0.0000       0.097050         2.6409 
 105   0.0000       0.114472         3.1149 
*Only the first 10 virtual orbitals were printed.

                    ********************************
                    * MULLIKEN POPULATION ANALYSIS *
                    ********************************

--------------------------------------------
MULLIKEN ATOMIC CHARGES AND SPIN POPULATIONS
--------------------------------------------
   0 C :    0.260146   -0.043354
   1 O :   -0.377379    0.016414
   2 O :   -0.322146    0.158196
   3 C :    0.192639    0.756392
   4 C :    0.377202   -0.003965
   5 C :    0.337078   -0.005992
   6 C :    0.335910    0.000226
   7 C :    0.312343   -0.000081
   8 C :    0.324279    0.000008
   9 C :    0.475979   -0.000003
  10 F :   -0.141032    0.086962
  11 F :   -0.172345    0.009867
  12 F :   -0.180970    0.025613
  13 F :   -0.171078    0.000855
  14 F :   -0.170373    0.000863
  15 F :   -0.166824    0.000005
  16 F :   -0.165674   -0.000015
  17 F :   -0.167285    0.000006
  18 F :   -0.166636    0.000002
  19 F :   -0.165101   -0.000002
  20 F :   -0.162268    0.000001
  21 F :   -0.154914   -0.000000
  22 F :   -0.151962   -0.000001
  23 F :   -0.152276   -0.000000
  24 H :    0.372688   -0.001997
Sum of atomic charges         :   -0.0000000
Sum of atomic spin populations:    1.0000000

-----------------------------------------------------
MULLIKEN REDUCED ORBITAL CHARGES AND SPIN POPULATIONS
-----------------------------------------------------
CHARGE
  0 C s       :     3.048467  s :     3.048467
      pz      :     0.800236  p :     2.392350
      px      :     0.830752
      py      :     0.761363
      dz2     :     0.013873  d :     0.274386
      dxz     :     0.034422
      dyz     :     0.059289
      dx2y2   :     0.071352
      dxy     :     0.095449
      f0      :     0.002789  f :     0.024650
      f+1     :     0.001202
      f-1     :     0.002257
      f+2     :     0.002441
      f-2     :     0.003157
      f+3     :     0.007110
      f-3     :     0.005695

  1 O s       :     3.769933  s :     3.769933
      pz      :     1.749744  p :     4.575868
      px      :     1.262118
      py      :     1.564006
      dz2     :     0.004254  d :     0.029867
      dxz     :     0.001703
      dyz     :     0.005127
      dx2y2   :     0.006434
      dxy     :     0.012347
      f0      :     0.000243  f :     0.001711
      f+1     :     0.000407
      f-1     :     0.000216
      f+2     :     0.000048
      f-2     :     0.000145
      f+3     :     0.000167
      f-3     :     0.000485

  2 O s       :     3.801748  s :     3.801748
      pz      :     1.406690  p :     4.489320
      px      :     1.740406
      py      :     1.342224
      dz2     :     0.003006  d :     0.029299
      dxz     :     0.000843
      dyz     :     0.009930
      dx2y2   :     0.007939
      dxy     :     0.007580
      f0      :     0.000174  f :     0.001779
      f+1     :     0.000028
      f-1     :     0.000223
      f+2     :     0.000351
      f-2     :     0.000111
      f+3     :     0.000465
      f-3     :     0.000427

  3 C s       :     3.222774  s :     3.222774
      pz      :     0.952446  p :     2.407351
      px      :     0.865181
      py      :     0.589724
      dz2     :     0.009642  d :     0.159270
      dxz     :     0.013380
      dyz     :     0.035677
      dx2y2   :     0.031671
      dxy     :     0.068902
      f0      :     0.002537  f :     0.017966
      f+1     :     0.001145
      f-1     :     0.001590
      f+2     :     0.002751
      f-2     :     0.000895
      f+3     :     0.005736
      f-3     :     0.003313

  4 C s       :     3.100774  s :     3.100774
      pz      :     0.616807  p :     2.209767
      px      :     0.898754
      py      :     0.694206
      dz2     :     0.064049  d :     0.284565
      dxz     :     0.063982
      dyz     :     0.065850
      dx2y2   :     0.032308
      dxy     :     0.058375
      f0      :     0.004220  f :     0.027692
      f+1     :     0.004279
      f-1     :     0.007509
      f+2     :     0.002601
      f-2     :     0.003551
      f+3     :     0.003109
      f-3     :     0.002422

  5 C s       :     3.155235  s :     3.155235
      pz      :     0.588859  p :     2.192929
      px      :     0.890222
      py      :     0.713848
      dz2     :     0.074450  d :     0.286622
      dxz     :     0.059646
      dyz     :     0.057830
      dx2y2   :     0.035611
      dxy     :     0.059085
      f0      :     0.005237  f :     0.028136
      f+1     :     0.004093
      f-1     :     0.005962
      f+2     :     0.003742
      f-2     :     0.004362
      f+3     :     0.002426
      f-3     :     0.002313

  6 C s       :     3.138051  s :     3.138051
      pz      :     0.577075  p :     2.212088
      px      :     0.916740
      py      :     0.718273
      dz2     :     0.078358  d :     0.285828
      dxz     :     0.062934
      dyz     :     0.053508
      dx2y2   :     0.032275
      dxy     :     0.058753
      f0      :     0.006119  f :     0.028124
      f+1     :     0.004029
      f-1     :     0.004662
      f+2     :     0.004052
      f-2     :     0.005247
      f+3     :     0.002039
      f-3     :     0.001977

  7 C s       :     3.152288  s :     3.152288
      pz      :     0.599314  p :     2.221115
      px      :     0.917003
      py      :     0.704798
      dz2     :     0.071539  d :     0.286135
      dxz     :     0.058789
      dyz     :     0.062472
      dx2y2   :     0.034515
      dxy     :     0.058821
      f0      :     0.004735  f :     0.028120
      f+1     :     0.004036
      f-1     :     0.006962
      f+2     :     0.003108
      f-2     :     0.004164
      f+3     :     0.002782
      f-3     :     0.002332

  8 C s       :     3.128935  s :     3.128935
      pz      :     0.622435  p :     2.238938
      px      :     0.930301
      py      :     0.686201
      dz2     :     0.055507  d :     0.279745
      dxz     :     0.059968
      dyz     :     0.071706
      dx2y2   :     0.035590
      dxy     :     0.056973
      f0      :     0.003830  f :     0.028103
      f+1     :     0.005197
      f-1     :     0.008235
      f+2     :     0.002206
      f-2     :     0.002049
      f+3     :     0.004004
      f-3     :     0.002583

  9 C s       :     3.024100  s :     3.024100
      pz      :     0.640321  p :     2.114150
      px      :     0.821226
      py      :     0.652604
      dz2     :     0.068705  d :     0.345340
      dxz     :     0.063522
      dyz     :     0.085368
      dx2y2   :     0.062724
      dxy     :     0.065021
      f0      :     0.005276  f :     0.040431
      f+1     :     0.007606
      f-1     :     0.008519
      f+2     :     0.005352
      f-2     :     0.003164
      f+3     :     0.006777
      f-3     :     0.003738

 10 F s       :     3.919264  s :     3.919264
      pz      :     1.834643  p :     5.202994
      px      :     1.902002
      py      :     1.466350
      dz2     :     0.002174  d :     0.018008
      dxz     :     0.000187
      dyz     :     0.005037
      dx2y2   :     0.006446
      dxy     :     0.004164
      f0      :     0.000081  f :     0.000766
      f+1     :     0.000013
      f-1     :     0.000137
      f+2     :     0.000121
      f-2     :     0.000013
      f+3     :     0.000174
      f-3     :     0.000226

 11 F s       :     3.915556  s :     3.915556
      pz      :     1.776759  p :     5.239961
      px      :     1.908722
      py      :     1.554480
      dz2     :     0.002117  d :     0.016133
      dxz     :     0.000958
      dyz     :     0.005849
      dx2y2   :     0.004227
      dxy     :     0.002983
      f0      :     0.000080  f :     0.000695
      f+1     :     0.000004
      f-1     :     0.000136
      f+2     :     0.000204
      f-2     :     0.000075
      f+3     :     0.000089
      f-3     :     0.000108

 12 F s       :     3.915622  s :     3.915622
      pz      :     1.475400  p :     5.249081
      px      :     1.909341
      py      :     1.864341
      dz2     :     0.007672  d :     0.015595
      dxz     :     0.003331
      dyz     :     0.003878
      dx2y2   :     0.000279
      dxy     :     0.000436
      f0      :     0.000297  f :     0.000672
      f+1     :     0.000128
      f-1     :     0.000191
      f+2     :     0.000021
      f-2     :     0.000031
      f+3     :     0.000001
      f-3     :     0.000001

 13 F s       :     3.916568  s :     3.916568
      pz      :     1.705271  p :     5.237305
      px      :     1.893091
      py      :     1.638942
      dz2     :     0.002734  d :     0.016499
      dxz     :     0.001850
      dyz     :     0.006386
      dx2y2   :     0.002882
      dxy     :     0.002647
      f0      :     0.000079  f :     0.000707
      f+1     :     0.000023
      f-1     :     0.000186
      f+2     :     0.000180
      f-2     :     0.000122
      f+3     :     0.000061
      f-3     :     0.000057

 14 F s       :     3.916518  s :     3.916518
      pz      :     1.518697  p :     5.236595
      px      :     1.901039
      py      :     1.816859
      dz2     :     0.006452  d :     0.016547
      dxz     :     0.003368
      dyz     :     0.005093
      dx2y2   :     0.000725
      dxy     :     0.000907
      f0      :     0.000211  f :     0.000713
      f+1     :     0.000112
      f-1     :     0.000246
      f+2     :     0.000061
      f-2     :     0.000072
      f+3     :     0.000007
      f-3     :     0.000005

 15 F s       :     3.916587  s :     3.916587
      pz      :     1.578277  p :     5.232893
      px      :     1.905288
      py      :     1.749327
      dz2     :     0.004882  d :     0.016629
      dxz     :     0.002696
      dyz     :     0.006225
      dx2y2   :     0.001399
      dxy     :     0.001427
      f0      :     0.000134  f :     0.000714
      f+1     :     0.000061
      f-1     :     0.000273
      f+2     :     0.000119
      f-2     :     0.000095
      f+3     :     0.000018
      f-3     :     0.000015

 16 F s       :     3.916372  s :     3.916372
      pz      :     1.617196  p :     5.231868
      px      :     1.905565
      py      :     1.709107
      dz2     :     0.004078  d :     0.016715
      dxz     :     0.002388
      dyz     :     0.006608
      dx2y2   :     0.001876
      dxy     :     0.001765
      f0      :     0.000106  f :     0.000719
      f+1     :     0.000041
      f-1     :     0.000261
      f+2     :     0.000152
      f-2     :     0.000105
      f+3     :     0.000027
      f-3     :     0.000026

 17 F s       :     3.916914  s :     3.916914
      pz      :     1.742116  p :     5.233008
      px      :     1.903668
      py      :     1.587224
      dz2     :     0.002412  d :     0.016649
      dxz     :     0.001343
      dyz     :     0.006386
      dx2y2   :     0.003681
      dxy     :     0.002828
      f0      :     0.000080  f :     0.000714
      f+1     :     0.000008
      f-1     :     0.000165
      f+2     :     0.000208
      f-2     :     0.000096
      f+3     :     0.000075
      f-3     :     0.000083

 18 F s       :     3.916931  s :     3.916931
      pz      :     1.495815  p :     5.232325
      px      :     1.891287
      py      :     1.845223
      dz2     :     0.007130  d :     0.016665
      dxz     :     0.003855
      dyz     :     0.004438
      dx2y2   :     0.000555
      dxy     :     0.000687
      f0      :     0.000251  f :     0.000715
      f+1     :     0.000147
      f-1     :     0.000211
      f+2     :     0.000042
      f-2     :     0.000058
      f+3     :     0.000003
      f-3     :     0.000004

 19 F s       :     3.916393  s :     3.916393
      pz      :     1.833161  p :     5.231449
      px      :     1.900968
      py      :     1.497321
      dz2     :     0.002096  d :     0.016546
      dxz     :     0.000561
      dyz     :     0.004905
      dx2y2   :     0.005394
      dxy     :     0.003590
      f0      :     0.000079  f :     0.000713
      f+1     :     0.000005
      f-1     :     0.000121
      f+2     :     0.000174
      f-2     :     0.000049
      f+3     :     0.000124
      f-3     :     0.000161

 20 F s       :     3.914112  s :     3.914112
      pz      :     1.438130  p :     5.230751
      px      :     1.904076
      py      :     1.888545
      dz2     :     0.008992  d :     0.016680
      dxz     :     0.003938
      dyz     :     0.003447
      dx2y2   :     0.000155
      dxy     :     0.000148
      f0      :     0.000384  f :     0.000726
      f+1     :     0.000169
      f-1     :     0.000159
      f+2     :     0.000005
      f-2     :     0.000007
      f+3     :     0.000001
      f-3     :     0.000001

 21 F s       :     3.912403  s :     3.912403
      pz      :     1.866104  p :     5.225104
      px      :     1.892060
      py      :     1.466941
      dz2     :     0.002284  d :     0.016650
      dxz     :     0.000310
      dyz     :     0.004123
      dx2y2   :     0.006313
      dxy     :     0.003620
      f0      :     0.000074  f :     0.000757
      f+1     :     0.000009
      f-1     :     0.000141
      f+2     :     0.000141
      f-2     :     0.000024
      f+3     :     0.000146
      f-3     :     0.000220

 22 F s       :     3.911392  s :     3.911392
      pz      :     1.788278  p :     5.223087
      px      :     1.654154
      py      :     1.780655
      dz2     :     0.002250  d :     0.016716
      dxz     :     0.004291
      dyz     :     0.002592
      dx2y2   :     0.003169
      dxy     :     0.004413
      f0      :     0.000089  f :     0.000767
      f+1     :     0.000099
      f-1     :     0.000051
      f+2     :     0.000089
      f-2     :     0.000205
      f+3     :     0.000104
      f-3     :     0.000130

 23 F s       :     3.911003  s :     3.911003
      pz      :     1.456771  p :     5.223686
      px      :     1.881672
      py      :     1.885243
      dz2     :     0.008690  d :     0.016816
      dxz     :     0.004032
      dyz     :     0.003535
      dx2y2   :     0.000323
      dxy     :     0.000236
      f0      :     0.000367  f :     0.000770
      f+1     :     0.000188
      f-1     :     0.000171
      f+2     :     0.000025
      f-2     :     0.000017
      f+3     :     0.000001
      f-3     :     0.000001

 24 H s       :     0.583769  s :     0.583769
      pz      :     0.013090  p :     0.043543
      px      :     0.019498
      py      :     0.010955


SPIN
  0 C s       :    -0.016236  s :    -0.016236
      pz      :    -0.023034  p :    -0.047896
      px      :    -0.016929
      py      :    -0.007934
      dz2     :    -0.000198  d :     0.019503
      dxz     :     0.016442
      dyz     :     0.004358
      dx2y2   :     0.000041
      dxy     :    -0.001140
      f0      :     0.000091  f :     0.001275
      f+1     :    -0.000030
      f-1     :     0.000064
      f+2     :     0.000868
      f-2     :     0.000240
      f+3     :     0.000043
      f-3     :    -0.000001

  1 O s       :     0.000682  s :     0.000682
      pz      :     0.015074  p :     0.015817
      px      :     0.000347
      py      :     0.000397
      dz2     :    -0.000033  d :    -0.000065
      dxz     :     0.000104
      dyz     :    -0.000054
      dx2y2   :    -0.000080
      dxy     :    -0.000001
      f0      :    -0.000005  f :    -0.000021
      f+1     :    -0.000005
      f-1     :    -0.000004
      f+2     :     0.000000
      f-2     :    -0.000002
      f+3     :    -0.000002
      f-3     :    -0.000002

  2 O s       :     0.006460  s :     0.006460
      pz      :     0.146438  p :     0.152487
      px      :    -0.000316
      py      :     0.006365
      dz2     :    -0.000018  d :    -0.000632
      dxz     :    -0.000013
      dyz     :    -0.000564
      dx2y2   :    -0.000087
      dxy     :     0.000050
      f0      :    -0.000046  f :    -0.000119
      f+1     :    -0.000007
      f-1     :    -0.000045
      f+2     :    -0.000016
      f-2     :    -0.000004
      f+3     :     0.000001
      f-3     :    -0.000002

  3 C s       :     0.044626  s :     0.044626
      pz      :     0.665912  p :     0.710226
      px      :     0.029421
      py      :     0.014893
      dz2     :    -0.001418  d :     0.003191
      dxz     :     0.000949
      dyz     :     0.001931
      dx2y2   :     0.000274
      dxy     :     0.001456
      f0      :    -0.000667  f :    -0.001651
      f+1     :    -0.000558
      f-1     :    -0.000602
      f+2     :     0.000311
      f-2     :    -0.000029
      f+3     :    -0.000025
      f-3     :    -0.000081

  4 C s       :    -0.006533  s :    -0.006533
      pz      :     0.013892  p :    -0.011881
      px      :    -0.018347
      py      :    -0.007426
      dz2     :     0.003275  d :     0.012943
      dxz     :     0.004794
      dyz     :     0.005089
      dx2y2   :    -0.000131
      dxy     :    -0.000085
      f0      :     0.000453  f :     0.001505
      f+1     :     0.000137
      f-1     :     0.000096
      f+2     :     0.000180
      f-2     :     0.000548
      f+3     :     0.000022
      f-3     :     0.000070

  5 C s       :    -0.001466  s :    -0.001466
      pz      :    -0.002516  p :    -0.004315
      px      :    -0.001710
      py      :    -0.000089
      dz2     :    -0.000061  d :    -0.000237
      dxz     :     0.000075
      dyz     :     0.000002
      dx2y2   :    -0.000183
      dxy     :    -0.000069
      f0      :     0.000013  f :     0.000025
      f+1     :     0.000005
      f-1     :     0.000001
      f+2     :     0.000011
      f-2     :     0.000001
      f+3     :    -0.000006
      f-3     :     0.000001

  6 C s       :    -0.000108  s :    -0.000108
      pz      :     0.000539  p :     0.000374
      px      :    -0.000081
      py      :    -0.000084
      dz2     :     0.000002  d :    -0.000040
      dxz     :     0.000001
      dyz     :    -0.000002
      dx2y2   :    -0.000025
      dxy     :    -0.000017
      f0      :     0.000001  f :     0.000000
      f+1     :    -0.000000
      f-1     :     0.000000
      f+2     :    -0.000000
      f-2     :     0.000001
      f+3     :    -0.000000
      f-3     :    -0.000000

  7 C s       :    -0.000020  s :    -0.000020
      pz      :     0.000001  p :    -0.000050
      px      :    -0.000025
      py      :    -0.000026
      dz2     :    -0.000001  d :    -0.000011
      dxz     :    -0.000000
      dyz     :    -0.000000
      dx2y2   :    -0.000014
      dxy     :     0.000004
      f0      :     0.000000  f :     0.000000
      f+1     :    -0.000000
      f-1     :     0.000000
      f+2     :     0.000000
      f-2     :     0.000000
      f+3     :     0.000000
      f-3     :    -0.000000

  8 C s       :     0.000008  s :     0.000008
      pz      :     0.000006  p :    -0.000000
      px      :     0.000004
      py      :    -0.000010
      dz2     :    -0.000000  d :     0.000000
      dxz     :     0.000000
      dyz     :     0.000000
      dx2y2   :     0.000001
      dxy     :    -0.000001
      f0      :    -0.000000  f :    -0.000000
      f+1     :     0.000000
      f-1     :     0.000000
      f+2     :     0.000000
      f-2     :    -0.000000
      f+3     :    -0.000000
      f-3     :    -0.000000

  9 C s       :     0.000001  s :     0.000001
      pz      :    -0.000001  p :    -0.000002
      px      :    -0.000003
      py      :     0.000001
      dz2     :    -0.000000  d :    -0.000001
      dxz     :    -0.000000
      dyz     :     0.000000
      dx2y2   :    -0.000001
      dxy     :    -0.000001
      f0      :     0.000000  f :    -0.000000
      f+1     :    -0.000000
      f-1     :     0.000000
      f+2     :     0.000000
      f-2     :    -0.000000
      f+3     :    -0.000000
      f-3     :    -0.000000

 10 F s       :     0.003395  s :     0.003395
      pz      :     0.089327  p :     0.082083
      px      :     0.000997
      py      :    -0.008240
      dz2     :     0.000080  d :     0.001456
      dxz     :     0.000034
      dyz     :     0.001207
      dx2y2   :     0.000085
      dxy     :     0.000050
      f0      :     0.000009  f :     0.000028
      f+1     :    -0.000002
      f-1     :    -0.000010
      f+2     :     0.000024
      f-2     :     0.000003
      f+3     :     0.000002
      f-3     :     0.000002

 11 F s       :    -0.000115  s :    -0.000115
      pz      :     0.000594  p :     0.009972
      px      :     0.000109
      py      :     0.009270
      dz2     :    -0.000005  d :     0.000010
      dxz     :     0.000003
      dyz     :     0.000017
      dx2y2   :    -0.000011
      dxy     :     0.000006
      f0      :     0.000000  f :    -0.000000
      f+1     :     0.000000
      f-1     :    -0.000001
      f+2     :     0.000000
      f-2     :    -0.000001
      f+3     :     0.000000
      f-3     :     0.000001

 12 F s       :     0.000329  s :     0.000329
      pz      :     0.010335  p :     0.025275
      px      :     0.004935
      py      :     0.010005
      dz2     :     0.000005  d :     0.000006
      dxz     :    -0.000022
      dyz     :    -0.000022
      dx2y2   :     0.000002
      dxy     :     0.000044
      f0      :     0.000001  f :     0.000004
      f+1     :    -0.000000
      f-1     :     0.000001
      f+2     :     0.000001
      f-2     :     0.000001
      f+3     :     0.000000
      f-3     :     0.000000

 13 F s       :     0.000095  s :     0.000095
      pz      :    -0.000001  p :     0.000760
      px      :     0.000482
      py      :     0.000280
      dz2     :     0.000000  d :     0.000000
      dxz     :    -0.000001
      dyz     :     0.000000
      dx2y2   :    -0.000000
      dxy     :     0.000001
      f0      :    -0.000000  f :    -0.000000
      f+1     :    -0.000000
      f-1     :     0.000000
      f+2     :    -0.000000
      f-2     :    -0.000000
      f+3     :    -0.000000
      f-3     :     0.000000

 14 F s       :     0.000359  s :     0.000359
      pz      :    -0.000058  p :     0.000481
      px      :     0.000269
      py      :     0.000270
[...]
 11:     67.85   0.000033    0.17  0.000153  ( 0.004158  0.001708  0.011532)
 12:     69.57   0.000150    0.76  0.000671  (-0.005384  0.002881  0.025167)
 13:     96.94   0.000022    0.11  0.000071  (-0.003274  0.005339 -0.005651)
 14:    116.48   0.000171    0.86  0.000458  ( 0.013867  0.015352  0.005495)
 15:    137.90   0.000027    0.14  0.000062  ( 0.000224  0.005185  0.005926)
 16:    168.75   0.000225    1.14  0.000417  ( 0.005974 -0.001358 -0.019479)
 17:    175.67   0.001355    6.85  0.002407  (-0.009908 -0.009723 -0.047051)
 18:    199.31   0.001949    9.85  0.003052  ( 0.002660 -0.022427  0.050413)
 19:    208.91   0.000092    0.46  0.000137  (-0.001913  0.001097 -0.011508)
 20:    212.60   0.000045    0.23  0.000066  (-0.007689 -0.002280  0.001206)
 21:    227.38   0.000244    1.23  0.000334  (-0.002350 -0.017261 -0.005544)
 22:    239.00   0.000046    0.23  0.000060  ( 0.004036  0.004180  0.005082)
 23:    253.22   0.000049    0.25  0.000061  (-0.005632  0.002002  0.005001)
 24:    258.40   0.000073    0.37  0.000088  ( 0.002225 -0.001429 -0.008981)
 25:    287.20   0.001395    7.05  0.001516  ( 0.036361 -0.011798 -0.007405)
 26:    303.07   0.000079    0.40  0.000081  (-0.004826 -0.004580  0.006065)
 27:    315.92   0.000124    0.63  0.000123  ( 0.007369 -0.007951 -0.002249)
 28:    324.72   0.002573   13.00  0.002473  (-0.046927 -0.016451 -0.000018)
 29:    337.08   0.000132    0.67  0.000122  ( 0.010112  0.004450  0.000133)
 30:    356.01   0.000144    0.73  0.000126  (-0.006946 -0.003248  0.008191)
 31:    366.89   0.000482    2.44  0.000410  ( 0.004108  0.006647 -0.018686)
 32:    369.04   0.000068    0.34  0.000057  (-0.006595  0.002755 -0.002525)
 33:    376.71   0.000054    0.27  0.000044  (-0.005639  0.002847 -0.002118)
 34:    381.86   0.000104    0.53  0.000085  ( 0.005618  0.001018 -0.007244)
 35:    422.47   0.000275    1.39  0.000203  ( 0.000781  0.007532  0.012084)
 36:    474.42   0.001517    7.67  0.000998  (-0.005895  0.004495 -0.030706)
 37:    517.83   0.011898   60.13  0.007170  ( 0.083437 -0.010535 -0.009852)
 38:    528.37   0.004244   21.45  0.002507  (-0.011031  0.039091  0.029271)
 39:    530.58   0.009615   48.59  0.005655  (-0.037514  0.003538  0.065081)
 40:    550.49   0.014499   73.27  0.008219  ( 0.033095 -0.020554 -0.081862)
 41:    563.53   0.004202   21.23  0.002327  ( 0.005666  0.046900  0.009753)
 42:    570.60   0.024051  121.54  0.013154  ( 0.099237 -0.008218  0.056904)
 43:    585.98   0.009138   46.18  0.004867  ( 0.068054 -0.014618  0.004647)
 44:    603.94   0.000174    0.88  0.000090  ( 0.009438  0.000131  0.000894)
 45:    627.94   0.021898  110.66  0.010882  (-0.100559  0.027185  0.005577)
 46:    647.79   0.027623  139.60  0.013307  ( 0.115317 -0.002430  0.001745)
 47:    693.08   0.001472    7.44  0.000663  ( 0.022197 -0.011173  0.006722)
 48:    701.64   0.012995   65.67  0.005780  ( 0.075834 -0.002318 -0.004854)
 49:    721.46   0.010478   52.95  0.004532  (-0.020102  0.009394  0.063560)
 50:    722.65   0.000117    0.59  0.000051  (-0.001268 -0.000544  0.006984)
 51:    756.14   0.000912    4.61  0.000376  ( 0.002456 -0.011020 -0.015776)
 52:    867.21   0.001508    7.62  0.000543  (-0.020150 -0.010160  0.005774)
 53:   1009.84   0.024341  123.01  0.007522  (-0.076213  0.029221 -0.029318)
 54:   1059.53   0.047589  240.50  0.014016  ( 0.001229  0.013072 -0.117661)
 55:   1102.13   0.013597   68.71  0.003850  (-0.001425 -0.053731 -0.030996)
 56:   1116.36   0.013963   70.56  0.003903  (-0.032860  0.048061 -0.022663)
 57:   1130.73   0.104528  528.24  0.028848  ( 0.013459  0.165740  0.034601)
 58:   1140.20   0.023497  118.75  0.006431  ( 0.070273  0.026311  0.028292)
 59:   1143.96   0.055920  282.60  0.015255  ( 0.003175  0.117398  0.038238)
 60:   1150.23   0.029909  151.15  0.008115  (-0.002319 -0.013296  0.089064)
 61:   1155.13   0.137615  695.45  0.037177  ( 0.031728 -0.017161  0.189410)
 62:   1161.55   0.059884  302.63  0.016089  ( 0.034540 -0.116501  0.036372)
 63:   1171.06   0.058753  296.91  0.015657  ( 0.021212  0.014063 -0.122510)
 64:   1186.69   0.046188  233.42  0.012146  (-0.073348  0.013061  0.081213)
 65:   1187.43   0.050186  253.62  0.013189  ( 0.043600 -0.079629  0.070338)
 66:   1220.20   0.014457   73.06  0.003697  (-0.004245 -0.053008 -0.029486)
 67:   1243.77   0.009112   46.05  0.002286  (-0.015150 -0.035455  0.028276)
 68:   1274.96   0.005562   28.11  0.001361  ( 0.022189  0.029420  0.001845)
 69:   1288.52   0.014201   71.77  0.003439  ( 0.045368 -0.037164 -0.000051)
 70:   1333.40   0.005120   25.87  0.001198  (-0.009516  0.033247 -0.001535)
 71:   1355.27   0.031822  160.82  0.007327  (-0.080808 -0.028088 -0.002908)
 72:   1447.45   0.042919  216.90  0.009253  ( 0.064021 -0.071071  0.010170)
 73:   1713.34   0.068787  347.62  0.012529  ( 0.012163  0.109359 -0.020527)
 74:   3639.64   0.055061  278.25  0.004721  ( 0.068528  0.004049  0.002903)

* The epsilon (eps) is given for a Dirac delta lineshape.
** The dipole moment derivative (T) already includes vibrational overlap.

The first frequency considered to be a vibration is 6
The total number of vibrations considered is 69


--------------------------
THERMOCHEMISTRY AT 298.15K
--------------------------

Temperature         ...   298.15 K
Pressure            ...     1.00 atm
Total Mass          ...   395.07 AMU
Quasi RRHO          ...     True
Cut-Off Frequency   ...     1.00 cm^-1

Throughout the following assumptions are being made:
  (1) The electronic state is orbitally nondegenerate
      but the spin degeneracy is treated
  (2) There are no thermally accessible electronically excited states
  (3) Hindered rotations indicated by low frequency modes are not
      treated as such but are treated as vibrations and this may
      cause some error
  (4) All equations used are the standard statistical mechanics
      equations for an ideal gas
  (5) All vibrations are strictly harmonic

freq.      22.46  E(vib)   ...       0.56 
freq.      29.44  E(vib)   ...       0.55 
freq.      38.73  E(vib)   ...       0.54 
freq.      47.23  E(vib)   ...       0.53 
freq.      56.40  E(vib)   ...       0.52 
freq.      67.85  E(vib)   ...       0.50 
freq.      69.57  E(vib)   ...       0.50 
freq.      96.94  E(vib)   ...       0.46 
freq.     116.48  E(vib)   ...       0.44 
freq.     137.90  E(vib)   ...       0.42 
freq.     168.75  E(vib)   ...       0.38 
freq.     175.67  E(vib)   ...       0.38 
freq.     199.31  E(vib)   ...       0.35 
freq.     208.91  E(vib)   ...       0.34 
freq.     212.60  E(vib)   ...       0.34 
freq.     227.38  E(vib)   ...       0.33 
freq.     239.00  E(vib)   ...       0.32 
freq.     253.22  E(vib)   ...       0.30 
freq.     258.40  E(vib)   ...       0.30 
freq.     287.20  E(vib)   ...       0.27 
freq.     303.07  E(vib)   ...       0.26 
freq.     315.92  E(vib)   ...       0.25 
freq.     324.72  E(vib)   ...       0.24 
freq.     337.08  E(vib)   ...       0.24 
freq.     356.01  E(vib)   ...       0.22 
freq.     366.89  E(vib)   ...       0.22 
freq.     369.04  E(vib)   ...       0.21 
freq.     376.71  E(vib)   ...       0.21 
freq.     381.86  E(vib)   ...       0.21 
freq.     422.47  E(vib)   ...       0.18 
freq.     474.42  E(vib)   ...       0.15 
freq.     517.83  E(vib)   ...       0.13 
freq.     528.37  E(vib)   ...       0.13 
freq.     530.58  E(vib)   ...       0.13 
freq.     550.49  E(vib)   ...       0.12 
freq.     563.53  E(vib)   ...       0.11 
freq.     570.60  E(vib)   ...       0.11 
freq.     585.98  E(vib)   ...       0.11 
freq.     603.94  E(vib)   ...       0.10 
freq.     627.94  E(vib)   ...       0.09 
freq.     647.79  E(vib)   ...       0.09 
freq.     693.08  E(vib)   ...       0.07 
freq.     701.64  E(vib)   ...       0.07 
freq.     721.46  E(vib)   ...       0.07 
freq.     722.65  E(vib)   ...       0.07 
freq.     756.14  E(vib)   ...       0.06 
freq.     867.21  E(vib)   ...       0.04 
freq.    1009.84  E(vib)   ...       0.02 
freq.    1059.53  E(vib)   ...       0.02 
freq.    1102.13  E(vib)   ...       0.02 
freq.    1116.36  E(vib)   ...       0.01 
freq.    1130.73  E(vib)   ...       0.01 
freq.    1140.20  E(vib)   ...       0.01 
freq.    1143.96  E(vib)   ...       0.01 
freq.    1150.23  E(vib)   ...       0.01 
freq.    1155.13  E(vib)   ...       0.01 
freq.    1161.55  E(vib)   ...       0.01 
freq.    1171.06  E(vib)   ...       0.01 
freq.    1186.69  E(vib)   ...       0.01 
freq.    1187.43  E(vib)   ...       0.01 
freq.    1220.20  E(vib)   ...       0.01 
freq.    1243.77  E(vib)   ...       0.01 
freq.    1274.96  E(vib)   ...       0.01 
freq.    1288.52  E(vib)   ...       0.01 
freq.    1333.40  E(vib)   ...       0.01 
freq.    1355.27  E(vib)   ...       0.01 
freq.    1447.45  E(vib)   ...       0.00 
freq.    1713.34  E(vib)   ...       0.00 
freq.    3639.64  E(vib)   ...       0.00 

------------
INNER ENERGY
------------

The inner energy is: U= E(el) + E(ZPE) + E(vib) + E(rot) + E(trans)
    E(el)   - is the total energy from the electronic structure calculation
              = E(kin-el) + E(nuc-el) + E(el-el) + E(nuc-nuc)
    E(ZPE)  - the the zero temperature vibrational energy from the frequency calculation
    E(vib)  - the the finite temperature correction to E(ZPE) due to population
              of excited vibrational states
    E(rot)  - is the rotational thermal energy
    E(trans)- is the translational thermal energy

Summary of contributions to the inner energy U:
Electronic energy                ...  -1853.74326155 Eh
Zero point energy                ...      0.10562100 Eh      66.28 kcal/mol
Thermal vibrational correction   ...      0.01981639 Eh      12.43 kcal/mol
Thermal rotational correction    ...      0.00141627 Eh       0.89 kcal/mol
Thermal translational correction ...      0.00141627 Eh       0.89 kcal/mol
-----------------------------------------------------------------------
Total thermal energy                  -1853.61499161 Eh


Summary of corrections to the electronic energy:
(perhaps to be used in another calculation)
Total thermal correction                  0.02264893 Eh      14.21 kcal/mol
Non-thermal (ZPE) correction              0.10562100 Eh      66.28 kcal/mol
-----------------------------------------------------------------------
Total correction                          0.12826994 Eh      80.49 kcal/mol


--------
ENTHALPY
--------

The enthalpy is H = U + kB*T
                kB is Boltzmann's constant
Total thermal energy              ...  -1853.61499161 Eh 
Thermal Enthalpy correction       ...      0.00094421 Eh       0.59 kcal/mol
-----------------------------------------------------------------------
Total Enthalpy                    ...  -1853.61404740 Eh


Note: Only C1 symmetry has been detected, increase convergence thresholds 
      if your molecule has a higher symmetry. Symmetry factor of 1.0 is   
      used for the rotational entropy correction. 
 

Note: Rotational entropy computed according to Herzberg 
Infrared and Raman Spectra, Chapter V,1, Van Nostrand Reinhold, 1945 
Point Group:  C1, Symmetry Number:   1  
Rotational constants in cm-1:     0.023237     0.003944     0.003817 

Vibrational entropy computed according to the QRRHO of S. Grimme
Chem.Eur.J. 2012 18 9955 using a reference frequency of 100.0 cm-1


-------
ENTROPY
-------

The entropy contributions are T*S = T*(S(el)+S(vib)+S(rot)+S(trans))
     S(el)   - electronic entropy
     S(vib)  - vibrational entropy
     S(rot)  - rotational entropy
     S(trans)- translational entropy
The entropies will be listed as multiplied by the temperature to get
units of energy

Electronic entropy                ...      0.00065446 Eh      0.41 kcal/mol
Vibrational entropy               ...      0.03548738 Eh     22.27 kcal/mol
Rotational entropy                ...      0.01652878 Eh     10.37 kcal/mol
Translational entropy             ...      0.02081703 Eh     13.06 kcal/mol
-----------------------------------------------------------------------
Final entropy term                ...      0.07348765 Eh     46.11 kcal/mol

In case the symmetry of your molecule has not been determined correctly
or in case you have a reason to use a different symmetry number we print 
out the resulting rotational entropy values for sn=1,12:

 non-linear molecules -----------------------------------
|  sn= 1 | S(rot)=       0.01652878 Eh     10.37 kcal/mol|
|  sn= 2 | S(rot)=       0.01587432 Eh      9.96 kcal/mol|
|  sn= 3 | S(rot)=       0.01549149 Eh      9.72 kcal/mol|
|  sn= 4 | S(rot)=       0.01521987 Eh      9.55 kcal/mol|
|  sn= 5 | S(rot)=       0.01500918 Eh      9.42 kcal/mol|
|  sn= 6 | S(rot)=       0.01483703 Eh      9.31 kcal/mol|
|  sn= 7 | S(rot)=       0.01469149 Eh      9.22 kcal/mol|
|  sn= 8 | S(rot)=       0.01456541 Eh      9.14 kcal/mol|
|  sn= 9 | S(rot)=       0.01445420 Eh      9.07 kcal/mol|
|  sn=10 | S(rot)=       0.01435472 Eh      9.01 kcal/mol|
|  sn=11 | S(rot)=       0.01426473 Eh      8.95 kcal/mol|
|  sn=12 | S(rot)=       0.01418258 Eh      8.90 kcal/mol|
 linear molecules ---------------------------------------
|  Dinfh | S(rot)=       0.01058316 Eh      6.64 kcal/mol|
|  Cinfv | S(rot)=       0.01123761 Eh      7.05 kcal/mol|
 --------------------------------------------------------


-------------------
GIBBS FREE ENERGY
-------------------

The Gibbs free energy is G = H - T*S

Total enthalpy                    ...  -1853.61404740 Eh 
Total entropy correction          ...     -0.07348765 Eh    -46.11 kcal/mol
-----------------------------------------------------------------------
Final Gibbs free energy         ...  -1853.68753505 Eh

For completeness - the Gibbs free energy minus the electronic energy
G-E(el)                           ...      0.05572650 Eh     34.97 kcal/mol


Maximum memory used throughout the entire PROP-calculation: 545.7 MB

--------------------------------
SUGGESTED CITATIONS FOR THIS RUN
--------------------------------

Below you find a list of papers that are relevant to this ORCA run
We neither can nor want to force you to cite these papers, but we appreciate if you do
You receive ORCA, which is the product of decades of hard work by many enthusiastic individuals, for free
The only thing we kindly ask in return is that you cite our papers,
We deeply appreciate it, if you show your appreciation for ORCA by not just citing the generic ORCA reference.

Please note that relegating all ORCA citations to the supporting information does *not* help us.
SI sections are not indexed - citations you put there will not count into any citation statistics
But we need these citations in order to attract the funding resources that allow us to do what we are doing

Therefore, if you are a happy ORCA user, please consider citing a few of the papers listed below in the main body of your paper

In addition to the list printed below, the program has created the file rf_mecn_freq_B3L_C2_P_B.bibtex that contains the list in bibtex format
You can import this file easily into all common literature databanks and citation aid programs


List of essential papers. We consider these as the minimum necessary citations

  1. Neese,F.
     Software update: the ORCA program system, version 5.0
     WIRES Comput. Molec. Sci., 2022 12(1)e1606
     doi.org/10.1002/wcms.1606

List of papers to cite with high priority. The work reported in these papers was absolutely
necessary for this run to complete.
Our perspective: the developers of density functionals and basis sets usually get cited in chemistry papers
Good! But without the algorithms to do something with them, the functionals or basis sets would not do anything.
Hence, in our opinion, the algorithm design and method developments papers are equally worthy of getting cited

  1. Neese,F.
     An improvement of the resolution of the identity approximation for the formation of the Coulomb matrix
     J. Comp. Chem., 2003 24(14)1740-1747
     doi.org/10.1002/jcc.10318
  2. Neese,F.; Wennmohs,F.; Hansen,A.; Becker,U.
     Efficient, approximate and parallel Hartree-Fock and hybrid DFT calculations. A 'chain-of-spheres' algorithm for the Hartree-Fock exchange
     Chem. Phys., 2009 356(1-3)98-109
     doi.org/10.1016/j.chemphys.2008.10.036
  3. Bykov,D.; Petrenko,T.; Izsak,R.; Kossmann,S.; Becker,U.; Valeev,E.; Neese,F.
     Efficient implementation of the analytic second derivatives of Hartree-Fock and hybrid DFT energies: a detailed analysis of different approximations
     Molec. Phys., 2015 113 1961-1977
     doi.org/10.1080/00268976.2015.1025114
  4. Garcia-Rates,M.; Neese,F.
     Efficient implementation of the analytical second derivatives of hartree-fock and hybrid DFT energies within the framework of the conductor-like polarizable continuum model
     J. Comput. Chem., 2019 40 1816-1828
     doi.org/10.1002/jcc.25833
  5. Garcia-Rates,M.; Neese,F.
     Effect of the Solute Cavity on the Solvation Energy and its Derivatives within the Framework of the Gaussian Charge Scheme
     J. Comput. Chem., 2020 41 922-939
     doi.org/10.1002/jcc.26139
  6. Helmich-Paris,B.; de Souza,B.; Neese,F.; Izsák,R.
     An improved chain of spheres for exchange algorithm
     J. Chem. Phys., 2021 155 104109
     doi.org/doi: 10.1063/5.0058766.
  7. Neese,F.
     The SHARK Integral Generation and Digestion System
     J. Comp. Chem., 2022  1-16
     doi.org/10.1002/jcc.26942
  8. Grimme,S.; Antony,J.; Ehrlich,S.; Krieg,H.
     A consistent and accurate ab initio parametrization of density functional dispersion correction (DFT-D) for the 94 elements H-Pu
     J. Chem. Phys., 2010 132 154104
     doi.org/10.1063/1.3382344
  9. Grimme,S.; Ehrlich,S.; Goerigk,L.
     Effect of the damping function in dispersion corrected density functional theory
     J. Comput. Chem., 2011 32(7)1456-1465
     doi.org/10.1002/jcc.21759

List of suggested additional citations. These are papers that are important in the 'surrounding' of 
of this run, or papers that preceded the highly important papers. If you like your results we are grateful for a citation.

  1. Izsak,R.; Neese,F.
     An overlap fitted chain of spheres exchange method
     J. Chem. Phys., 2011 135 144105
     doi.org/10.1063/1.3646921
  2. Izsak,R.; Hansen,A.; Neese,F.
     The resolution of identity and chain of spheres approximations for the LPNO-CCSD singles Fock term
     Molec. Phys., 2012 110 2413-2417
     doi.org/10.1080/00268976.2012.687466
  3. Neese,F.
     The ORCA program system
     WIRES Comput. Molec. Sci., 2012 2(1)73-78
     doi.org/10.1002/wcms.81
  4. Izsak,R.; Neese,F.; Klopper,W.
     Robust fitting techniques in the chain of spheres approximation to the Fock exchange: The role of the complementary space
     J. Chem. Phys., 2013 139 
     doi.org/10.1063/1.4819264
  5. Neese,F.
     Software update: the ORCA program system, version 4.0
     WIRES Comput. Molec. Sci., 2018 8(1)1-6
     doi.org/10.1002/wcms.1327
  6. Neese,F.; Wennmohs,F.; Becker,U.; Riplinger,C.
     The ORCA quantum chemistry program package
     J. Chem. Phys., 2020 152 Art. No. L224108
     doi.org/10.1063/5.0004608

List of optional additional citations

  1. Neese,F.
     Approximate second-order SCF convergence for spin unrestricted wavefunctions
     Chem. Phys. Lett., 2000 325(1-3)93-98
     doi.org/10.1016/s0009-2614(00)00662-x

Timings for individual modules:

Sum of individual times          ...     1201.307 sec (=  20.022 min)
Startup calculation              ...        3.608 sec (=   0.060 min)   0.3 %
SCF iterations                   ...       88.920 sec (=   1.482 min)   7.4 %
Property integrals               ...      271.844 sec (=   4.531 min)  22.6 %
SCF Response                     ...      551.039 sec (=   9.184 min)  45.9 %
Property calculations            ...      285.897 sec (=   4.765 min)  23.8 %
                             ****ORCA TERMINATED NORMALLY****
TOTAL RUN TIME: 0 days 0 hours 20 minutes 2 seconds 204 msec
