
                                 *****************
                                 * O   R   C   A *
                                 *****************

                                            #,                                       
                                            ###                                      
                                            ####                                     
                                            #####                                    
                                            ######                                   
                                           ########,                                 
                                     ,,################,,,,,                         
                               ,,#################################,,                 
                          ,,##########################################,,             
                       ,#########################################, ''#####,          
                    ,#############################################,,   '####,        
                  ,##################################################,,,,####,       
                ,###########''''           ''''###############################       
              ,#####''   ,,,,##########,,,,          '''####'''          '####       
            ,##' ,,,,###########################,,,                        '##       
           ' ,,###''''                  '''############,,,                           
         ,,##''                                '''############,,,,        ,,,,,,###''
      ,#''                                            '''#######################'''  
     '                                                          ''''####''''         
             ,#######,   #######,   ,#######,      ##                                
            ,#'     '#,  ##    ##  ,#'     '#,    #''#        ,####,   ,####,        
            ##       ##  ##   ,#'  ##            #'  '#       #'       #'  '#        
            ##       ##  #######   ##           ,######,      #####,   #    #        
            '#,     ,#'  ##    ##  '#,     ,#' ,#      #,     #,   #   #,  ,#        
             '#######'   ##     ##  '#######'  #'      '#     '####' # '####'        



                #########################################################
                #                        -***-                          #
                #          Department of theory and spectroscopy        #
                #                                                       #
                #                      Frank Neese                      #
                #                                                       #
                #     Directorship, Architecture, Infrastructure        #
                #                    SHARK, DRIVERS                     #
                #        Core code/Algorithms in most modules           #
                #                                                       #
                #        Max Planck Institute fuer Kohlenforschung      #
                #                Kaiser Wilhelm Platz 1                 #
                #                 D-45470 Muelheim/Ruhr                 #
                #                      Germany                          #
                #                                                       #
                #                  All rights reserved                  #
                #                        -***-                          #
                #########################################################


                         Program Version 6.0.1  -  RELEASE   -


 With contributions from (in alphabetic order):
[Max-Planck-Institut fuer Kohlenforschung]                               
  Daniel Aravena         : Magnetic Suceptibility                        
  Michael Atanasov       : Ab Initio Ligand Field Theory (pilot matlab implementation)
  Alexander A. Auer      : GIAO ZORA, VPT2 properties, NMR spectrum      
  Ute Becker             : All parallelization in ORCA, NUMFREQ, NUMCALC 
  Giovanni Bistoni       : ED, misc. LED, open-shell LED, HFLD           
  Martin Brehm           : Molecular dynamics                            
  Dmytro Bykov           : pre 5.0 version of the SCF Hessian            
  Marcos Casanova-Páez   : Triplet and SCS-CIS(D). UHF-(DLPNO)-IP/EA/STEOM-CCSD. UHF-CVS-IP/STEOM-CCSD   
  Vijay G. Chilkuri      : MRCI spin determinant printing, contributions to CSF-ICE 
  Pauline Colinet        : FMM embedding                                 
  Dipayan Datta          : RHF DLPNO-CCSD density                        
  Achintya Kumar Dutta   : EOM-CC, STEOM-CC                              
  Nicolas Foglia         : Exact transition moments, OPA infrastructure, MCD improvements    
  Dmitry Ganyushin       : Spin-Orbit,Spin-Spin,Magnetic field MRCI      
  Miquel Garcia-Rates    : C-PCM and meta-GGA Hessian, CCSD/C-PCM, Gaussian charge scheme 
  Tiago L. C. Gouveia    : GS-ROHF, GS-ROCIS                             
  Yang Guo               : DLPNO-NEVPT2, F12-NEVPT2, CIM, IAO-localization        
  Andreas Hansen         : Spin unrestricted coupled pair/coupled cluster methods 
  Ingolf Harden          : AUTO-CI MPn and infrastructure                
  Benjamin Helmich-Paris : MC-RPA, TRAH-(SCF,CASSCF), AVAS, COSX integrals, SCF dyn. polar. 
  Lee Huntington         : MR-EOM, pCC                                   
  Robert Izsak           : Overlap fitted RIJCOSX, COSX-SCS-MP3, EOM     
  Riya Kayal             : Wick's Theorem for AUTO-CI, AUTO-CI UHF-CCSDT 
  Emily Kempfer          : AUTO-CI, RHF CISDT and CCSDT                  
  Christian Kollmar      : KDIIS, OOCD, Brueckner-CCSD(T), CCSD density, CASPT2, CASPT2-K, improved NEVPT2 
  Axel Koslowski         : Symmetry handling                             
  Simone Kossmann        : meta-GGA functionals, TD-DFT gradient, OOMP2, (MP2 Hessian; deprecated post 5.0) 
  Lucas Lang             : DCDCAS                                        
  Marvin Lechner         : AUTO-CI (C++ implementation), FIC-MRCC        
  Spencer Leger          : CASSCF response                               
  Dagmar Lenk            : GEPOL surface, SMD, ORCA-2-JSON               
  Dimitrios Liakos       : Extrapolation schemes; Compound Job, initial MDCI parallelization 
  Dimitrios Manganas     : Further ROCIS development; embedding schemes. LFT, Crystal Embedding 
  Dimitrios Pantazis     : SARC Basis sets                               
  Anastasios Papadopoulos: AUTO-CI, single reference methods and gradients 
  Taras Petrenko         : pre 6.0 DFT Hessian and TD-DFT gradient, (ASA, deprecated), ECA, 1-Electron XAS/XES, NRVS 
  Peter Pinski           : DLPNO-MP2, DLPNO-MP2 Gradient                 
  Christoph Reimann      : Effective Core Potentials                     
  Marius Retegan         : Local ZFS, SOC                                
  Christoph Riplinger    : Optimizer, TS searches, QM/MM, DLPNO-CCSD(T), (RO)-DLPNO pert. Triples 
  Michael Roemelt        : Original ROCIS implementation                 
  Masaaki Saitow         : Open-shell DLPNO-CCSD energy and density      
  Barbara Sandhoefer     : DKH picture change effects                    
  Kantharuban Sivalingam : CASSCF convergence/infrastructure, NEVPT2 and variants, FIC-MRCI 
  Bernardo de Souza      : ESD, SOC TD-DFT                               
  Georgi L. Stoychev     : AutoAux, RI-MP2 NMR, DLPNO-MP2 response, X2C  
  Van Anh Tran           : RI-MP2 g-tensors                              
  Willem Van den Heuvel  : Paramagnetic NMR                              
  Zikuan Wang            : NOTCH, Electric field optimization            
  Frank Wennmohs         : Technical directorship and infrastructure     
  Hang Xu                : AUTO-CI-Response properties                   
                                                                         
[FACCTs GmbH]                                                            
  Markus Bursch, Miquel Garcia-Rates, Christoph Riplinger, Bernardo de Souza, Georgi L. Stoychev 
                                                                 
  APM, Basis sets (HGBS, AHGBS, def-TZVP (Ac-Lr), def2-XVPD (La-Lu)), CI-OPT, improved COSX, DLPNO-Multilevel,           
  DOCKER, DRACO, updates on ESD, GOAT, IRC, LR-CPCM, MBIS, meta-GGA TD-DFT gradient, ML-optimized integration grids, 
  MM, NACMEs, nearIR, NEB, NEB-TS, NL-DFT gradient (VV10), 2- and 3-layer-ONIOM, interface openCOSMO-RS, QMMM,   
  Crystal-QMMM, SF, symmetry and pop. for TD-DFT, r2SCAN hybrids, SOLVATOR                                   
                                                                         
[Other institutions]                                                     
  V. Asgeirsson          : NEB                                           
  Christoph Bannwarth    : sTDA-DFT, sTD-DFT, PBEh-3c, B97-3c, D3        
  Sebastian Ehlert       : rSCAN, r2SCAN, r2SCAN-3c, D4, dhf basis sets  
  Marvin Friede          : D4 for Fr, Ra, Ac-Lr                          
  Lars Goerigk           : TD-DFT with DH, B97 family of functionals     
  Stefan Grimme          : VdW corrections, initial TS optimization, DFT functionals, gCP, sTDA/sTD-DF 
  Waldemar Hujo          : DFT-NL                                        
  H. Jonsson             : NEB                                           
  Holger Kruse           : gCP                                           
  Marcel Mueller         : wB97X-3c, vDZP basis set                      
  Hagen Neugebauer       : wr2SCAN                                       
  Tobias Risthaus        : range-separated hybrid DFT                    
  Lukas Wittmann         : regularized MP2, r2SCAN double-hybrids, wr2SCAN        
                                                                         
We gratefully acknowledge several colleagues who have allowed us to      
interface, adapt or use parts of their codes:                            
  Ed Valeev, F. Pavosevic, A. Kumar             : LibInt (2-el integral package), F12 methods 
  Garnet Chan, S. Sharma, J. Yang, R. Olivares  : DMRG                   
  Ulf Ekstrom                                   : XCFun DFT Library      
  Mihaly Kallay                                 : mrcc  (arbitrary order and MRCC methods)
  Frank Weinhold                                : gennbo (NPA and NBO analysis)           
  Simon Mueller                                 : openCOSMO-RS                            
  Christopher J. Cramer and Donald G. Truhlar   : smd solvation model                     
  S Lehtola, MJT Oliveira, MAL Marques          : LibXC Library                           
  Liviu Ungur et al                             : ANISO software                          


 Your calculation uses the libint2 library for the computation of 2-el integrals
 For citations please refer to: http://libint.valeyev.net

 Your ORCA version has been built with support for libXC version: 6.2.2
 For citations please refer to: https://libxc.gitlab.io

 This ORCA versions uses:
   CBLAS   interface :  Fast vector & matrix operations
   LAPACKE interface :  Fast linear algebra routines
   SCALAPACK package :  Parallel linear algebra routines
   Shared memory     :  Shared parallel matrices
   BLAS/LAPACK       :  OpenBLAS 0.3.27  USE64BITINT DYNAMIC_ARCH NO_AFFINITY SkylakeX SINGLE_THREADED
        Core in use  :  SkylakeX
   Copyright (c) 2011-2014, The OpenBLAS Project


NOTE: MaxCore=8000 MB was set to SCF,MP2,MDCI,CIPSI,MRCI and CIS
      => If you want to overwrite this, your respective input block should be placed after the MaxCore statement
Your calculation utilizes the atom-pairwise dispersion correction
with the Becke-Johnson damping scheme (D3BJ)


Your calculation utilizes the SMD solvation module
Please cite in your paper:
A.V. Marenich, C.J. Cramer, D.G. Truhlar J. Phys. Chem. B, 113, (2009), 6378 

Warning: RI is on but no J-basis has been assigned. Assigning Def2/J (nothing to worry about!)
================================================================================

----- Orbital basis set information -----
Your calculation utilizes the basis: def2-TZVP
   F. Weigend and R. Ahlrichs, Phys. Chem. Chem. Phys. 7, 3297 (2005).

----- AuxJ basis set information -----
Your calculation utilizes the auxiliary basis: def2/J
   F. Weigend, Phys. Chem. Chem. Phys. 8, 1057 (2006).

================================================================================
                                        WARNINGS
                       Please study these warnings very carefully!
================================================================================


WARNING: your system is open-shell and RHF/RKS was chosen
  ===> : WILL SWITCH to UHF/UKS


WARNING: Geometry Optimization
  ===> : Switching off AutoStart
         For restart on a previous wavefunction, please use MOREAD

================================================================================
                                       INPUT FILE
================================================================================
NAME = rf_mecn_1H2O_opt_TP_sw_004.inp
|  1> !TPSSh def2-TZVP opt d3 TightSCF SlowConv defgrid2
|  2>  
|  3> %pal
|  4> nprocs 20
|  5> end
|  6>  
|  7> %scf
|  8> MaxIter 1500
|  9> end
| 10>  
| 11> %maxcore 8000
| 12>  
| 13> !CPCM
| 14> %cpcm smd true
| 15> SMDsolvent "ACETONITRILE"
| 16> end
| 17>  
| 18> * xyz -2 2
| 19> 6        6.857280945     27.901753127      3.100719684
| 20> 6        6.154044945     26.704598127      2.411135684
| 21> 6        7.086539945     25.482838127      2.185613684
| 22> 6        6.299616945     24.171731127      1.900070684
| 23> 6        7.185881945     23.070259127      1.248991684
| 24> 6        6.565390945     21.647303127      1.360366684
| 25> 6        7.185681945     20.616666127      0.394672684
| 26> 6        6.843394945     19.121603127      0.784430684
| 27> 9        8.006806945     28.182557127      2.503585684
| 28> 9        7.082780945     27.647576127      4.378925684
| 29> 9        6.067588945     28.966668127      3.018348684
| 30> 9        5.116418945     26.361022127      3.182510684
| 31> 9        5.702795945     27.135986127      1.230360684
| 32> 9        7.887905945     25.777720127      1.156931684
| 33> 9        7.829891945     25.318192127      3.287321684
| 34> 9        5.806494945     23.745652127      3.066652684
| 35> 9        5.287431945     24.474179127      1.076603684
| 36> 9        7.350609945     23.413929127     -0.034316316
| 37> 9        8.377622945     23.098911127      1.865134684
| 38> 9        6.756126945     21.255165127      2.631170684
| 39> 9        5.250981945     21.784657127      1.133608684
| 40> 9        6.706596945     20.903759127     -0.845345316
| 41> 9        8.519170945     20.869305127      0.364163684
| 42> 8        7.813741945     18.363469127      0.789215684
| 43> 8        5.634555945     18.967368127      0.997888684
| 44> 8        2.818390092     18.736599843      1.412612662
| 45> 1        2.716934106     17.791620290      1.243555674
| 46> 1        3.748070901     18.906228277      1.215686974
| 47> *
| 48> 
| 49>                          ****END OF INPUT****
================================================================================

                       *****************************
                       * Geometry Optimization Run *
                       *****************************

Geometry optimization settings:
Update method            Update   .... BFGS
Choice of coordinates    CoordSys .... (2022) Redundant Internals
Initial Hessian          InHess   .... Almloef's Model
Max. no of cycles        MaxIter  .... 84

Convergence Tolerances:
Energy Change            TolE     ....  5.0000e-06 Eh
Max. Gradient            TolMAXG  ....  3.0000e-04 Eh/bohr
RMS Gradient             TolRMSG  ....  1.0000e-04 Eh/bohr
Max. Displacement        TolMAXD  ....  4.0000e-03 bohr
RMS Displacement         TolRMSD  ....  2.0000e-03 bohr
Strict Convergence                .... False

------------------------------------------------------------------------------
                        ORCA OPTIMIZATION COORDINATE SETUP
------------------------------------------------------------------------------

The optimization will be done in redundant internal coordinates (2022)
Making redundant internal coordinates   ...  (2022 redundants) done
Evaluating the initial hessian          ...  (Almloef) done
Evaluating the coordinates              ...  done
Calculating the B-matrix                .... done
Calculating the G-matrix                .... done
Diagonalizing the G-matrix              .... done
Small eigenvalue found = 2.494e-03
Small eigenvalue found = 9.182e-03
Small eigenvalue found = 1.155e-02
Small eigenvalue found = 2.495e-02
The first mode is                       ....   42
The number of degrees of freedom        ....   78

    -----------------------------------------------------------------
                    Redundant Internal Coordinates


    -----------------------------------------------------------------
         Definition                    Initial Value    Approx d2E/dq
    -----------------------------------------------------------------
      1. B(C   1,C   0)                  1.5502         0.346804   
      2. B(C   2,C   1)                  1.5534         0.342781   
      3. B(C   3,C   2)                  1.5556         0.340086   
      4. B(C   4,C   3)                  1.5565         0.338954   
      5. B(C   5,C   4)                  1.5563         0.339111   
      6. B(C   6,C   5)                  1.5426         0.356709   
      7. B(C   7,C   6)                  1.5825         0.308055   
      8. B(F   8,C   0)                  1.3255         0.659090   
      9. B(F   9,C   0)                  1.3226         0.666042   
     10. B(F  10,C   0)                  1.3283         0.652181   
     11. B(F  11,C   1)                  1.3378         0.629847   
     12. B(F  12,C   1)                  1.3356         0.634870   
     13. B(F  13,C   2)                  1.3369         0.631928   
     14. B(F  14,C   2)                  1.3392         0.626649   
     15. B(F  15,C   3)                  1.3363         0.633409   
     16. B(F  16,C   3)                  1.3394         0.626090   
     17. B(F  17,C   4)                  1.3387         0.627782   
     18. B(F  18,C   4)                  1.3419         0.620447   
     19. B(F  19,C   5)                  1.3435         0.616728   
     20. B(F  20,C   5)                  1.3409         0.622782   
     21. B(F  21,C   6)                  1.3600         0.580545   
     22. B(F  22,C   6)                  1.3576         0.585779   
     23. B(O  23,C   7)                  1.2314         1.002075   
     24. B(O  24,C   7)                  1.2372         0.981004   
     25. B(H  26,O  25)                  0.9653         0.509876   
     26. B(H  27,O  24)                  1.9000         0.016453   
     27. B(H  27,O  25)                  0.9653         0.509876   
     28. A(C   1,C   0,F   9)          111.0282         0.392261   
     29. A(C   1,C   0,F   8)          110.8930         0.391542   
     30. A(F   8,C   0,F  10)          108.5307         0.433227   
     31. A(F   8,C   0,F   9)          109.1619         0.434870   
     32. A(C   1,C   0,F  10)          108.7739         0.390821   
     33. A(F   9,C   0,F  10)          108.3827         0.434046   
     34. A(C   2,C   1,F  11)          110.3230         0.387660   
     35. A(C   0,C   1,C   2)          113.5553         0.353571   
     36. A(F  11,C   1,F  12)          109.3079         0.427641   
     37. A(C   0,C   1,F  11)          107.0787         0.388450   
     38. A(C   2,C   1,F  12)          109.1769         0.388197   
     39. A(C   0,C   1,F  12)          107.2827         0.388989   
     40. A(C   3,C   2,F  13)          110.3587         0.387350   
     41. A(F  13,C   2,F  14)          109.1107         0.426896   
     42. A(C   1,C   2,F  14)          108.0873         0.387316   
     43. A(C   1,C   2,C   3)          112.6983         0.352402   
     44. A(C   1,C   2,F  13)          107.3405         0.387883   
     45. A(C   3,C   2,F  14)          109.1587         0.386784   
     46. A(F  15,C   3,F  16)          109.2595         0.427007   
     47. A(C   4,C   3,F  16)          109.4458         0.386499   
     48. A(C   2,C   3,F  16)          107.7470         0.386724   
     49. A(C   4,C   3,F  15)          110.4668         0.387282   
     50. A(C   2,C   3,C   4)          112.6559         0.351734   
     51. A(C   2,C   3,F  15)          107.1682         0.387508   
     52. A(C   3,C   4,F  18)          107.3682         0.385890   
     53. A(C   5,C   4,F  17)          110.6326         0.386712   
     54. A(C   3,C   4,F  17)          106.8213         0.386681   
     55. A(C   3,C   4,C   5)          112.9589         0.351563   
     56. A(F  17,C   4,F  18)          108.9895         0.425634   
     57. A(C   5,C   4,F  18)          109.9216         0.385921   
     58. A(C   4,C   5,C   6)          113.9380         0.354615   
     59. A(F  19,C   5,F  20)          109.2091         0.424568   
     60. A(C   6,C   5,F  20)          110.9006         0.389596   
     61. A(C   4,C   5,F  20)          106.5622         0.386174   
     62. A(C   6,C   5,F  19)          109.8795         0.388932   
     63. A(C   4,C   5,F  19)          106.1374         0.385517   
     64. A(C   5,C   6,C   7)          112.9578         0.348903   
     65. A(F  21,C   6,F  22)          106.6335         0.415450   
     66. A(C   7,C   6,F  22)          113.1920         0.375779   
     67. A(C   5,C   6,F  22)          106.5420         0.385457   
     68. A(C   7,C   6,F  21)          110.3532         0.375197   
     69. A(C   5,C   6,F  21)          106.7446         0.384856   
     70. A(O  23,C   7,O  24)          133.8297         0.508781   
     71. A(C   6,C   7,O  24)          111.8150         0.413089   
     72. A(C   6,C   7,O  23)          114.3410         0.414652   
     73. A(C   7,O  24,H  27)          173.6796         0.231741   
     74. A(H  26,O  25,H  27)          103.7396         0.319780   
     75. A(O  24,H  27,O  25)          170.1504         0.195092   
     76. D(F  11,C   1,C   0,F   9)     49.4768         0.009705   
     77. D(C   2,C   1,C   0,F   8)     48.9947         0.009705   
     78. D(F  11,C   1,C   0,F   8)    171.0207         0.009705   
     79. D(F  11,C   1,C   0,F  10)    -69.7011         0.009705   
     80. D(C   2,C   1,C   0,F   9)    -72.5492         0.009705   
     81. D(C   2,C   1,C   0,F  10)    168.2729         0.009705   
     82. D(C   3,C   2,C   1,C   0)    162.7875         0.009500   
     83. D(F  13,C   2,C   1,F  12)     44.1537         0.009500   
     84. D(F  13,C   2,C   1,C   0)    -75.4998         0.009500   
     85. D(F  13,C   2,C   1,F  11)    164.2939         0.009500   
     86. D(C   3,C   2,C   1,F  11)     42.5812         0.009500   
     87. D(C   3,C   2,C   1,F  12)    -77.5590         0.009500   
     88. D(C   4,C   3,C   2,F  13)     42.1846         0.009364   
     89. D(C   4,C   3,C   2,F  14)    -77.7232         0.009364   
     90. D(C   4,C   3,C   2,C   1)    162.1720         0.009364   
     91. D(F  15,C   3,C   2,F  14)     43.9807         0.009364   
     92. D(F  15,C   3,C   2,F  13)    163.8885         0.009364   
     93. D(F  15,C   3,C   2,C   1)    -76.1241         0.009364   
     94. D(F  17,C   4,C   3,F  16)     43.8732         0.009308   
     95. D(F  17,C   4,C   3,F  15)    164.2137         0.009308   
     96. D(F  17,C   4,C   3,C   2)    -75.9715         0.009308   
     97. D(C   5,C   4,C   3,F  16)    -77.9884         0.009308   
     98. D(C   5,C   4,C   3,F  15)     42.3521         0.009308   
     99. D(C   5,C   4,C   3,C   2)    162.1669         0.009308   
    100. D(F  19,C   5,C   4,F  18)     44.0726         0.009315   
    101. D(F  19,C   5,C   4,F  17)    164.4895         0.009315   
    102. D(F  19,C   5,C   4,C   3)    -75.8189         0.009315   
    103. D(C   6,C   5,C   4,F  18)    -76.9753         0.009315   
    104. D(C   6,C   5,C   4,F  17)     43.4416         0.009315   
    105. D(C   6,C   5,C   4,C   3)    163.1331         0.009315   
    106. D(C   7,C   6,C   5,C   4)    164.0956         0.010222   
    107. D(F  21,C   6,C   5,F  20)     45.7788         0.010222   
    108. D(F  21,C   6,C   5,F  19)    166.6154         0.010222   
    109. D(F  21,C   6,C   5,C   4)    -74.4447         0.010222   
    110. D(C   7,C   6,C   5,F  20)    -75.6808         0.010222   
    111. D(C   7,C   6,C   5,F  19)     45.1557         0.010222   
    112. D(O  24,C   7,C   6,F  21)    -70.5516         0.007386   
    113. D(O  24,C   7,C   6,C   5)     48.8461         0.007386   
    114. D(O  23,C   7,C   6,F  22)    -11.1459         0.007386   
    115. D(O  23,C   7,C   6,F  21)    108.2663         0.007386   
    116. D(O  23,C   7,C   6,C   5)   -132.3360         0.007386   
    117. D(H  27,O  24,C   7,O  23)   -158.3762         0.078375   
    118. D(H  27,O  24,C   7,C   6)     20.1307         0.078375   
    119. D(O  24,H  27,O  25,H  26)    -44.6419         0.289652   
    120. D(O  25,H  27,O  24,C   7)    180.0000         0.001625   
    -----------------------------------------------------------------

Number of atoms                         .... 28
Number of degrees of freedom            .... 120


         *************************************************************
         *                GEOMETRY OPTIMIZATION CYCLE   1            *
         *************************************************************
---------------------------------
CARTESIAN COORDINATES (ANGSTROEM)
---------------------------------
  C      6.857281   27.901753    3.100720
  C      6.154045   26.704598    2.411136
  C      7.086540   25.482838    2.185614
  C      6.299617   24.171731    1.900071
  C      7.185882   23.070259    1.248992
  C      6.565391   21.647303    1.360367
  C      7.185682   20.616666    0.394673
  C      6.843395   19.121603    0.784431
  F      8.006807   28.182557    2.503586
  F      7.082781   27.647576    4.378926
  F      6.067589   28.966668    3.018349
  F      5.116419   26.361022    3.182511
  F      5.702796   27.135986    1.230361
  F      7.887906   25.777720    1.156932
  F      7.829892   25.318192    3.287322
  F      5.806495   23.745652    3.066653
  F      5.287432   24.474179    1.076604
  F      7.350610   23.413929   -0.034316
  F      8.377623   23.098911    1.865135
  F      6.756127   21.255165    2.631171
  F      5.250982   21.784657    1.133609
  F      6.706597   20.903759   -0.845345
  F      8.519171   20.869305    0.364164
  O      7.813742   18.363469    0.789216
  O      5.634556   18.967368    0.997889
  O      2.818390   18.736600    1.412613
  H      2.716934   17.791620    1.243556
  H      3.748071   18.906228    1.215687

----------------------------
CARTESIAN COORDINATES (A.U.)
----------------------------
  NO LB      ZA    FRAG     MASS         X           Y           Z
   0 C     6.0000    0    12.011   12.958383   52.726672    5.859511
   1 C     6.0000    0    12.011   11.629460   50.464377    4.556386
   2 C     6.0000    0    12.011   13.391620   48.155585    4.130211
   3 C     6.0000    0    12.011   11.904551   45.677952    3.590613
   4 C     6.0000    0    12.011   13.579349   43.596472    2.360252
   5 C     6.0000    0    12.011   12.406791   40.907474    2.570720
   6 C     6.0000    0    12.011   13.578971   38.959853    0.745823
   7 C     6.0000    0    12.011   12.932142   36.134593    1.482359
   8 F     9.0000    0    18.998   15.130672   53.257315    4.731091
   9 F     9.0000    0    18.998   13.384516   52.246347    8.274970
  10 F     9.0000    0    18.998   11.466081   54.739070    5.703852
  11 F     9.0000    0    18.998    9.668631   49.815112    6.014074
  12 F     9.0000    0    18.998   10.776723   51.279582    2.325045
  13 F     9.0000    0    18.998   14.905982   48.712831    2.186284
  14 F     9.0000    0    18.998   14.796351   47.844449    6.212138
  15 F     9.0000    0    18.998   10.972685   44.872779    5.795134
  16 F     9.0000    0    18.998    9.991798   46.249496    2.034486
  17 F     9.0000    0    18.998   13.890640   44.245914   -0.064848
  18 F     9.0000    0    18.998   15.831413   43.650616    3.524594
  19 F     9.0000    0    18.998   12.767230   40.166441    4.972192
  20 F     9.0000    0    18.998    9.922918   41.167036    2.142210
  21 F     9.0000    0    18.998   12.673632   39.502380   -1.597471
  22 F     9.0000    0    18.998   16.098900   39.437271    0.688170
  23 O     8.0000    0    15.999   14.765832   34.701928    1.491402
  24 O     8.0000    0    15.999   10.647768   35.843131    1.885736
  25 O     8.0000    0    15.999    5.325985   35.407042    2.669451
  26 H     1.0000    0     1.008    5.134261   33.621290    2.349980
  27 H     1.0000    0     1.008    7.082828   35.727594    2.297315

--------------------------------
INTERNAL COORDINATES (ANGSTROEM)
--------------------------------
 C      0   0   0     0.000000000000     0.00000000     0.00000000
 C      1   0   0     1.550240967971     0.00000000     0.00000000
 C      2   1   0     1.553417070561   113.55533844     0.00000000
 C      3   2   1     1.555565549319   112.69827683   162.78749478
 C      4   3   2     1.556473604418   112.65593685   162.17204174
 C      5   4   3     1.556347406475   112.95890429   162.16693919
 C      6   5   4     1.542575266263   113.93798420   163.13314068
 C      7   6   5     1.582493305800   112.95775891   164.09560104
 F      1   2   3     1.325454610708   110.89295443    48.99470066
 F      1   2   3     1.322598493786   111.02821211   287.45080856
 F      1   2   3     1.328323151093   108.77385697   168.27294708
 F      2   1   3     1.337808496862   107.07872998   122.02597894
 F      2   1   3     1.335646235786   107.28270546   239.27402584
 F      3   2   1     1.336910437166   107.34054952   284.50021141
 F      3   2   1     1.339194167581   108.08730739    42.06766241
 F      4   3   2     1.336273244456   107.16821115   283.87589533
 F      4   3   2     1.339436884298   107.74698212    41.35047990
 F      5   4   3     1.338702284210   106.82131950   284.02853646
 F      5   4   3     1.341901540589   107.36821732    40.81959257
 F      6   5   4     1.343538328131   106.13743735   284.18106314
 F      6   5   4     1.340878939786   106.56217547    40.50128759
 F      7   6   5     1.359996128008   106.74461671   285.55525164
 F      7   6   5     1.357553010576   106.54195382    39.20780969
 O      8   7   6     1.231407064536   114.34099629   227.66396244
 O      8   7   6     1.237192176224   111.81500307    48.84611502
 O     25   8   7     2.855878164494   176.99440113    20.13066459
 H     26  25   8     0.965328927296    99.05067288   136.27702780
 H     26  25   8     0.965328927795     6.53484144     0.00000000

---------------------------
INTERNAL COORDINATES (A.U.)
---------------------------
 C      0   0   0     0.000000000000     0.00000000     0.00000000
 C      1   0   0     2.929530871051     0.00000000     0.00000000
 C      2   1   0     2.935532835118   113.55533844     0.00000000
 C      3   2   1     2.939592871575   112.69827683   162.78749478
 C      4   3   2     2.941308847027   112.65593685   162.17204174
 C      5   4   3     2.941070367477   112.95890429   162.16693919
 C      6   5   4     2.915044794198   113.93798420   163.13314068
 C      7   6   5     2.990478956726   112.95775891   164.09560104
 F      1   2   3     2.504746217182   110.89295443    48.99470066
 F      1   2   3     2.499348938392   111.02821211   287.45080856
 F      1   2   3     2.510166972913   108.77385697   168.27294708
 F      2   1   3     2.528091678703   107.07872998   122.02597894
 F      2   1   3     2.524005597439   107.28270546   239.27402584
 F      3   2   1     2.526394591825   107.34054952   284.50021141
 F      3   2   1     2.530710216873   108.08730739    42.06766241
 F      4   3   2     2.525190472108   107.16821115   283.87589533
 F      4   3   2     2.531168884996   107.74698212    41.35047990
 F      5   4   3     2.529780692011   106.82131950   284.02853646
 F      5   4   3     2.535826410399   107.36821732    40.81959257
 F      6   5   4     2.538919490593   106.13743735   284.18106314
 F      6   5   4     2.533893974938   106.56217547    40.50128759
 F      7   6   5     2.570020225129   106.74461671   285.55525164
 F      7   6   5     2.565403402268   106.54195382    39.20780969
 O      8   7   6     2.327022111350   114.34099629   227.66396244
 O      8   7   6     2.337954388093   111.81500307    48.84611502
 O     25   8   7     5.396827602739   176.99440113    20.13066459
 H     26  25   8     1.824207301742    99.05067288   136.27702780
 H     26  25   8     1.824207302685     6.53484144     0.00000000

---------------------
BASIS SET INFORMATION
---------------------
There are 4 groups of distinct atoms

 Group   1 Type C   : 11s6p2d1f contracted to 5s3p2d1f pattern {62111/411/11/1}
 Group   2 Type F   : 11s6p2d1f contracted to 5s3p2d1f pattern {62111/411/11/1}
 Group   3 Type O   : 11s6p2d1f contracted to 5s3p2d1f pattern {62111/411/11/1}
 Group   4 Type H   : 5s1p contracted to 3s1p pattern {311/1}

Atom   0C    basis set group =>   1
Atom   1C    basis set group =>   1
Atom   2C    basis set group =>   1
Atom   3C    basis set group =>   1
Atom   4C    basis set group =>   1
Atom   5C    basis set group =>   1
Atom   6C    basis set group =>   1
Atom   7C    basis set group =>   1
Atom   8F    basis set group =>   2
Atom   9F    basis set group =>   2
Atom  10F    basis set group =>   2
Atom  11F    basis set group =>   2
Atom  12F    basis set group =>   2
Atom  13F    basis set group =>   2
Atom  14F    basis set group =>   2
Atom  15F    basis set group =>   2
Atom  16F    basis set group =>   2
Atom  17F    basis set group =>   2
Atom  18F    basis set group =>   2
Atom  19F    basis set group =>   2
Atom  20F    basis set group =>   2
Atom  21F    basis set group =>   2
Atom  22F    basis set group =>   2
Atom  23O    basis set group =>   3
Atom  24O    basis set group =>   3
Atom  25O    basis set group =>   3
Atom  26H    basis set group =>   4
Atom  27H    basis set group =>   4
---------------------------------
AUXILIARY/J BASIS SET INFORMATION
---------------------------------
There are 4 groups of distinct atoms

 Group   1 Type C   : 12s5p4d2f1g contracted to 6s4p3d1f1g pattern {711111/2111/211/2/1}
 Group   2 Type F   : 12s5p4d2f1g contracted to 6s4p3d1f1g pattern {711111/2111/211/2/1}
 Group   3 Type O   : 12s5p4d2f1g contracted to 6s4p3d1f1g pattern {711111/2111/211/2/1}
 Group   4 Type H   : 5s2p1d contracted to 3s1p1d pattern {311/2/1}

Atom   0C    basis set group =>   1
Atom   1C    basis set group =>   1
Atom   2C    basis set group =>   1
Atom   3C    basis set group =>   1
Atom   4C    basis set group =>   1
Atom   5C    basis set group =>   1
Atom   6C    basis set group =>   1
Atom   7C    basis set group =>   1
Atom   8F    basis set group =>   2
Atom   9F    basis set group =>   2
Atom  10F    basis set group =>   2
Atom  11F    basis set group =>   2
Atom  12F    basis set group =>   2
Atom  13F    basis set group =>   2
Atom  14F    basis set group =>   2
Atom  15F    basis set group =>   2
Atom  16F    basis set group =>   2
Atom  17F    basis set group =>   2
Atom  18F    basis set group =>   2
Atom  19F    basis set group =>   2
Atom  20F    basis set group =>   2
Atom  21F    basis set group =>   2
Atom  22F    basis set group =>   2
Atom  23O    basis set group =>   3
Atom  24O    basis set group =>   3
Atom  25O    basis set group =>   3
Atom  26H    basis set group =>   4
Atom  27H    basis set group =>   4


           ************************************************************
           *        Program running with 20 parallel MPI-processes    *
           *              working on a common directory               *
           ************************************************************
------------------------------------------------------------------------------
                             ORCA STARTUP CALCULATIONS
                           -- RI-GTO INTEGRALS CHOSEN --
------------------------------------------------------------------------------
------------------------------------------------------------------------------
                   ___                                                        
                  /   \      - P O W E R E D   B Y -                         
                 /     \                                                     
                 |  |  |   _    _      __       _____    __    __             
                 |  |  |  | |  | |    /  \     |  _  \  |  |  /  |          
                  \  \/   | |  | |   /    \    | | | |  |  | /  /          
                 / \  \   | |__| |  /  /\  \   | |_| |  |  |/  /          
                |  |  |   |  __  | /  /__\  \  |    /   |      \           
                |  |  |   | |  | | |   __   |  |    \   |  |\   \          
                \     /   | |  | | |  |  |  |  | |\  \  |  | \   \       
                 \___/    |_|  |_| |__|  |__|  |_| \__\ |__|  \__/        
                                                                              
                      - O R C A' S   B I G   F R I E N D -                    
                                      &                                       
                       - I N T E G R A L  F E E D E R -                       
                                                                              
 v1 FN, 2020, v2 2021, v3 2022-2024                                           
------------------------------------------------------------------------------


----------------------
SHARK INTEGRAL PACKAGE
----------------------

Number of atoms                             ...     28
Number of basis functions                   ...    818
Number of shells                            ...    294
Maximum angular momentum                    ...      3
Integral batch strategy                     ... SHARK/LIBINT Hybrid
RI-J (if used) integral strategy            ... SPLIT-RIJ (Revised 2003 algorithm where possible)
Printlevel                                  ...      1
Contraction scheme used                     ... SEGMENTED contraction
Prescreening option                         ... SCHWARTZ
   Thresh                                   ... 2.500e-11
   Tcut                                     ... 2.500e-12
   Tpresel                                  ... 2.500e-12 
Coulomb Range Separation                    ... NOT USED
Exchange Range Separation                   ... NOT USED
Multipole approximations                    ... NOT USED
Finite Nucleus Model                        ... NOT USED
CABS basis                                  ... NOT available
Auxiliary Coulomb fitting basis             ... AVAILABLE
   # of basis functions in Aux-J            ...   1296
   # of shells in Aux-J                     ...    400
   Maximum angular momentum in Aux-J        ...      4
Auxiliary J/K fitting basis                 ... NOT available
Auxiliary Correlation fitting basis         ... NOT available
Auxiliary 'external' fitting basis          ... NOT available

Checking pre-screening integrals            ... done (  0.0 sec) Dimension = 294
Check shell pair data                       ... done (  0.0 sec)
Shell pair information
Shell pair cut-off parameter TPreSel        ...   2.5e-12
Total number of shell pairs                 ...     43365
Shell pairs after pre-screening             ...     25535
Total number of primitive shell pairs       ...    142356
Primitive shell pairs kept                  ...     53484
          la=0 lb=0:   4947 shell pairs
          la=1 lb=0:   7034 shell pairs
          la=1 lb=1:   2417 shell pairs
          la=2 lb=0:   3764 shell pairs
          la=2 lb=1:   2745 shell pairs
          la=2 lb=2:    755 shell pairs
          la=3 lb=0:   1708 shell pairs
          la=3 lb=1:   1309 shell pairs
          la=3 lb=2:    689 shell pairs
          la=3 lb=3:    167 shell pairs

Calculating one electron integrals          ... done (  0.0 sec)
Calculating RI/J V-Matrix + Cholesky decomp.... done (  0.1 sec)
Calculating Nuclear repulsion               ... done (  0.0 sec) ENN=   3082.708906043765 Eh

Diagonalization of the overlap matrix:
Smallest eigenvalue                        ... 5.067e-05
Time for diagonalization                   ...    0.127 sec
Threshold for overlap eigenvalues          ... 1.000e-07
Number of eigenvalues below threshold      ... 0
Time for construction of square roots      ...    0.055 sec
Total time needed                          ...    0.188 sec

-------------------
DFT GRID GENERATION
-------------------

General Integration Accuracy     IntAcc      ... 4.388
Radial Grid Type                 RadialGrid  ... OptM3 with GC (2021)
Angular Grid (max. ang.)         AngularGrid ... 4 (Lebedev-302)
Angular grid pruning method      GridPruning ... 4 (adaptive)
Weight generation scheme         WeightScheme... mBecke (2022)
Basis function cutoff            BFCut       ... 1.0000e-11
Integration weight cutoff        WCut        ... 1.0000e-14
Partially contracted basis set               ... off
Rotationally invariant grid construction     ... off
Angular grids for H and He will be reduced by one unit

Total number of grid points                  ...   164047
Total number of batches                      ...     2576
Average number of points per batch           ...       63
Average number of grid points per atom       ...     5859

--------------------
COSX GRID GENERATION
--------------------

GRIDX 1
-------
General Integration Accuracy     IntAcc      ... 3.816
Radial Grid Type                 RadialGrid  ... OptM3 with GC (2021)
Angular Grid (max. ang.)         AngularGrid ... 1 (Lebedev-50)
Angular grid pruning method      GridPruning ... 4 (adaptive)
Weight generation scheme         WeightScheme... mBecke (2022)
Basis function cutoff            BFCut       ... 1.0000e-11
Integration weight cutoff        WCut        ... 1.0000e-14
Partially contracted basis set               ... on
Rotationally invariant grid construction     ... off
Angular grids for H and He will be reduced by one unit

Total number of grid points                  ...    20660
Total number of batches                      ...      173
Average number of points per batch           ...      119
Average number of grid points per atom       ...      738
UseSFitting                                  ... on

GRIDX 2
-------
General Integration Accuracy     IntAcc      ... 4.020
Radial Grid Type                 RadialGrid  ... OptM3 with GC (2021)
Angular Grid (max. ang.)         AngularGrid ... 2 (Lebedev-110)
Angular grid pruning method      GridPruning ... 4 (adaptive)
Weight generation scheme         WeightScheme... mBecke (2022)
Basis function cutoff            BFCut       ... 1.0000e-11
Integration weight cutoff        WCut        ... 1.0000e-14
Partially contracted basis set               ... on
Rotationally invariant grid construction     ... off
Angular grids for H and He will be reduced by one unit

Total number of grid points                  ...    48341
Total number of batches                      ...      394
Average number of points per batch           ...      122
Average number of grid points per atom       ...     1726
UseSFitting                                  ... on

GRIDX 3
-------
General Integration Accuracy     IntAcc      ... 4.338
Radial Grid Type                 RadialGrid  ... OptM3 with GC (2021)
Angular Grid (max. ang.)         AngularGrid ... 3 (Lebedev-194)
Angular grid pruning method      GridPruning ... 4 (adaptive)
Weight generation scheme         WeightScheme... mBecke (2022)
Basis function cutoff            BFCut       ... 1.0000e-11
Integration weight cutoff        WCut        ... 1.0000e-14
Partially contracted basis set               ... on
Rotationally invariant grid construction     ... off
Angular grids for H and He will be reduced by one unit

Total number of grid points                  ...   106996
Total number of batches                      ...      848
Average number of points per batch           ...      126
Average number of grid points per atom       ...     3821
UseSFitting                                  ... on
Initializing property integral containers    ... done (  0.0 sec)

SHARK setup successfully completed in   3.2 seconds

Maximum memory used throughout the entire STARTUP-calculation: 64.0 MB


           ************************************************************
           *        Program running with 20 parallel MPI-processes    *
           *              working on a common directory               *
           ************************************************************
-------------------------------------------------------------------------------
                                 ORCA GUESS
                   Start orbitals & Density for SCF / CASSCF
-------------------------------------------------------------------------------

------------
SCF SETTINGS
------------
Hamiltonian:
 Density Functional     Method          .... DFT(GTOs)
 Exchange Functional    Exchange        .... TPSS
 Correlation Functional Correlation     .... TPSS
 LDA part of GGA corr.  LDAOpt          .... PW91-LDA
 Gradients option       PostSCFGGA      .... off
 Hybrid DFT is turned on
   Fraction HF Exchange ScalHFX         ....  0.100000
   Scaling of DF-GGA-X  ScalDFX         ....  0.900000
   Scaling of DF-GGA-C  ScalDFC         ....  1.000000
   Scaling of DF-LDA-C  ScalLDAC        ....  1.000000
   Perturbative correction              ....  0.000000
   NL short-range parameter             ....  5.200000
 RI-approximation to the Coulomb term is turned on
   Number of AuxJ basis functions       .... 1296
   RIJ-COSX (HFX calculated with COS-X)).... on


General Settings:
 Integral files         IntName         .... rf_mecn_1H2O_opt_TP_sw_004
 Hartree-Fock type      HFTyp           .... UHF
 Total Charge           Charge          ....   -2
 Multiplicity           Mult            ....    2
 Number of Electrons    NEL             ....  211
 Basis Dimension        Dim             ....  818
 Nuclear Repulsion      ENuc            ....   3082.7089060438 Eh

Convergence Acceleration:
 AO-DIIS                CNVDIIS         .... on
   Start iteration      DIISMaxIt       ....     0
   Startup error        DIISStart       ....  0.200000
   # of expansion vecs  DIISMaxEq       ....     5
   Bias factor          DIISBfac        ....   1.050
   Max. coefficient     DIISMaxC        ....  10.000
 MO-DIIS                CNVKDIIS        .... off
 Trust-Rad. Augm. Hess. CNVTRAH         .... auto
   Auto Start mean grad. ratio tolernc. ....  1.125000
   Auto Start start iteration           ....    50
   Auto Start num. interpolation iter.  ....    10
   Max. Number of Micro iterations      ....    24
   Max. Number of Macro iterations      .... Maxiter - #DIIS iter
   Number of Davidson start vectors     ....     2
   Converg. threshold    (grad. norm)   ....   1.000e-05
   Grad. Scal. Fac. for Micro threshold ....   0.100
   Minimum threshold for Micro iter.    ....   1.000e-02
   NR start threshold (gradient norm)   ....   1.000e-04
   Initial trust radius                 ....   0.400
   Minimum AH scaling param. (alpha)    ....   1.000
   Maximum AH scaling param. (alpha)    .... 1000.000
   Quad. conv. algorithm                .... NR
   White noise on init. David. guess    .... on
   Maximum white noise                  ....   0.010
   Pseudo random numbers                .... off
   Inactive MOs                         .... canonical
   Orbital update algorithm             .... Taylor
   Preconditioner                       .... Diag
   Full preconditioner red. dimension   ....   250
 SOSCF                  CNVSOSCF        .... on
   Start iteration      SOSCFMaxIt      ....   150
   Startup grad/error   SOSCFStart      ....  0.001000
   Hessian update       SOSCFHessUp     .... L-BFGS
 Level Shifting         CNVShift        .... on
   Level shift para.    LevelShift      ....    0.2500
   Turn off err/grad.   ShiftErr        ....    0.0000
 Zerner damping         CNVZerner       .... off
 Static damping         CNVDamp         .... on
   Fraction old density DampFac         ....    0.8500
   Max. Damping (<1)    DampMax         ....    0.9800
   Min. Damping (>=0)   DampMin         ....    0.0000
   Turn off err/grad.   DampErr         ....    0.0300

SCF Procedure:
 Maximum # iterations   MaxIter         ....  1500
 SCF integral mode      SCFMode         .... Direct
   Integral package                     .... SHARK and LIBINT hybrid scheme
 Reset frequency        DirectResetFreq ....    20
 Integral Threshold     Thresh          ....  2.500e-11 Eh
 Primitive CutOff       TCut            ....  2.500e-12 Eh

Convergence Tolerance:
 Convergence Check Mode ConvCheckMode   .... Total+1el-Energy
 Convergence forced     ConvForced      .... 0
 Energy Change          TolE            ....  1.000e-08 Eh
 1-El. energy change                    ....  1.000e-05 Eh
 Orbital Gradient       TolG            ....  1.000e-05
 Orbital Rotation angle TolX            ....  1.000e-05
 DIIS Error             TolErr          ....  5.000e-07

------------------------------
INITIAL GUESS: MODEL POTENTIAL
------------------------------
Loading Hartree-Fock densities                     ... done
Calculating cut-offs                               ... done
Initializing the effective Hamiltonian             ... done
Setting up the integral package (SHARK)            ... done
Starting the Coulomb interaction                   ... done (   0.2 sec)
Making the grid                                    ... done (   0.4 sec)
Mapping shells                                     ... done
Starting the XC term evaluation                    ... done (   0.1 sec)
  promolecular density results
     # of electrons  =    208.999431122
     EX              =   -216.044774468
     EC              =     -7.338096311
     EX+EC           =   -223.382870779
Transforming the Hamiltonian                       ... done (   0.1 sec)
Diagonalizing the Hamiltonian                      ... done (   0.1 sec)
Back transforming the eigenvectors                 ... done (   0.0 sec)
Now organizing SCF variables                       ... done
                      ------------------
                      INITIAL GUESS DONE (   1.1 sec)
                      ------------------
             **** ENERGY FILE WAS UPDATED (rf_mecn_1H2O_opt_TP_sw_004.en.tmp) ****
Finished Guess after   1.9 sec
Maximum memory used throughout the entire GUESS-calculation: 52.9 MB


           ************************************************************
           *        Program running with 20 parallel MPI-processes    *
           *              working on a common directory               *
           ************************************************************

-------------------------------------------------------------------------------------------
                                      ORCA LEAN-SCF
                              memory conserving SCF solver
-------------------------------------------------------------------------------------------

--------------------
CPCM SOLVATION MODEL
--------------------
CPCM parameters:
  Epsilon                                         ...      35.6880
  Refrac                                          ...       1.3442
  Rsolv                                           ...       1.3000
  Surface type                                    ... GAUSSIAN VDW
  Discretization scheme                           ... Constant charge density
    Threshold for H atoms                         ...       5.0000 (charges/Ang^2)
    Threshold for non-H atoms                     ...       5.0000 (charges/Ang^2)
  Epsilon function type                           ...         CPCM
Solvent:                                          ... ACETONITRILE
SMD-CDS solvent descriptors:
  Soln                                            ...       1.3442
  Soln25                                          ...       1.3416
  Sola                                            ...       0.0700
  Solb                                            ...       0.3200
  Solg                                            ...      41.2500
  Solc                                            ...       0.0000
  Solh                                            ...       0.0000
Radii:
  Scheme                                          ... Element-dependent radii
  Radius for C  used is    3.4960 Bohr (=   1.8500 Ang.)
  Radius for F  used is    3.2692 Bohr (=   1.7300 Ang.)
  Radius for O  used is    4.0969 Bohr (=   2.1680 Ang.)
  Radius for H  used is    2.2677 Bohr (=   1.2000 Ang.)
Calculating surface                               ...        done! (  0.0s)
Cavity surface points                             ...         2380
Cavity Volume                                     ...    2380.5219
Cavity Surface-area                               ...    1244.8621
Calculating surface distance matrix               ...        done! (  0.1s)
Performing Cholesky decomposition & store         ...        done! (  0.1s)
Overall time for CPCM initialization              ...                 0.2s

----------------------------------------D-I-I-S--------------------------------------------
Iteration    Energy (Eh)           Delta-E    RMSDP     MaxDP     DIISErr   Damp  Time(sec)
-------------------------------------------------------------------------------------------
               ***  Starting incremental Fock matrix formation  ***
    1    -2029.6444672321449616     0.00e+00  7.90e-04  1.89e-01  1.97e-01  0.850   7.9
Warning: op=0 Small HOMO/LUMO gap (  -0.029) - skipping pre-diagonalization
         Will do a full diagonalization
    2    -2029.8675633069306059    -2.23e-01  1.12e-03  3.23e-01  1.30e-01  0.850   5.5
                               ***Turning on AO-DIIS***
    3    -2029.9862801430053878    -1.19e-01  5.45e-04  8.82e-02  7.10e-02  0.850   4.8
    4    -2030.0549802930672740    -6.87e-02  3.48e-04  4.59e-02  5.14e-02  0.850   4.8
    5    -2030.1029878133376769    -4.80e-02  2.64e-04  3.01e-02  4.02e-02  0.850   4.7
    6    -2030.1402809151168185    -3.73e-02  2.16e-04  3.77e-02  3.36e-02  0.850   4.6
    7    -2030.1706741280486312    -3.04e-02  1.80e-04  3.70e-02  2.81e-02  0.850   4.6
    8    -2030.1959833164628435    -2.53e-02  1.01e-03  2.20e-01  2.33e-02  0.000   4.6
    9    -2030.3331231325209956    -1.37e-01  5.83e-05  6.96e-03  3.27e-03  0.000   4.9
   10    -2030.3333685911429711    -2.45e-04  4.38e-05  5.85e-03  2.41e-03  0.000   4.2
   11    -2030.3334801772489300    -1.12e-04  2.90e-05  2.11e-03  1.02e-03  0.000   4.3
                              *** Initializing SOSCF ***
---------------------------------------S-O-S-C-F--------------------------------------
Iteration    Energy (Eh)           Delta-E    RMSDP     MaxDP     MaxGrad    Time(sec)
--------------------------------------------------------------------------------------
   12    -2030.3335307547322373    -5.06e-05  2.23e-05  1.47e-03  4.70e-04     4.8
               *** Restarting incremental Fock matrix formation ***
   13    -2030.3335313186607891    -5.64e-07  3.99e-05  2.76e-03  1.17e-03     7.6
   14    -2030.3335605639476853    -2.92e-05  9.60e-05  6.81e-03  6.29e-04     5.8
   15    -2030.3335811852175539    -2.06e-05  1.90e-05  2.10e-03  5.36e-04     6.1
   16    -2030.3335877672980132    -6.58e-06  1.36e-05  1.76e-03  1.84e-04     5.5
   17    -2030.3335890509379169    -1.28e-06  7.00e-06  4.83e-04  1.75e-04     5.3
   18    -2030.3335902620983688    -1.21e-06  9.70e-06  6.55e-04  1.04e-04     5.3
   19    -2030.3335906216007061    -3.60e-07  2.90e-06  3.96e-04  4.30e-05     5.4
   20    -2030.3335908807775922    -2.59e-07  2.17e-06  3.80e-04  1.99e-05     4.8
   21    -2030.3335909056031596    -2.48e-08  1.02e-06  1.80e-04  1.71e-05     4.5
   22    -2030.3335909294482917    -2.38e-08  1.25e-06  8.59e-05  1.63e-05     4.3
   23    -2030.3335909411252942    -1.17e-08  1.96e-06  1.53e-04  1.34e-05     4.5
   24    -2030.3335909593679389    -1.82e-08  1.20e-06  7.61e-05  8.57e-06     4.7
   25    -2030.3335909671777699    -7.81e-09  7.26e-07  6.97e-05  5.90e-06     4.5
                 **** Energy Check signals convergence ****

               *****************************************************
               *                     SUCCESS                       *
               *           SCF CONVERGED AFTER  25 CYCLES          *
               *****************************************************

Recomputing exchange energy using gridx3       ... done (    9.805 sec)
Old exchange energy                            :    -21.853770899 Eh
New exchange energy                            :    -21.853757976 Eh
Exchange energy change after final integration :      0.000012923 Eh
Total energy after final integration           :  -2030.333578044 Eh

SMD CDS free energy correction energy :                 3.05739     Kcal/mol
Total Energy after SMD CDS correction =             -2030.328705780 Eh
             **** ENERGY FILE WAS UPDATED (rf_mecn_1H2O_opt_TP_sw_004.en.tmp) ****

----------------
TOTAL SCF ENERGY
----------------

Total Energy       :      -2030.32870577970994 Eh          -55248.05284 eV

Components:
Nuclear Repulsion  :       3082.70890604376473 Eh           83884.77395 eV
Electronic Energy  :      -5112.80653283004449 Eh         -139126.53881 eV
One Electron Energy:      -9017.64977011167321 Eh         -245382.72526 eV
Two Electron Energy:       3904.84323728162872 Eh          106256.18645 eV
CPCM Dielectric    :         -0.23596418089823 Eh              -6.42091 eV
SMD CDS (Gcds)     :          0.00487226469455 Eh               0.13258 eV

Virial components:
Potential Energy   :      -4055.19574078624100 Eh         -110347.48606 eV
Kinetic Energy     :       2024.86703500653084 Eh           55099.43322 eV
Virial Ratio       :          2.00269729847874

DFT components:
N(Alpha)           :      105.999978961971 electrons
N(Beta)            :      104.999976043352 electrons
N(Total)           :      210.999955005323 electrons
E(X)               :     -198.592279191985 Eh       
E(C)               :       -7.437283211403 Eh       
E(XC)              :     -206.029562403389 Eh       

CPCM Solvation Model Properties:
Surface-charge          :          1.98872496362810
Corrected charge        :          2.00000000000000
Outlying charge corr.   :          0.00000657571056 Eh               0.00018 eV
Free-energy (cav+disp)  :          0.00487226469455 Eh               0.13258 eV

---------------
SCF CONVERGENCE
---------------

  Last Energy change         ...    7.8098e-09  Tolerance :   1.0000e-08
  Last MAX-Density change    ...    6.9714e-05  Tolerance :   1.0000e-07
  Last RMS-Density change    ...    7.2600e-07  Tolerance :   5.0000e-09
  Last DIIS Error            ...    4.6976e-04  Tolerance :   5.0000e-07
  Last Orbital Gradient      ...    5.8973e-06  Tolerance :   1.0000e-05
  Last Orbital Rotation      ...    1.7831e-04  Tolerance :   1.0000e-05


----------------------
UHF SPIN CONTAMINATION
----------------------

Warning: in a DFT calculation there is little theoretical justification to 
         calculate <S**2> as in Hartree-Fock theory. We will do it anyways
         but you should keep in mind that the values have only limited relevance

Expectation value of <S**2>     :     0.752167
Ideal value S*(S+1) for S=0.5   :     0.750000
Deviation                       :     0.002167

----------------
ORBITAL ENERGIES
----------------
                 SPIN UP ORBITALS
  NO   OCC          E(Eh)            E(eV) 
   0   1.0000     -24.634225      -670.3313 
   1   1.0000     -24.633902      -670.3226 
   2   1.0000     -24.628204      -670.1675 
   3   1.0000     -24.620425      -669.9558 
   4   1.0000     -24.615438      -669.8201 
   5   1.0000     -24.612847      -669.7496 
   6   1.0000     -24.608499      -669.6313 
   7   1.0000     -24.608252      -669.6246 
   8   1.0000     -24.607782      -669.6118 
   9   1.0000     -24.607117      -669.5937 
  10   1.0000     -24.607029      -669.5913 
  11   1.0000     -24.606416      -669.5746 
  12   1.0000     -24.604337      -669.5181 
  13   1.0000     -24.592582      -669.1982 
  14   1.0000     -24.591325      -669.1640 
  15   1.0000     -19.017349      -517.4884 
  16   1.0000     -18.974465      -516.3214 
  17   1.0000     -18.970479      -516.2130 
  18   1.0000     -10.349486      -281.6238 
  19   1.0000     -10.277930      -279.6767 
  20   1.0000     -10.267828      -279.4018 
  21   1.0000     -10.263666      -279.2885 
  22   1.0000     -10.263426      -279.2820 
  23   1.0000     -10.262619      -279.2601 
  24   1.0000     -10.240367      -278.6546 
  25   1.0000     -10.166460      -276.6434 
  26   1.0000      -1.300732       -35.3947 
  27   1.0000      -1.260718       -34.3059 
  28   1.0000      -1.249749       -34.0074 
  29   1.0000      -1.239776       -33.7360 
  30   1.0000      -1.232976       -33.5510 
  31   1.0000      -1.229239       -33.4493 
  32   1.0000      -1.213572       -33.0230 
  33   1.0000      -1.212911       -33.0050 
  34   1.0000      -1.206711       -32.8363 
  35   1.0000      -1.194599       -32.5067 
  36   1.0000      -1.188324       -32.3359 
  37   1.0000      -1.182526       -32.1782 
  38   1.0000      -1.177516       -32.0418 
  39   1.0000      -1.173977       -31.9455 
  40   1.0000      -1.157329       -31.4925 
  41   1.0000      -0.986915       -26.8553 
  42   1.0000      -0.955705       -26.0061 
  43   1.0000      -0.907706       -24.6999 
  44   1.0000      -0.772231       -21.0135 
  45   1.0000      -0.755682       -20.5631 
  46   1.0000      -0.728823       -19.8323 
  47   1.0000      -0.692774       -18.8514 
  48   1.0000      -0.654878       -17.8201 
  49   1.0000      -0.627191       -17.0667 
  50   1.0000      -0.608308       -16.5529 
  51   1.0000      -0.588107       -16.0032 
  52   1.0000      -0.585693       -15.9375 
  53   1.0000      -0.583272       -15.8716 
  54   1.0000      -0.567904       -15.4535 
  55   1.0000      -0.562796       -15.3145 
  56   1.0000      -0.558996       -15.2111 
  57   1.0000      -0.550169       -14.9709 
  58   1.0000      -0.546003       -14.8575 
  59   1.0000      -0.539379       -14.6772 
  60   1.0000      -0.534659       -14.5488 
  61   1.0000      -0.524230       -14.2650 
  62   1.0000      -0.520573       -14.1655 
  63   1.0000      -0.511299       -13.9132 
  64   1.0000      -0.508942       -13.8490 
  65   1.0000      -0.500744       -13.6259 
  66   1.0000      -0.478734       -13.0270 
  67   1.0000      -0.456235       -12.4148 
  68   1.0000      -0.453634       -12.3440 
  69   1.0000      -0.449134       -12.2215 
  70   1.0000      -0.442238       -12.0339 
  71   1.0000      -0.438771       -11.9396 
  72   1.0000      -0.432472       -11.7682 
  73   1.0000      -0.429632       -11.6909 
  74   1.0000      -0.424664       -11.5557 
  75   1.0000      -0.424622       -11.5545 
  76   1.0000      -0.417804       -11.3690 
  77   1.0000      -0.416973       -11.3464 
  78   1.0000      -0.411608       -11.2004 
  79   1.0000      -0.407895       -11.0994 
  80   1.0000      -0.406293       -11.0558 
  81   1.0000      -0.405038       -11.0217 
  82   1.0000      -0.398167       -10.8347 
  83   1.0000      -0.392210       -10.6726 
  84   1.0000      -0.391146       -10.6436 
  85   1.0000      -0.385966       -10.5027 
  86   1.0000      -0.383228       -10.4282 
  87   1.0000      -0.381047       -10.3688 
  88   1.0000      -0.377604       -10.2751 
  89   1.0000      -0.377179       -10.2636 
  90   1.0000      -0.373581       -10.1657 
  91   1.0000      -0.372473       -10.1355 
  92   1.0000      -0.370780       -10.0894 
  93   1.0000      -0.363101        -9.8805 
  94   1.0000      -0.361039        -9.8244 
  95   1.0000      -0.353616        -9.6224 
  96   1.0000      -0.350450        -9.5362 
  97   1.0000      -0.337258        -9.1773 
  98   1.0000      -0.335167        -9.1204 
  99   1.0000      -0.306971        -8.3531 
 100   1.0000      -0.267860        -7.2888 
 101   1.0000      -0.263662        -7.1746 
 102   1.0000      -0.224413        -6.1066 
 103   1.0000      -0.208437        -5.6719 
 104   1.0000      -0.196276        -5.3409 
 105   1.0000       0.006285         0.1710 
 106   0.0000       0.034429         0.9369 
 107   0.0000       0.052975         1.4415 
 108   0.0000       0.062183         1.6921 
 109   0.0000       0.083439         2.2705 
 110   0.0000       0.085076         2.3150 
 111   0.0000       0.114233         3.1084 
 112   0.0000       0.122561         3.3351 
 113   0.0000       0.130452         3.5498 
 114   0.0000       0.137061         3.7296 
 115   0.0000       0.150374         4.0919 
 116   0.0000       0.171854         4.6764 

                 SPIN DOWN ORBITALS
  NO   OCC          E(Eh)            E(eV) 
   0   1.0000     -24.634086      -670.3276 
   1   1.0000     -24.633570      -670.3135 
   2   1.0000     -24.627322      -670.1435 
   3   1.0000     -24.620162      -669.9487 
   4   1.0000     -24.614136      -669.7847 
   5   1.0000     -24.612404      -669.7375 
   6   1.0000     -24.607634      -669.6078 
   7   1.0000     -24.607254      -669.5974 
   8   1.0000     -24.607251      -669.5973 
   9   1.0000     -24.606838      -669.5861 
  10   1.0000     -24.606144      -669.5672 
  11   1.0000     -24.605717      -669.5556 
  12   1.0000     -24.603849      -669.5048 
  13   1.0000     -24.592211      -669.1881 
  14   1.0000     -24.591068      -669.1570 
  15   1.0000     -19.017349      -517.4884 
  16   1.0000     -18.973785      -516.3029 
  17   1.0000     -18.969629      -516.1898 
  18   1.0000     -10.348386      -281.5939 
  19   1.0000     -10.276264      -279.6314 
  20   1.0000     -10.265821      -279.3472 
  21   1.0000     -10.261903      -279.2406 
  22   1.0000     -10.261418      -279.2274 
  23   1.0000     -10.261395      -279.2267 
  24   1.0000     -10.239668      -278.6355 
  25   1.0000     -10.165469      -276.6165 
  26   1.0000      -1.299623       -35.3645 
  27   1.0000      -1.258550       -34.2469 
  28   1.0000      -1.248053       -33.9612 
  29   1.0000      -1.238028       -33.6885 
  30   1.0000      -1.231059       -33.4988 
  31   1.0000      -1.227781       -33.4096 
  32   1.0000      -1.212703       -32.9993 
  33   1.0000      -1.212321       -32.9889 
  34   1.0000      -1.205257       -32.7967 
  35   1.0000      -1.192936       -32.4614 
  36   1.0000      -1.186896       -32.2971 
  37   1.0000      -1.181106       -32.1395 
  38   1.0000      -1.176138       -32.0043 
  39   1.0000      -1.172862       -31.9152 
  40   1.0000      -1.156672       -31.4746 
  41   1.0000      -0.985425       -26.8148 
  42   1.0000      -0.955691       -26.0057 
  43   1.0000      -0.906444       -24.6656 
  44   1.0000      -0.765502       -20.8304 
  45   1.0000      -0.750076       -20.4106 
  46   1.0000      -0.723691       -19.6926 
  47   1.0000      -0.688562       -18.7367 
  48   1.0000      -0.652330       -17.7508 
  49   1.0000      -0.624803       -17.0017 
  50   1.0000      -0.605948       -16.4887 
  51   1.0000      -0.585112       -15.9217 
  52   1.0000      -0.582259       -15.8441 
  53   1.0000      -0.582221       -15.8430 
  54   1.0000      -0.564002       -15.3473 
  55   1.0000      -0.559367       -15.2211 
  56   1.0000      -0.556394       -15.1403 
  57   1.0000      -0.547951       -14.9105 
  58   1.0000      -0.543400       -14.7867 
  59   1.0000      -0.535920       -14.5831 
  60   1.0000      -0.532814       -14.4986 
  61   1.0000      -0.521364       -14.1870 
  62   1.0000      -0.518929       -14.1208 
  63   1.0000      -0.510008       -13.8780 
  64   1.0000      -0.507078       -13.7983 
  65   1.0000      -0.499989       -13.6054 
  66   1.0000      -0.478610       -13.0236 
  67   1.0000      -0.454627       -12.3710 
  68   1.0000      -0.452705       -12.3187 
  69   1.0000      -0.448297       -12.1988 
  70   1.0000      -0.440996       -12.0001 
  71   1.0000      -0.437477       -11.9044 
  72   1.0000      -0.431231       -11.7344 
  73   1.0000      -0.428473       -11.6593 
  74   1.0000      -0.423960       -11.5365 
  75   1.0000      -0.423633       -11.5276 
  76   1.0000      -0.416877       -11.3438 
  77   1.0000      -0.415887       -11.3169 
  78   1.0000      -0.410365       -11.1666 
  79   1.0000      -0.406946       -11.0736 
  80   1.0000      -0.405436       -11.0325 
  81   1.0000      -0.403766       -10.9870 
  82   1.0000      -0.396919       -10.8007 
  83   1.0000      -0.391096       -10.6423 
  84   1.0000      -0.390141       -10.6163 
  85   1.0000      -0.384748       -10.4695 
  86   1.0000      -0.382110       -10.3977 
  87   1.0000      -0.379490       -10.3264 
  88   1.0000      -0.376156       -10.2357 
  89   1.0000      -0.375641       -10.2217 
  90   1.0000      -0.372087       -10.1250 
  91   1.0000      -0.370151       -10.0723 
  92   1.0000      -0.368711       -10.0331 
  93   1.0000      -0.361920        -9.8483 
  94   1.0000      -0.357711        -9.7338 
  95   1.0000      -0.350376        -9.5342 
  96   1.0000      -0.346793        -9.4367 
  97   1.0000      -0.335069        -9.1177 
  98   1.0000      -0.334139        -9.0924 
  99   1.0000      -0.304411        -8.2834 
 100   1.0000      -0.266625        -7.2552 
 101   1.0000      -0.263618        -7.1734 
 102   1.0000      -0.220596        -6.0027 
 103   1.0000      -0.207679        -5.6512 
 104   1.0000      -0.194922        -5.3041 
 105   0.0000       0.040197         1.0938 
 106   0.0000       0.048538         1.3208 
 107   0.0000       0.059704         1.6246 
 108   0.0000       0.062707         1.7063 
 109   0.0000       0.090508         2.4629 
 110   0.0000       0.095751         2.6055 
 111   0.0000       0.115852         3.1525 
 112   0.0000       0.123874         3.3708 
 113   0.0000       0.136202         3.7063 
 114   0.0000       0.145495         3.9591 
 115   0.0000       0.152717         4.1556 
*Only the first 10 virtual orbitals were printed.

                    ********************************
                    * MULLIKEN POPULATION ANALYSIS *
                    ********************************

--------------------------------------------
MULLIKEN ATOMIC CHARGES AND SPIN POPULATIONS
--------------------------------------------
   0 C :    0.361958    0.080316
   1 C :    0.214212    0.144245
   2 C :    0.177783    0.187023
   3 C :    0.195351    0.191882
   4 C :    0.212913    0.162379
   5 C :    0.263630    0.102800
   6 C :    0.232443    0.064295
   7 C :    0.147176    0.056821
   8 F :   -0.153685   -0.001194
   9 F :   -0.154907   -0.000988
  10 F :   -0.158745    0.004286
  11 F :   -0.169560   -0.001475
  12 F :   -0.179608   -0.001885
  13 F :   -0.179873   -0.001747
  14 F :   -0.190136   -0.002784
  15 F :   -0.182406   -0.004522
  16 F :   -0.187965   -0.003953
  17 F :   -0.185614   -0.004926
  18 F :   -0.186619   -0.003822
  19 F :   -0.199833   -0.001384
  20 F :   -0.187951   -0.002177
  21 F :   -0.217871   -0.001183
  22 F :   -0.208350   -0.002691
  23 O :   -0.492479    0.021837
  24 O :   -0.535066    0.018249
  25 O :   -0.732631   -0.000243
  26 H :    0.336802    0.000197
  27 H :    0.361029    0.000644
Sum of atomic charges         :   -2.0000000
Sum of atomic spin populations:    1.0000000

-----------------------------------------------------
MULLIKEN REDUCED ORBITAL CHARGES AND SPIN POPULATIONS
-----------------------------------------------------
CHARGE
  0 C s       :     3.015554  s :     3.015554
      pz      :     0.683224  p :     2.223081
      px      :     0.738224
      py      :     0.801633
      dz2     :     0.064114  d :     0.357997
      dxz     :     0.077553
      dyz     :     0.075293
      dx2y2   :     0.074332
      dxy     :     0.066705
      f0      :     0.006226  f :     0.041410
      f+1     :     0.008927
      f-1     :     0.005123
      f+2     :     0.003304
      f-2     :     0.005947
      f+3     :     0.004569
      f-3     :     0.007314

  1 C s       :     3.074823  s :     3.074823
      pz      :     0.628732  p :     2.380485
      px      :     0.849981
      py      :     0.901772
      dz2     :     0.067395  d :     0.301571
      dxz     :     0.060759
      dyz     :     0.059617
      dx2y2   :     0.059950
      dxy     :     0.053850
      f0      :     0.005033  f :     0.028910
      f+1     :     0.006119
      f-1     :     0.003070
      f+2     :     0.004787
      f-2     :     0.004246
      f+3     :     0.002842
      f-3     :     0.002812

  2 C s       :     3.102163  s :     3.102163
      pz      :     0.583627  p :     2.376133
      px      :     0.865010
      py      :     0.927496
      dz2     :     0.075765  d :     0.315322
      dxz     :     0.052702
      dyz     :     0.069203
      dx2y2   :     0.060736
      dxy     :     0.056916
      f0      :     0.006350  f :     0.028599
      f+1     :     0.004468
      f-1     :     0.003367
      f+2     :     0.004953
      f-2     :     0.005108
      f+3     :     0.002216
      f-3     :     0.002136

  3 C s       :     3.087544  s :     3.087544
      pz      :     0.629137  p :     2.374920
      px      :     0.859233
      py      :     0.886550
      dz2     :     0.073548  d :     0.313658
      dxz     :     0.058259
      dyz     :     0.063136
      dx2y2   :     0.064603
      dxy     :     0.054112
      f0      :     0.005266  f :     0.028527
      f+1     :     0.005900
      f-1     :     0.002950
      f+2     :     0.004684
      f-2     :     0.004343
      f+3     :     0.002652
      f-3     :     0.002731

  4 C s       :     3.093650  s :     3.093650
      pz      :     0.630712  p :     2.357828
      px      :     0.809453
      py      :     0.917662
      dz2     :     0.062097  d :     0.307134
      dxz     :     0.063601
      dyz     :     0.064905
      dx2y2   :     0.061422
      dxy     :     0.055109
      f0      :     0.004223  f :     0.028476
      f+1     :     0.007758
      f-1     :     0.003764
      f+2     :     0.003288
      f-2     :     0.003341
      f+3     :     0.002329
      f-3     :     0.003773

  5 C s       :     3.088067  s :     3.088067
      pz      :     0.699116  p :     2.320053
      px      :     0.709009
      py      :     0.911928
      dz2     :     0.056904  d :     0.299600
      dxz     :     0.070382
      dyz     :     0.052677
      dx2y2   :     0.059739
      dxy     :     0.059898
      f0      :     0.005598  f :     0.028650
      f+1     :     0.005454
      f-1     :     0.003739
      f+2     :     0.004180
      f-2     :     0.002071
      f+3     :     0.002707
      f-3     :     0.004900

  6 C s       :     3.120546  s :     3.120546
      pz      :     0.726006  p :     2.354242
      px      :     0.638716
      py      :     0.989520
      dz2     :     0.045570  d :     0.265882
      dxz     :     0.058851
      dyz     :     0.051456
      dx2y2   :     0.055180
      dxy     :     0.054825
      f0      :     0.005607  f :     0.026887
      f+1     :     0.003495
      f-1     :     0.003480
      f+2     :     0.004303
      f-2     :     0.002345
      f+3     :     0.003151
      f-3     :     0.004507

  7 C s       :     3.049004  s :     3.049004
      pz      :     0.865534  p :     2.534448
      px      :     0.757432
      py      :     0.911482
      dz2     :     0.012929  d :     0.244023
      dxz     :     0.067670
      dyz     :     0.018844
      dx2y2   :     0.071563
      dxy     :     0.073017
      f0      :     0.002424  f :     0.025349
      f+1     :     0.002237
      f-1     :     0.001110
      f+2     :     0.002402
      f-2     :     0.002836
      f+3     :     0.006880
      f-3     :     0.007460

  8 F s       :     3.904326  s :     3.904326
      pz      :     1.802037  p :     5.232385
      px      :     1.559147
      py      :     1.871201
      dz2     :     0.002215  d :     0.016196
      dxz     :     0.005260
      dyz     :     0.001010
      dx2y2   :     0.004319
      dxy     :     0.003393
      f0      :     0.000087  f :     0.000778
      f+1     :     0.000135
      f-1     :     0.000013
      f+2     :     0.000187
      f-2     :     0.000096
      f+3     :     0.000133
      f-3     :     0.000128

  9 F s       :     3.905222  s :     3.905222
      pz      :     1.480499  p :     5.232416
      px      :     1.875209
      py      :     1.876709
      dz2     :     0.007803  d :     0.016475
      dxz     :     0.003738
      dyz     :     0.004082
      dx2y2   :     0.000380
      dxy     :     0.000472
      f0      :     0.000326  f :     0.000793
      f+1     :     0.000185
      f-1     :     0.000206
      f+2     :     0.000030
      f-2     :     0.000040
      f+3     :     0.000003
      f-3     :     0.000002

 10 F s       :     3.900883  s :     3.900883
      pz      :     1.888947  p :     5.240955
      px      :     1.737715
      py      :     1.614294
      dz2     :     0.002331  d :     0.016138
      dxz     :     0.001337
      dyz     :     0.002200
      dx2y2   :     0.004026
      dxy     :     0.006244
      f0      :     0.000064  f :     0.000768
      f+1     :     0.000065
      f-1     :     0.000103
      f+2     :     0.000015
      f-2     :     0.000102
      f+3     :     0.000237
      f-3     :     0.000183

 11 F s       :     3.895210  s :     3.895210
      pz      :     1.755737  p :     5.258165
      px      :     1.631269
      py      :     1.871159
      dz2     :     0.002229  d :     0.015480
      dxz     :     0.005305
      dyz     :     0.001674
      dx2y2   :     0.003146
      dxy     :     0.003126
      f0      :     0.000073  f :     0.000705
      f+1     :     0.000142
      f-1     :     0.000026
      f+2     :     0.000161
      f-2     :     0.000133
      f+3     :     0.000079
      f-3     :     0.000091

 12 F s       :     3.908221  s :     3.908221
      pz      :     1.558044  p :     5.254494
      px      :     1.838444
      py      :     1.858005
      dz2     :     0.005681  d :     0.016157
      dxz     :     0.004156
      dyz     :     0.004165
      dx2y2   :     0.001003
      dxy     :     0.001151
      f0      :     0.000181  f :     0.000737
      f+1     :     0.000185
      f-1     :     0.000180
      f+2     :     0.000069
      f-2     :     0.000102
      f+3     :     0.000010
      f-3     :     0.000009

 13 F s       :     3.896269  s :     3.896269
      pz      :     1.650165  p :     5.267342
      px      :     1.732314
      py      :     1.884863
      dz2     :     0.003574  d :     0.015554
      dxz     :     0.005553
      dyz     :     0.002612
      dx2y2   :     0.001876
      dxy     :     0.001940
      f0      :     0.000096  f :     0.000707
      f+1     :     0.000219
      f-1     :     0.000066
      f+2     :     0.000131
      f-2     :     0.000130
      f+3     :     0.000031
      f-3     :     0.000034

 14 F s       :     3.908529  s :     3.908529
      pz      :     1.608461  p :     5.264976
      px      :     1.755206
      py      :     1.901309
[...]
      f-3     :     0.000000

 18 F s       :     0.001831  s :     0.001831
      pz      :     0.004891  p :     0.002475
      px      :    -0.001912
      py      :    -0.000504
      dz2     :     0.000004  d :     0.000807
      dxz     :     0.000737
      dyz     :     0.000043
      dx2y2   :     0.000112
      dxy     :    -0.000090
      f0      :     0.000010  f :     0.000029
      f+1     :    -0.000000
      f-1     :    -0.000000
      f+2     :     0.000017
      f-2     :     0.000001
      f+3     :     0.000005
      f-3     :    -0.000004

 19 F s       :     0.000378  s :     0.000378
      pz      :    -0.001317  p :     0.000516
      px      :     0.002536
      py      :    -0.000703
      dz2     :     0.000034  d :     0.000476
      dxz     :     0.000312
      dyz     :     0.000111
      dx2y2   :     0.000010
      dxy     :     0.000010
      f0      :     0.000000  f :     0.000020
      f+1     :     0.000011
      f-1     :     0.000008
      f+2     :    -0.000000
      f-2     :     0.000001
      f+3     :     0.000000
      f-3     :     0.000000

 20 F s       :     0.001017  s :     0.001017
      pz      :     0.000938  p :     0.000832
      px      :     0.000295
      py      :    -0.000401
      dz2     :     0.000103  d :     0.000324
      dxz     :     0.000131
      dyz     :     0.000012
      dx2y2   :     0.000019
      dxy     :     0.000058
      f0      :     0.000002  f :     0.000014
      f+1     :     0.000001
      f-1     :     0.000000
      f+2     :     0.000003
      f-2     :     0.000000
      f+3     :     0.000001
      f-3     :     0.000006

 21 F s       :     0.000180  s :     0.000180
      pz      :    -0.000739  p :     0.000632
      px      :     0.001241
      py      :     0.000130
      dz2     :     0.000094  d :     0.000268
      dxz     :     0.000089
      dyz     :     0.000023
      dx2y2   :     0.000012
      dxy     :     0.000049
      f0      :     0.000006  f :     0.000012
      f+1     :     0.000001
      f-1     :     0.000001
      f+2     :     0.000000
      f-2     :     0.000003
      f+3     :     0.000000
      f-3     :     0.000000

 22 F s       :     0.000615  s :     0.000615
      pz      :    -0.000133  p :     0.000616
      px      :     0.000881
      py      :    -0.000132
      dz2     :     0.000074  d :     0.000157
      dxz     :     0.000013
      dyz     :     0.000024
      dx2y2   :     0.000002
      dxy     :     0.000044
      f0      :     0.000000  f :     0.000008
      f+1     :     0.000003
      f-1     :     0.000000
      f+2     :     0.000001
      f-2     :    -0.000000
      f+3     :     0.000000
      f-3     :     0.000004

 23 O s       :     0.000179  s :     0.000179
      pz      :     0.006560  p :     0.006792
      px      :     0.001228
      py      :    -0.000996
      dz2     :     0.000209  d :     0.000404
      dxz     :     0.000037
      dyz     :     0.000138
      dx2y2   :     0.000028
      dxy     :    -0.000008
      f0      :     0.000000  f :     0.000033
      f+1     :     0.000014
      f-1     :     0.000012
      f+2     :     0.000001
      f-2     :     0.000003
      f+3     :     0.000000
      f-3     :     0.000003

 24 O s       :     0.000107  s :     0.000107
      pz      :     0.004520  p :     0.005336
      px      :     0.001335
      py      :    -0.000520
      dz2     :     0.000022  d :     0.000367
      dxz     :     0.000247
      dyz     :     0.000046
      dx2y2   :     0.000053
      dxy     :    -0.000001
      f0      :     0.000009  f :     0.000027
      f+1     :     0.000003
      f-1     :     0.000000
      f+2     :     0.000007
      f-2     :     0.000008
      f+3     :    -0.000002
      f-3     :     0.000003

 25 O s       :     0.000000  s :     0.000000
      pz      :    -0.000006  p :    -0.000012
      px      :    -0.000000
      py      :    -0.000005
      dz2     :     0.000000  d :    -0.000000
      dxz     :    -0.000000
      dyz     :     0.000000
      dx2y2   :    -0.000000
      dxy     :    -0.000000
      f0      :     0.000000  f :     0.000000
      f+1     :    -0.000000
      f-1     :    -0.000000
      f+2     :     0.000000
      f-2     :    -0.000000
      f+3     :    -0.000000
      f-3     :     0.000000

 26 H s       :    -0.000002  s :    -0.000002
      pz      :     0.000000  p :    -0.000000
      px      :    -0.000000
      py      :    -0.000000

 27 H s       :    -0.000015  s :    -0.000015
      pz      :    -0.000005  p :    -0.000003
      px      :     0.000003
      py      :    -0.000001



                      *****************************
                      * MAYER POPULATION ANALYSIS *
                      *****************************

  NA   - Mulliken gross atomic population
  ZA   - Total nuclear charge
  QA   - Mulliken gross atomic charge
  VA   - Mayer's total valence
  BVA  - Mayer's bonded valence
  FA   - Mayer's free valence

  ATOM       NA         ZA         QA         VA         BVA        FA
  0 C      5.6204     6.0000     0.3796     4.5693     4.5621     0.0072
  1 C      5.7443     6.0000     0.2557     4.1732     4.1428     0.0304
  2 C      5.7978     6.0000     0.2022     4.0920     4.0062     0.0859
  3 C      5.7813     6.0000     0.2187     4.0914     4.0031     0.0883
  4 C      5.7509     6.0000     0.2491     4.1281     4.0950     0.0331
  5 C      5.7612     6.0000     0.2388     4.0973     4.0901     0.0071
  6 C      5.6893     6.0000     0.3107     3.9397     3.9386     0.0011
  7 C      5.7882     6.0000     0.2118     4.5417     4.5415     0.0003
  8 F      9.1602     9.0000    -0.1602     1.1455     1.1454     0.0000
  9 F      9.1607     9.0000    -0.1607     1.1447     1.1447     0.0000
 10 F      9.1725     9.0000    -0.1725     1.1136     1.1133     0.0003
 11 F      9.1978     9.0000    -0.1978     1.0868     1.0868     0.0001
 12 F      9.1975     9.0000    -0.1975     1.0875     1.0875     0.0001
 13 F      9.2225     9.0000    -0.2225     1.0490     1.0488     0.0002
 14 F      9.2199     9.0000    -0.2199     1.0539     1.0537     0.0002
 15 F      9.2236     9.0000    -0.2236     1.0452     1.0450     0.0002
 16 F      9.2181     9.0000    -0.2181     1.0538     1.0537     0.0002
 17 F      9.2053     9.0000    -0.2053     1.0805     1.0805     0.0001
 18 F      9.2041     9.0000    -0.2041     1.0797     1.0796     0.0001
 19 F      9.1964     9.0000    -0.1964     1.1052     1.1051     0.0000
 20 F      9.1949     9.0000    -0.1949     1.1050     1.1050     0.0000
 21 F      9.2092     9.0000    -0.2092     1.0723     1.0723     0.0000
 22 F      9.2072     9.0000    -0.2072     1.0801     1.0801     0.0000
 23 O      8.4792     8.0000    -0.4792     1.9970     1.9970     0.0001
 24 O      8.5385     8.0000    -0.5385     1.8824     1.8824     0.0000
 25 O      8.7454     8.0000    -0.7454     1.7108     1.7108     0.0000
 26 H      0.6706     1.0000     0.3294     0.9060     0.9060     0.0000
 27 H      0.6428     1.0000     0.3572     0.9424     0.9424     0.0000

  Mayer bond orders larger than 0.100000
B(  0-C ,  1-C ) :   0.9654 B(  0-C ,  8-F ) :   1.1493 B(  0-C ,  9-F ) :   1.1488 
B(  0-C , 10-F ) :   1.0988 B(  1-C ,  2-C ) :   0.9203 B(  1-C , 11-F ) :   1.0378 
B(  1-C , 12-F ) :   1.0373 B(  2-C ,  3-C ) :   0.9026 B(  2-C , 13-F ) :   1.0018 
B(  2-C , 14-F ) :   1.0047 B(  3-C ,  4-C ) :   0.9087 B(  3-C , 15-F ) :   0.9947 
B(  3-C , 16-F ) :   1.0046 B(  4-C ,  5-C ) :   0.8988 B(  4-C , 17-F ) :   1.0330 
B(  4-C , 18-F ) :   1.0347 B(  5-C ,  6-C ) :   0.9032 B(  5-C , 19-F ) :   1.0543 
B(  5-C , 20-F ) :   1.0675 B(  6-C ,  7-C ) :   0.8835 B(  6-C , 21-F ) :   1.0353 
B(  6-C , 22-F ) :   1.0535 B(  7-C , 23-O ) :   1.8975 B(  7-C , 24-O ) :   1.6707 
B( 24-O , 27-H ) :   0.1223 B( 25-O , 26-H ) :   0.9003 B( 25-O , 27-H ) :   0.8061 


-------
TIMINGS
-------

Total SCF time: 0 days 0 hours 0 min 48 sec 

Total time                  ....      48.227 sec
Sum of individual times     ....      46.745 sec  ( 96.9%)

SCF preparation             ....       1.350 sec  (  2.8%)
Fock matrix formation       ....      39.398 sec  ( 81.7%)
  Startup                   ....       0.176 sec  (  0.4% of F)
  Split-RI-J                ....       2.418 sec  (  6.1% of F)
  Chain of spheres X        ....      26.409 sec  ( 67.0% of F)
  XC integration            ....       7.666 sec  ( 19.5% of F)
    XC Preparation          ....       0.000 sec  (  0.0% of XC)
    Basis function eval.    ....       0.478 sec  (  6.2% of XC)
    Density eval.           ....       2.197 sec  ( 28.7% of XC)
    XC-Functional eval.     ....       0.100 sec  (  1.3% of XC)
    XC-Potential eval.      ....       1.967 sec  ( 25.7% of XC)
  CPCM terms                ....       2.205 sec  (  5.6% of F)
Diagonalization             ....       0.000 sec  (  0.0%)
Density matrix formation    ....       0.491 sec  (  1.0%)
Total Energy calculation    ....       0.330 sec  (  0.7%)
Population analysis         ....       0.898 sec  (  1.9%)
Orbital Transformation      ....       0.514 sec  (  1.1%)
Orbital Orthonormalization  ....       0.000 sec  (  0.0%)
DIIS solution               ....       0.808 sec  (  1.7%)
SOSCF solution              ....       2.956 sec  (  6.1%)
Finished LeanSCF after  49.2 sec

Maximum memory used throughout the entire LEANSCF-calculation: 126.6 MB


-------------------------------------------------------------------------------
                          DFT DISPERSION CORRECTION                            
                                                                               
                              DFTD3 V3.1  Rev 1                                
                          USING Becke-Johnson damping                          
-------------------------------------------------------------------------------
The TPSSH functional is recognized
Active option DFTDOPT                   ...         4   

molecular C6(AA) [au] = 7743.020017 


            DFT-D V3
 parameters
 s6 scaling factor         :     1.0000 
 a1 scaling factor         :     0.4529 
 s8 scaling factor         :     2.2382 
 a2 scaling factor         :     4.6550 
 ad hoc parameters k1-k3   :    16.0000     1.3333    -4.0000 

 Edisp/kcal,au: -19.826057769343  -0.031594830794 
 E6   /kcal   :  -9.688974512 
 E8   /kcal   : -10.137083257 
 % E8         :  51.130100472 

-------------------------   ----------------
Dispersion correction           -0.031594831
-------------------------   ----------------


-------------------------   --------------------
FINAL SINGLE POINT ENERGY     -2030.411935769887
-------------------------   --------------------

                                *** OPTIMIZATION RUN DONE ***



           ************************************************************
           *        Program running with 20 parallel MPI-processes    *
           *              working on a common directory               *
           ************************************************************

------------------------------------------------------------------------------
                              ORCA PROPERTY CALCULATIONS
------------------------------------------------------------------------------

GBWName                                 ... rf_mecn_1H2O_opt_TP_sw_004.gbw
Number of atoms                         ...     28
Number of basis functions               ...    818
Max core memory                         ...   8000 MB

Electric properties:
Dipole moment                           ... YES
Quadrupole moment                       ...  NO
Static polarizability (Dipole/Dipole)   ...  NO
Static polarizability (Dipole/Quad.)    ...  NO
Static polarizability (Quad./Quad.)     ...  NO
Static polarizability (Velocity)        ...  NO

Atomic electric properties:
Dipole moment                           ...  NO
Quadrupole moment                       ...  NO
Static polarizability                   ...  NO

Choice of electric origin               ... Center of mass
Position of electric origin             ...    12.464558    44.697463     3.424405

General magnetic properties:
Magnetizability                         ...  NO

EPR properties:
g-Tensor (aka g-matrix)                 ...  NO
Zero-Field splitting spin-orbit         ...  NO
Zero-field splitting spin-spin          ...  NO
Hyperfine couplings                     ...  NO (   0 nuclei)
Quadrupole couplings                    ...  NO (   0 nuclei)
Contact density                         ...  NO (   0 nuclei)

NMR properties:
Chemical shifts                         ...  NO (   0 nuclei)
Spin-rotation constants                 ...  NO (   0 nuclei)
Spin-spin couplings                     ...  NO (   0 nuclei,    0 pairs)

Choice of magnetic origin               ... GIAO
Position of magnetic origin             ...     0.000000     0.000000     0.000000

Properties with geometric perturbations:
SCF Hessian                             ...  NO
IR spectrum                             ...  NO
VCD spectrum                            ...  NO
X-ray spectroscopy properties:
SCF XES/XAS/RIXS spectra                ...  NO


-------------
DIPOLE MOMENT
-------------

Method             : SCF
Type of density    : Electron Density
Multiplicity       :   2
Irrep              :   0
Energy             : -2030.3803409390936849 Eh
Relativity type    : 
Basis              : AO
                                X                 Y                 Z
Electronic contribution:      8.361209277      29.010320629       6.911386584
Nuclear contribution   :     -8.075218383     -22.188178799      -5.624731238
                        -----------------------------------------
Total Dipole Moment    :      0.285990894       6.822141830       1.286655346
                        -----------------------------------------
Magnitude (a.u.)       :      6.948301369
Magnitude (Debye)      :     17.661178523



--------------------
Rotational spectrum 
--------------------
 
Rotational constants in cm-1:             0.017106             0.003042             0.002938 
Rotational constants in MHz :           512.826356            91.190160            88.082134 

Dipole components along the rotational axes: 
x,y,z [a.u.] :     6.944200     0.131754    -0.199042 
x,y,z [Debye]:    17.650754     0.334892    -0.505924 

 

Dipole moment calculation done in   0.3 sec 

Maximum memory used throughout the entire PROP-calculation: 69.5 MB

--------------------------------
SUGGESTED CITATIONS FOR THIS RUN
--------------------------------

Below you find a list of papers that are relevant to this ORCA run
We neither can nor want to force you to cite these papers, but we appreciate if you do
You receive ORCA, which is the product of decades of hard work by many enthusiastic individuals, for free
The only thing we kindly ask in return is that you cite our papers,
We deeply appreciate it, if you show your appreciation for ORCA by not just citing the generic ORCA reference.

Please note that relegating all ORCA citations to the supporting information does *not* help us.
SI sections are not indexed - citations you put there will not count into any citation statistics
But we need these citations in order to attract the funding resources that allow us to do what we are doing

Therefore, if you are a happy ORCA user, please consider citing a few of the papers listed below in the main body of your paper

In addition to the list printed below, the program has created the file rf_mecn_1H2O_opt_TP_sw_004.bibtex that contains the list in bibtex format
You can import this file easily into all common literature databanks and citation aid programs


List of essential papers. We consider these as the minimum necessary citations

  1. Neese,F.
     Software update: the ORCA program system, version 5.0
     WIRES Comput. Molec. Sci., 2022 12(1)e1606
     doi.org/10.1002/wcms.1606

List of papers to cite with high priority. The work reported in these papers was absolutely
necessary for this run to complete.
Our perspective: the developers of density functionals and basis sets usually get cited in chemistry papers
Good! But without the algorithms to do something with them, the functionals or basis sets would not do anything.
Hence, in our opinion, the algorithm design and method developments papers are equally worthy of getting cited

  1. Neese,F.
     An improvement of the resolution of the identity approximation for the formation of the Coulomb matrix
     J. Comp. Chem., 2003 24(14)1740-1747
     doi.org/10.1002/jcc.10318
  2. Neese,F.; Wennmohs,F.; Hansen,A.; Becker,U.
     Efficient, approximate and parallel Hartree-Fock and hybrid DFT calculations. A 'chain-of-spheres' algorithm for the Hartree-Fock exchange
     Chem. Phys., 2009 356(1-3)98-109
     doi.org/10.1016/j.chemphys.2008.10.036
  3. Garcia-Rates,M.; Neese,F.
     Effect of the Solute Cavity on the Solvation Energy and its Derivatives within the Framework of the Gaussian Charge Scheme
     J. Comput. Chem., 2020 41 922-939
     doi.org/10.1002/jcc.26139
  4. Helmich-Paris,B.; de Souza,B.; Neese,F.; Izsák,R.
     An improved chain of spheres for exchange algorithm
     J. Chem. Phys., 2021 155 104109
     doi.org/doi: 10.1063/5.0058766.
  5. Neese,F.
     The SHARK Integral Generation and Digestion System
     J. Comp. Chem., 2022  1-16
     doi.org/10.1002/jcc.26942
  6. Grimme,S.; Antony,J.; Ehrlich,S.; Krieg,H.
     A consistent and accurate ab initio parametrization of density functional dispersion correction (DFT-D) for the 94 elements H-Pu
     J. Chem. Phys., 2010 132 154104
     doi.org/10.1063/1.3382344
  7. Grimme,S.; Ehrlich,S.; Goerigk,L.
     Effect of the damping function in dispersion corrected density functional theory
     J. Comput. Chem., 2011 32(7)1456-1465
     doi.org/10.1002/jcc.21759

List of suggested additional citations. These are papers that are important in the 'surrounding' of 
of this run, or papers that preceded the highly important papers. If you like your results we are grateful for a citation.

  1. Izsak,R.; Neese,F.
     An overlap fitted chain of spheres exchange method
     J. Chem. Phys., 2011 135 144105
     doi.org/10.1063/1.3646921
  2. Izsak,R.; Hansen,A.; Neese,F.
     The resolution of identity and chain of spheres approximations for the LPNO-CCSD singles Fock term
     Molec. Phys., 2012 110 2413-2417
     doi.org/10.1080/00268976.2012.687466
  3. Neese,F.
     The ORCA program system
     WIRES Comput. Molec. Sci., 2012 2(1)73-78
     doi.org/10.1002/wcms.81
  4. Izsak,R.; Neese,F.; Klopper,W.
     Robust fitting techniques in the chain of spheres approximation to the Fock exchange: The role of the complementary space
     J. Chem. Phys., 2013 139 
     doi.org/10.1063/1.4819264
  5. Neese,F.
     Software update: the ORCA program system, version 4.0
     WIRES Comput. Molec. Sci., 2018 8(1)1-6
     doi.org/10.1002/wcms.1327
  6. Neese,F.; Wennmohs,F.; Becker,U.; Riplinger,C.
     The ORCA quantum chemistry program package
     J. Chem. Phys., 2020 152 Art. No. L224108
     doi.org/10.1063/5.0004608

List of optional additional citations

  1. Neese,F.
     Approximate second-order SCF convergence for spin unrestricted wavefunctions
     Chem. Phys. Lett., 2000 325(1-3)93-98
     doi.org/10.1016/s0009-2614(00)00662-x

Timings for individual modules:

Sum of individual times          ...     7186.531 sec (= 119.776 min)
Startup calculation              ...      298.083 sec (=   4.968 min)   4.1 %
SCF iterations                   ...     5161.849 sec (=  86.031 min)  71.8 %
Property calculations            ...        1.195 sec (=   0.020 min)   0.0 %
SCF Gradient evaluation          ...     1723.897 sec (=  28.732 min)  24.0 %
Geometry relaxation              ...        1.507 sec (=   0.025 min)   0.0 %
                             ****ORCA TERMINATED NORMALLY****
TOTAL RUN TIME: 0 days 2 hours 0 minutes 38 seconds 554 msec
