
                                 *****************
                                 * O   R   C   A *
                                 *****************

                                            #,                                       
                                            ###                                      
                                            ####                                     
                                            #####                                    
                                            ######                                   
                                           ########,                                 
                                     ,,################,,,,,                         
                               ,,#################################,,                 
                          ,,##########################################,,             
                       ,#########################################, ''#####,          
                    ,#############################################,,   '####,        
                  ,##################################################,,,,####,       
                ,###########''''           ''''###############################       
              ,#####''   ,,,,##########,,,,          '''####'''          '####       
            ,##' ,,,,###########################,,,                        '##       
           ' ,,###''''                  '''############,,,                           
         ,,##''                                '''############,,,,        ,,,,,,###''
      ,#''                                            '''#######################'''  
     '                                                          ''''####''''         
             ,#######,   #######,   ,#######,      ##                                
            ,#'     '#,  ##    ##  ,#'     '#,    #''#        ,####,   ,####,        
            ##       ##  ##   ,#'  ##            #'  '#       #'       #'  '#        
            ##       ##  #######   ##           ,######,      #####,   #    #        
            '#,     ,#'  ##    ##  '#,     ,#' ,#      #,     #,   #   #,  ,#        
             '#######'   ##     ##  '#######'  #'      '#     '####' # '####'        



                #########################################################
                #                        -***-                          #
                #          Department of theory and spectroscopy        #
                #                                                       #
                #                      Frank Neese                      #
                #                                                       #
                #     Directorship, Architecture, Infrastructure        #
                #                    SHARK, DRIVERS                     #
                #        Core code/Algorithms in most modules           #
                #                                                       #
                #        Max Planck Institute fuer Kohlenforschung      #
                #                Kaiser Wilhelm Platz 1                 #
                #                 D-45470 Muelheim/Ruhr                 #
                #                      Germany                          #
                #                                                       #
                #                  All rights reserved                  #
                #                        -***-                          #
                #########################################################


                         Program Version 6.0.1  -  RELEASE   -


 With contributions from (in alphabetic order):
[Max-Planck-Institut fuer Kohlenforschung]                               
  Daniel Aravena         : Magnetic Suceptibility                        
  Michael Atanasov       : Ab Initio Ligand Field Theory (pilot matlab implementation)
  Alexander A. Auer      : GIAO ZORA, VPT2 properties, NMR spectrum      
  Ute Becker             : All parallelization in ORCA, NUMFREQ, NUMCALC 
  Giovanni Bistoni       : ED, misc. LED, open-shell LED, HFLD           
  Martin Brehm           : Molecular dynamics                            
  Dmytro Bykov           : pre 5.0 version of the SCF Hessian            
  Marcos Casanova-Páez   : Triplet and SCS-CIS(D). UHF-(DLPNO)-IP/EA/STEOM-CCSD. UHF-CVS-IP/STEOM-CCSD   
  Vijay G. Chilkuri      : MRCI spin determinant printing, contributions to CSF-ICE 
  Pauline Colinet        : FMM embedding                                 
  Dipayan Datta          : RHF DLPNO-CCSD density                        
  Achintya Kumar Dutta   : EOM-CC, STEOM-CC                              
  Nicolas Foglia         : Exact transition moments, OPA infrastructure, MCD improvements    
  Dmitry Ganyushin       : Spin-Orbit,Spin-Spin,Magnetic field MRCI      
  Miquel Garcia-Rates    : C-PCM and meta-GGA Hessian, CCSD/C-PCM, Gaussian charge scheme 
  Tiago L. C. Gouveia    : GS-ROHF, GS-ROCIS                             
  Yang Guo               : DLPNO-NEVPT2, F12-NEVPT2, CIM, IAO-localization        
  Andreas Hansen         : Spin unrestricted coupled pair/coupled cluster methods 
  Ingolf Harden          : AUTO-CI MPn and infrastructure                
  Benjamin Helmich-Paris : MC-RPA, TRAH-(SCF,CASSCF), AVAS, COSX integrals, SCF dyn. polar. 
  Lee Huntington         : MR-EOM, pCC                                   
  Robert Izsak           : Overlap fitted RIJCOSX, COSX-SCS-MP3, EOM     
  Riya Kayal             : Wick's Theorem for AUTO-CI, AUTO-CI UHF-CCSDT 
  Emily Kempfer          : AUTO-CI, RHF CISDT and CCSDT                  
  Christian Kollmar      : KDIIS, OOCD, Brueckner-CCSD(T), CCSD density, CASPT2, CASPT2-K, improved NEVPT2 
  Axel Koslowski         : Symmetry handling                             
  Simone Kossmann        : meta-GGA functionals, TD-DFT gradient, OOMP2, (MP2 Hessian; deprecated post 5.0) 
  Lucas Lang             : DCDCAS                                        
  Marvin Lechner         : AUTO-CI (C++ implementation), FIC-MRCC        
  Spencer Leger          : CASSCF response                               
  Dagmar Lenk            : GEPOL surface, SMD, ORCA-2-JSON               
  Dimitrios Liakos       : Extrapolation schemes; Compound Job, initial MDCI parallelization 
  Dimitrios Manganas     : Further ROCIS development; embedding schemes. LFT, Crystal Embedding 
  Dimitrios Pantazis     : SARC Basis sets                               
  Anastasios Papadopoulos: AUTO-CI, single reference methods and gradients 
  Taras Petrenko         : pre 6.0 DFT Hessian and TD-DFT gradient, (ASA, deprecated), ECA, 1-Electron XAS/XES, NRVS 
  Peter Pinski           : DLPNO-MP2, DLPNO-MP2 Gradient                 
  Christoph Reimann      : Effective Core Potentials                     
  Marius Retegan         : Local ZFS, SOC                                
  Christoph Riplinger    : Optimizer, TS searches, QM/MM, DLPNO-CCSD(T), (RO)-DLPNO pert. Triples 
  Michael Roemelt        : Original ROCIS implementation                 
  Masaaki Saitow         : Open-shell DLPNO-CCSD energy and density      
  Barbara Sandhoefer     : DKH picture change effects                    
  Kantharuban Sivalingam : CASSCF convergence/infrastructure, NEVPT2 and variants, FIC-MRCI 
  Bernardo de Souza      : ESD, SOC TD-DFT                               
  Georgi L. Stoychev     : AutoAux, RI-MP2 NMR, DLPNO-MP2 response, X2C  
  Van Anh Tran           : RI-MP2 g-tensors                              
  Willem Van den Heuvel  : Paramagnetic NMR                              
  Zikuan Wang            : NOTCH, Electric field optimization            
  Frank Wennmohs         : Technical directorship and infrastructure     
  Hang Xu                : AUTO-CI-Response properties                   
                                                                         
[FACCTs GmbH]                                                            
  Markus Bursch, Miquel Garcia-Rates, Christoph Riplinger, Bernardo de Souza, Georgi L. Stoychev 
                                                                 
  APM, Basis sets (HGBS, AHGBS, def-TZVP (Ac-Lr), def2-XVPD (La-Lu)), CI-OPT, improved COSX, DLPNO-Multilevel,           
  DOCKER, DRACO, updates on ESD, GOAT, IRC, LR-CPCM, MBIS, meta-GGA TD-DFT gradient, ML-optimized integration grids, 
  MM, NACMEs, nearIR, NEB, NEB-TS, NL-DFT gradient (VV10), 2- and 3-layer-ONIOM, interface openCOSMO-RS, QMMM,   
  Crystal-QMMM, SF, symmetry and pop. for TD-DFT, r2SCAN hybrids, SOLVATOR                                   
                                                                         
[Other institutions]                                                     
  V. Asgeirsson          : NEB                                           
  Christoph Bannwarth    : sTDA-DFT, sTD-DFT, PBEh-3c, B97-3c, D3        
  Sebastian Ehlert       : rSCAN, r2SCAN, r2SCAN-3c, D4, dhf basis sets  
  Marvin Friede          : D4 for Fr, Ra, Ac-Lr                          
  Lars Goerigk           : TD-DFT with DH, B97 family of functionals     
  Stefan Grimme          : VdW corrections, initial TS optimization, DFT functionals, gCP, sTDA/sTD-DF 
  Waldemar Hujo          : DFT-NL                                        
  H. Jonsson             : NEB                                           
  Holger Kruse           : gCP                                           
  Marcel Mueller         : wB97X-3c, vDZP basis set                      
  Hagen Neugebauer       : wr2SCAN                                       
  Tobias Risthaus        : range-separated hybrid DFT                    
  Lukas Wittmann         : regularized MP2, r2SCAN double-hybrids, wr2SCAN        
                                                                         
We gratefully acknowledge several colleagues who have allowed us to      
interface, adapt or use parts of their codes:                            
  Ed Valeev, F. Pavosevic, A. Kumar             : LibInt (2-el integral package), F12 methods 
  Garnet Chan, S. Sharma, J. Yang, R. Olivares  : DMRG                   
  Ulf Ekstrom                                   : XCFun DFT Library      
  Mihaly Kallay                                 : mrcc  (arbitrary order and MRCC methods)
  Frank Weinhold                                : gennbo (NPA and NBO analysis)           
  Simon Mueller                                 : openCOSMO-RS                            
  Christopher J. Cramer and Donald G. Truhlar   : smd solvation model                     
  S Lehtola, MJT Oliveira, MAL Marques          : LibXC Library                           
  Liviu Ungur et al                             : ANISO software                          


 Your calculation uses the libint2 library for the computation of 2-el integrals
 For citations please refer to: http://libint.valeyev.net

 Your ORCA version has been built with support for libXC version: 6.2.2
 For citations please refer to: https://libxc.gitlab.io

 This ORCA versions uses:
   CBLAS   interface :  Fast vector & matrix operations
   LAPACKE interface :  Fast linear algebra routines
   SCALAPACK package :  Parallel linear algebra routines
   Shared memory     :  Shared parallel matrices
   BLAS/LAPACK       :  OpenBLAS 0.3.27  USE64BITINT DYNAMIC_ARCH NO_AFFINITY SkylakeX SINGLE_THREADED
        Core in use  :  SkylakeX
   Copyright (c) 2011-2014, The OpenBLAS Project


NOTE: MaxCore=8000 MB was set to SCF,MP2,MDCI,CIPSI,MRCI and CIS
      => If you want to overwrite this, your respective input block should be placed after the MaxCore statement
Your calculation utilizes the atom-pairwise dispersion correction
with the Becke-Johnson damping scheme (D3BJ)


Your calculation utilizes the SMD solvation module
Please cite in your paper:
A.V. Marenich, C.J. Cramer, D.G. Truhlar J. Phys. Chem. B, 113, (2009), 6378 

Warning: RI is on but no J-basis has been assigned. Assigning Def2/J (nothing to worry about!)
================================================================================

----- Orbital basis set information -----
Your calculation utilizes the basis: def2-TZVP
   F. Weigend and R. Ahlrichs, Phys. Chem. Chem. Phys. 7, 3297 (2005).

----- AuxJ basis set information -----
Your calculation utilizes the auxiliary basis: def2/J
   F. Weigend, Phys. Chem. Chem. Phys. 8, 1057 (2006).

================================================================================
                                        WARNINGS
                       Please study these warnings very carefully!
================================================================================



WARNING: SCAN, rSCAN, or r2SCAN functional requested.
  ===> : libXC variant has now been activated.



================================================================================
                                       INPUT FILE
================================================================================
NAME = rf_mecn_freq_r2s_D_B.inp
|  1> !r2scanh def2-TZVP freq d3 TightSCF SlowConv defgrid2
|  2>  
|  3> %pal
|  4> nprocs 20
|  5> end
|  6>  
|  7> %scf
|  8> MaxIter 1500
|  9> end
| 10>  
| 11> %maxcore 8000
| 12>  
| 13> !CPCM
| 14> %cpcm smd true
| 15> SMDsolvent "ACETONITRILE"
| 16> end
| 17>  
| 18> * xyz -1 1
| 19> 6        4.777456000      0.107992000     -0.411338000
| 20> 8        5.358632000     -0.764232000     -1.063863000
| 21> 8        5.015713000      1.311465000     -0.238711000
| 22> 6        3.486833000     -0.369723000      0.352071000
| 23> 6        2.203596000      0.299417000     -0.192376000
| 24> 6        0.883313000     -0.438856000      0.176023000
| 25> 6       -0.386015000      0.451788000      0.020064000
| 26> 6       -1.704180000     -0.376729000     -0.056452000
| 27> 6       -2.969297000      0.471581000      0.264562000
| 28> 6       -4.293126000     -0.165508000     -0.239690000
| 29> 9        3.305397000     -1.714537000      0.268441000
| 30> 9        3.581359000     -0.073390000      1.677295000
| 31> 9        2.115652000      1.560328000      0.269607000
| 32> 9        2.283897000      0.342701000     -1.539223000
| 33> 9        0.745160000     -1.514882000     -0.617948000
| 34> 9        0.946267000     -0.847860000      1.453761000
| 35> 9       -0.462789000      1.282556000      1.072027000
| 36> 9       -0.283242000      1.179059000     -1.102641000
| 37> 9       -1.645208000     -1.388110000      0.823403000
| 38> 9       -1.823082000     -0.885618000     -1.292360000
| 39> 9       -2.858370000      1.682195000     -0.303686000
| 40> 9       -3.064865000      0.619677000      1.591956000
| 41> 9       -4.362491000     -1.441520000      0.124610000
| 42> 9       -5.314885000      0.490207000      0.297745000
| 43> 9       -4.384319000     -0.084445000     -1.559733000
| 44> *
| 45> 
| 46>                          ****END OF INPUT****
================================================================================

                       ****************************
                       * Single Point Calculation *
                       ****************************

---------------------------------
CARTESIAN COORDINATES (ANGSTROEM)
---------------------------------
  C      4.777456    0.107992   -0.411338
  O      5.358632   -0.764232   -1.063863
  O      5.015713    1.311465   -0.238711
  C      3.486833   -0.369723    0.352071
  C      2.203596    0.299417   -0.192376
  C      0.883313   -0.438856    0.176023
  C     -0.386015    0.451788    0.020064
  C     -1.704180   -0.376729   -0.056452
  C     -2.969297    0.471581    0.264562
  C     -4.293126   -0.165508   -0.239690
  F      3.305397   -1.714537    0.268441
  F      3.581359   -0.073390    1.677295
  F      2.115652    1.560328    0.269607
  F      2.283897    0.342701   -1.539223
  F      0.745160   -1.514882   -0.617948
  F      0.946267   -0.847860    1.453761
  F     -0.462789    1.282556    1.072027
  F     -0.283242    1.179059   -1.102641
  F     -1.645208   -1.388110    0.823403
  F     -1.823082   -0.885618   -1.292360
  F     -2.858370    1.682195   -0.303686
  F     -3.064865    0.619677    1.591956
  F     -4.362491   -1.441520    0.124610
  F     -5.314885    0.490207    0.297745
  F     -4.384319   -0.084445   -1.559733

----------------------------
CARTESIAN COORDINATES (A.U.)
----------------------------
  NO LB      ZA    FRAG     MASS         X           Y           Z
   0 C     6.0000    0    12.011    9.028083    0.204075   -0.777316
   1 O     8.0000    0    15.999   10.126347   -1.444189   -2.010410
   2 O     8.0000    0    15.999    9.478324    2.478310   -0.451098
   3 C     6.0000    0    12.011    6.589159   -0.698675    0.665318
   4 C     6.0000    0    12.011    4.164193    0.565816   -0.363538
   5 C     6.0000    0    12.011    1.669220   -0.829318    0.332635
   6 C     6.0000    0    12.011   -0.729463    0.853756    0.037915
   7 C     6.0000    0    12.011   -3.220433   -0.711915   -0.106679
   8 C     6.0000    0    12.011   -5.611158    0.891159    0.499950
   9 C     6.0000    0    12.011   -8.112832   -0.312765   -0.452948
  10 F     9.0000    0    18.998    6.246295   -3.240005    0.507280
  11 F     9.0000    0    18.998    6.767788   -0.138687    3.169628
  12 F     9.0000    0    18.998    3.998003    2.948593    0.509483
  13 F     9.0000    0    18.998    4.315940    0.647611   -2.908710
  14 F     9.0000    0    18.998    1.408148   -2.862712   -1.167752
  15 F     9.0000    0    18.998    1.788185   -1.602223    2.747210
  16 F     9.0000    0    18.998   -0.874544    2.423680    2.025837
  17 F     9.0000    0    18.998   -0.535250    2.228099   -2.083690
  18 F     9.0000    0    18.998   -3.108993   -2.623148    1.556006
  19 F     9.0000    0    18.998   -3.445126   -1.673575   -2.442206
  20 F     9.0000    0    18.998   -5.401536    3.178888   -0.573883
  21 F     9.0000    0    18.998   -5.791755    1.171020    3.008361
  22 F     9.0000    0    18.998   -8.243913   -2.724078    0.235479
  23 F     9.0000    0    18.998  -10.043677    0.926357    0.562657
  24 F     9.0000    0    18.998   -8.285162   -0.159578   -2.947468

--------------------------------
INTERNAL COORDINATES (ANGSTROEM)
--------------------------------
 C      0   0   0     0.000000000000     0.00000000     0.00000000
 O      1   0   0     1.234637244205     0.00000000     0.00000000
 O      1   2   0     1.238916357510   132.01824022     0.00000000
 C      1   2   3     1.573757494227   115.33860356   179.84409455
 C      4   1   2     1.546243212945   112.23659906   245.39411797
 C      5   4   1     1.556891790016   114.53529901   161.18137226
 C      6   5   4     1.558449073920   113.32962499   161.91155506
 C      7   6   5     1.558798923778   112.94868525   161.77038318
 C      8   7   6     1.556663376580   112.79781395   160.79218842
 C      9   8   7     1.553279013785   113.71539973   161.15969212
 F      4   1   2     1.359572614314   112.32491446     6.26883368
 F      4   1   2     1.361237327486   110.43986071   125.03507638
 F      5   4   1     1.345755917448   109.80542920   282.77148675
 F      5   4   1     1.349932811908   108.40991397    41.08154004
 F      6   5   4     1.344361615387   109.08344339   282.69293477
 F      6   5   4     1.343079251115   109.25476560    41.56185431
 F      7   6   5     1.342645102128   108.77061143   282.41784754
 F      7   6   5     1.341622865784   109.33852026    41.27485896
 F      8   7   6     1.341832346074   109.34554937    40.43471192
 F      8   7   6     1.341854792587   108.76658481   281.76845451
 F      9   8   7     1.341937720548   109.70149188    40.57392457
 F      9   8   7     1.339044621764   108.82625148   281.37741067
 F     10   9   8     1.328808721137   110.44754755    48.81958381
 F     10   9   8     1.327701018502   108.77879263   168.22523518
 F     10   9   8     1.325669979696   110.90423210   287.67068650

---------------------------
INTERNAL COORDINATES (A.U.)
---------------------------
 C      0   0   0     0.000000000000     0.00000000     0.00000000
 O      1   0   0     2.333126266286     0.00000000     0.00000000
 O      1   2   0     2.341212618530   132.01824022     0.00000000
 C      1   2   3     2.973970665295   115.33860356   179.84409455
 C      4   1   2     2.921976208900   112.23659906   245.39411797
 C      5   4   1     2.942099103281   114.53529901   161.18137226
 C      6   5   4     2.945041943371   113.32962499   161.91155506
 C      7   6   5     2.945703063791   112.94868525   161.77038318
 C      8   7   6     2.941667464441   112.79781395   160.79218842
 C      9   8   7     2.935271945622   113.71539973   161.15969212
 F      4   1   2     2.569219900232   112.32491446     6.26883368
 F      4   1   2     2.572365752219   110.43986071   125.03507638
 F      5   4   1     2.543110127080   109.80542920   282.77148675
 F      5   4   1     2.551003313700   108.40991397    41.08154004
 F      6   5   4     2.540475278037   109.08344339   282.69293477
 F      6   5   4     2.538051960760   109.25476560    41.56185431
 F      7   6   5     2.537231538073   108.77061143   282.41784754
 F      7   6   5     2.535299791339   109.33852026    41.27485896
 F      8   7   6     2.535695651717   109.34554937    40.43471192
 F      8   7   6     2.535738069479   108.76658481   281.76845451
 F      9   8   7     2.535894780614   109.70149188    40.57392457
 F      9   8   7     2.530427616235   108.82625148   281.37741067
 F     10   9   8     2.511084567315   110.44754755    48.81958381
 F     10   9   8     2.508991312697   108.77879263   168.22523518
 F     10   9   8     2.505153205586   110.90423210   287.67068650

---------------------
BASIS SET INFORMATION
---------------------
There are 3 groups of distinct atoms

 Group   1 Type C   : 11s6p2d1f contracted to 5s3p2d1f pattern {62111/411/11/1}
 Group   2 Type O   : 11s6p2d1f contracted to 5s3p2d1f pattern {62111/411/11/1}
 Group   3 Type F   : 11s6p2d1f contracted to 5s3p2d1f pattern {62111/411/11/1}

Atom   0C    basis set group =>   1
Atom   1O    basis set group =>   2
Atom   2O    basis set group =>   2
Atom   3C    basis set group =>   1
Atom   4C    basis set group =>   1
Atom   5C    basis set group =>   1
Atom   6C    basis set group =>   1
Atom   7C    basis set group =>   1
Atom   8C    basis set group =>   1
Atom   9C    basis set group =>   1
Atom  10F    basis set group =>   3
Atom  11F    basis set group =>   3
Atom  12F    basis set group =>   3
Atom  13F    basis set group =>   3
Atom  14F    basis set group =>   3
Atom  15F    basis set group =>   3
Atom  16F    basis set group =>   3
Atom  17F    basis set group =>   3
Atom  18F    basis set group =>   3
Atom  19F    basis set group =>   3
Atom  20F    basis set group =>   3
Atom  21F    basis set group =>   3
Atom  22F    basis set group =>   3
Atom  23F    basis set group =>   3
Atom  24F    basis set group =>   3
---------------------------------
AUXILIARY/J BASIS SET INFORMATION
---------------------------------
There are 3 groups of distinct atoms

 Group   1 Type C   : 12s5p4d2f1g contracted to 6s4p3d1f1g pattern {711111/2111/211/2/1}
 Group   2 Type O   : 12s5p4d2f1g contracted to 6s4p3d1f1g pattern {711111/2111/211/2/1}
 Group   3 Type F   : 12s5p4d2f1g contracted to 6s4p3d1f1g pattern {711111/2111/211/2/1}

Atom   0C    basis set group =>   1
Atom   1O    basis set group =>   2
Atom   2O    basis set group =>   2
Atom   3C    basis set group =>   1
Atom   4C    basis set group =>   1
Atom   5C    basis set group =>   1
Atom   6C    basis set group =>   1
Atom   7C    basis set group =>   1
Atom   8C    basis set group =>   1
Atom   9C    basis set group =>   1
Atom  10F    basis set group =>   3
Atom  11F    basis set group =>   3
Atom  12F    basis set group =>   3
Atom  13F    basis set group =>   3
Atom  14F    basis set group =>   3
Atom  15F    basis set group =>   3
Atom  16F    basis set group =>   3
Atom  17F    basis set group =>   3
Atom  18F    basis set group =>   3
Atom  19F    basis set group =>   3
Atom  20F    basis set group =>   3
Atom  21F    basis set group =>   3
Atom  22F    basis set group =>   3
Atom  23F    basis set group =>   3
Atom  24F    basis set group =>   3


           ************************************************************
           *        Program running with 20 parallel MPI-processes    *
           *              working on a common directory               *
           ************************************************************
------------------------------------------------------------------------------
                             ORCA STARTUP CALCULATIONS
                           -- RI-GTO INTEGRALS CHOSEN --
------------------------------------------------------------------------------
------------------------------------------------------------------------------
                   ___                                                        
                  /   \      - P O W E R E D   B Y -                         
                 /     \                                                     
                 |  |  |   _    _      __       _____    __    __             
                 |  |  |  | |  | |    /  \     |  _  \  |  |  /  |          
                  \  \/   | |  | |   /    \    | | | |  |  | /  /          
                 / \  \   | |__| |  /  /\  \   | |_| |  |  |/  /          
                |  |  |   |  __  | /  /__\  \  |    /   |      \           
                |  |  |   | |  | | |   __   |  |    \   |  |\   \          
                \     /   | |  | | |  |  |  |  | |\  \  |  | \   \       
                 \___/    |_|  |_| |__|  |__|  |_| \__\ |__|  \__/        
                                                                              
                      - O R C A' S   B I G   F R I E N D -                    
                                      &                                       
                       - I N T E G R A L  F E E D E R -                       
                                                                              
 v1 FN, 2020, v2 2021, v3 2022-2024                                           
------------------------------------------------------------------------------


----------------------
SHARK INTEGRAL PACKAGE
----------------------

Number of atoms                             ...     25
Number of basis functions                   ...    775
Number of shells                            ...    275
Maximum angular momentum                    ...      3
Integral batch strategy                     ... SHARK/LIBINT Hybrid
RI-J (if used) integral strategy            ... SPLIT-RIJ (Revised 2003 algorithm where possible)
Printlevel                                  ...      1
Contraction scheme used                     ... SEGMENTED contraction
Prescreening option                         ... SCHWARTZ
   Thresh                                   ... 2.500e-11
   Tcut                                     ... 2.500e-12
   Tpresel                                  ... 2.500e-12 
Coulomb Range Separation                    ... NOT USED
Exchange Range Separation                   ... NOT USED
Multipole approximations                    ... NOT USED
Finite Nucleus Model                        ... NOT USED
CABS basis                                  ... NOT available
Auxiliary Coulomb fitting basis             ... AVAILABLE
   # of basis functions in Aux-J            ...   1225
   # of shells in Aux-J                     ...    375
   Maximum angular momentum in Aux-J        ...      4
Auxiliary J/K fitting basis                 ... NOT available
Auxiliary Correlation fitting basis         ... NOT available
Auxiliary 'external' fitting basis          ... NOT available

Checking pre-screening integrals            ... done (  0.0 sec) Dimension = 275
Check shell pair data                       ... done (  0.0 sec)
Shell pair information
Shell pair cut-off parameter TPreSel        ...   2.5e-12
Total number of shell pairs                 ...     37950
Shell pairs after pre-screening             ...     23536
Total number of primitive shell pairs       ...    125800
Primitive shell pairs kept                  ...     49938
          la=0 lb=0:   4387 shell pairs
          la=1 lb=0:   6404 shell pairs
          la=1 lb=1:   2241 shell pairs
          la=2 lb=0:   3496 shell pairs
          la=2 lb=1:   2592 shell pairs
          la=2 lb=2:    730 shell pairs
          la=3 lb=0:   1603 shell pairs
          la=3 lb=1:   1247 shell pairs
          la=3 lb=2:    675 shell pairs
          la=3 lb=3:    161 shell pairs

Calculating one electron integrals          ... done (  0.0 sec)
Calculating RI/J V-Matrix + Cholesky decomp.... done (  0.1 sec)
Calculating Nuclear repulsion               ... done (  0.0 sec) ENN=   2894.735225369664 Eh

Diagonalization of the overlap matrix:
Smallest eigenvalue                        ... 5.432e-05
Time for diagonalization                   ...    0.153 sec
Threshold for overlap eigenvalues          ... 1.000e-07
Number of eigenvalues below threshold      ... 0
Time for construction of square roots      ...    0.061 sec
Total time needed                          ...    0.222 sec

-------------------
DFT GRID GENERATION
-------------------

General Integration Accuracy     IntAcc      ... 4.388
Radial Grid Type                 RadialGrid  ... OptM3 with GC (2021)
Angular Grid (max. ang.)         AngularGrid ... 4 (Lebedev-302)
Angular grid pruning method      GridPruning ... 4 (adaptive)
Weight generation scheme         WeightScheme... mBecke (2022)
Basis function cutoff            BFCut       ... 1.0000e-11
Integration weight cutoff        WCut        ... 1.0000e-14
Partially contracted basis set               ... off
Rotationally invariant grid construction     ... off
Angular grids for H and He will be reduced by one unit

Total number of grid points                  ...   151412
Total number of batches                      ...     2376
Average number of points per batch           ...       63
Average number of grid points per atom       ...     6056

--------------------
COSX GRID GENERATION
--------------------

GRIDX 1
-------
General Integration Accuracy     IntAcc      ... 3.816
Radial Grid Type                 RadialGrid  ... OptM3 with GC (2021)
Angular Grid (max. ang.)         AngularGrid ... 1 (Lebedev-50)
Angular grid pruning method      GridPruning ... 4 (adaptive)
Weight generation scheme         WeightScheme... mBecke (2022)
Basis function cutoff            BFCut       ... 1.0000e-11
Integration weight cutoff        WCut        ... 1.0000e-14
Partially contracted basis set               ... on
Rotationally invariant grid construction     ... off
Angular grids for H and He will be reduced by one unit

Total number of grid points                  ...    19018
Total number of batches                      ...      159
Average number of points per batch           ...      119
Average number of grid points per atom       ...      761
UseSFitting                                  ... on

GRIDX 2
-------
General Integration Accuracy     IntAcc      ... 4.020
Radial Grid Type                 RadialGrid  ... OptM3 with GC (2021)
Angular Grid (max. ang.)         AngularGrid ... 2 (Lebedev-110)
Angular grid pruning method      GridPruning ... 4 (adaptive)
Weight generation scheme         WeightScheme... mBecke (2022)
Basis function cutoff            BFCut       ... 1.0000e-11
Integration weight cutoff        WCut        ... 1.0000e-14
Partially contracted basis set               ... on
Rotationally invariant grid construction     ... off
Angular grids for H and He will be reduced by one unit

Total number of grid points                  ...    45039
Total number of batches                      ...      365
Average number of points per batch           ...      123
Average number of grid points per atom       ...     1802
UseSFitting                                  ... on

GRIDX 3
-------
General Integration Accuracy     IntAcc      ... 4.338
Radial Grid Type                 RadialGrid  ... OptM3 with GC (2021)
Angular Grid (max. ang.)         AngularGrid ... 3 (Lebedev-194)
Angular grid pruning method      GridPruning ... 4 (adaptive)
Weight generation scheme         WeightScheme... mBecke (2022)
Basis function cutoff            BFCut       ... 1.0000e-11
Integration weight cutoff        WCut        ... 1.0000e-14
Partially contracted basis set               ... on
Rotationally invariant grid construction     ... off
Angular grids for H and He will be reduced by one unit

Total number of grid points                  ...    99778
Total number of batches                      ...      792
Average number of points per batch           ...      125
Average number of grid points per atom       ...     3991
UseSFitting                                  ... on
Initializing property integral containers    ... done (  0.0 sec)

SHARK setup successfully completed in   4.0 seconds

Maximum memory used throughout the entire STARTUP-calculation: 59.6 MB


           ************************************************************
           *        Program running with 20 parallel MPI-processes    *
           *              working on a common directory               *
           ************************************************************
-------------------------------------------------------------------------------
                                 ORCA GUESS
                   Start orbitals & Density for SCF / CASSCF
-------------------------------------------------------------------------------

------------
SCF SETTINGS
------------
Hamiltonian:
 Density Functional     Method          .... DFT(GTOs)
  Functional kind                       .... Exchange
  Functional name                       .... Re-regularized SCAN exchange by Furness et al
  Functional family                     .... MGGA
  Functional refs                              
    [ 0] J. W. Furness, A. D. Kaplan, J. Ning, J. P. Perdew, and J. Sun.,  J. Phys. Chem. Lett. 11, 8208-8215 (2020), doi: 10.1021/acs.jpclett.0c02405
    [ 1] J. W. Furness, A. D. Kaplan, J. Ning, J. P. Perdew, and J. Sun.,  J. Phys. Chem. Lett. 11, 9248-9248 (2020), doi: 10.1021/acs.jpclett.0c03077
  Functional external parameters        .... 6
    Parameter  0 _c1        =  6.670000e-01 : c1 parameter        
    Parameter  1 _c2        =  8.000000e-01 : c2 parameter        
    Parameter  2 _d         =  1.240000e+00 : d parameter         
    Parameter  3 _k1        =  6.500000e-02 : k1 parameter        
    Parameter  4 _eta       =  1.000000e-03 : eta parameter       
    Parameter  5 _dp2       =  3.610000e-01 : dp2 parameter       
  Functional kind                       .... Correlation
  Functional name                       .... Re-regularized SCAN correlation by Furness et al
  Functional family                     .... MGGA
  Functional refs                              
    [ 0] J. W. Furness, A. D. Kaplan, J. Ning, J. P. Perdew, and J. Sun.,  J. Phys. Chem. Lett. 11, 8208-8215 (2020), doi: 10.1021/acs.jpclett.0c02405
    [ 1] J. W. Furness, A. D. Kaplan, J. Ning, J. P. Perdew, and J. Sun.,  J. Phys. Chem. Lett. 11, 9248-9248 (2020), doi: 10.1021/acs.jpclett.0c03077
  Functional external parameters        .... 1
    Parameter  0 _eta       =  1.000000e-03 : Regularization parameter
 Gradients option       PostSCFGGA      .... off
 Hybrid DFT is turned on
   Fraction HF Exchange ScalHFX         ....  0.100000
   Scaling of DF-GGA-X  ScalDFX         ....  0.900000
   Scaling of DF-GGA-C  ScalDFC         ....  1.000000
   Scaling of DF-LDA-C  ScalLDAC        ....  1.000000
   Perturbative correction              ....  0.000000
   NL short-range parameter             .... 11.900000
 RI-approximation to the Coulomb term is turned on
   Number of AuxJ basis functions       .... 1225
   RIJ-COSX (HFX calculated with COS-X)).... on


General Settings:
 Integral files         IntName         .... rf_mecn_freq_r2s_D_B
 Hartree-Fock type      HFTyp           .... RHF
 Total Charge           Charge          ....   -1
 Multiplicity           Mult            ....    1
 Number of Electrons    NEL             ....  200
 Basis Dimension        Dim             ....  775
 Nuclear Repulsion      ENuc            ....   2894.7352253697 Eh

Convergence Acceleration:
 AO-DIIS                CNVDIIS         .... on
   Start iteration      DIISMaxIt       ....     0
   Startup error        DIISStart       ....  0.200000
   # of expansion vecs  DIISMaxEq       ....     5
   Bias factor          DIISBfac        ....   1.050
   Max. coefficient     DIISMaxC        ....  10.000
 MO-DIIS                CNVKDIIS        .... off
 Trust-Rad. Augm. Hess. CNVTRAH         .... auto
   Auto Start mean grad. ratio tolernc. ....  1.125000
   Auto Start start iteration           ....    50
   Auto Start num. interpolation iter.  ....    10
   Max. Number of Micro iterations      ....    24
   Max. Number of Macro iterations      .... Maxiter - #DIIS iter
   Number of Davidson start vectors     ....     2
   Converg. threshold    (grad. norm)   ....   1.000e-05
   Grad. Scal. Fac. for Micro threshold ....   0.100
   Minimum threshold for Micro iter.    ....   1.000e-02
   NR start threshold (gradient norm)   ....   1.000e-04
   Initial trust radius                 ....   0.400
   Minimum AH scaling param. (alpha)    ....   1.000
   Maximum AH scaling param. (alpha)    .... 1000.000
   Quad. conv. algorithm                .... NR
   White noise on init. David. guess    .... on
   Maximum white noise                  ....   0.010
   Pseudo random numbers                .... off
   Inactive MOs                         .... canonical
   Orbital update algorithm             .... Taylor
   Preconditioner                       .... Diag
   Full preconditioner red. dimension   ....   250
 SOSCF                  CNVSOSCF        .... on
   Start iteration      SOSCFMaxIt      ....   150
   Startup grad/error   SOSCFStart      ....  0.001000
   Hessian update       SOSCFHessUp     .... L-BFGS
 Level Shifting         CNVShift        .... on
   Level shift para.    LevelShift      ....    0.2500
   Turn off err/grad.   ShiftErr        ....    0.0000
 Zerner damping         CNVZerner       .... off
 Static damping         CNVDamp         .... on
   Fraction old density DampFac         ....    0.8500
   Max. Damping (<1)    DampMax         ....    0.9800
   Min. Damping (>=0)   DampMin         ....    0.0000
   Turn off err/grad.   DampErr         ....    0.0300

SCF Procedure:
 Maximum # iterations   MaxIter         ....  1500
 SCF integral mode      SCFMode         .... Direct
   Integral package                     .... SHARK and LIBINT hybrid scheme
 Reset frequency        DirectResetFreq ....    20
 Integral Threshold     Thresh          ....  2.500e-11 Eh
 Primitive CutOff       TCut            ....  2.500e-12 Eh

Convergence Tolerance:
 Convergence Check Mode ConvCheckMode   .... Total+1el-Energy
 Convergence forced     ConvForced      .... 0
 Energy Change          TolE            ....  1.000e-08 Eh
 1-El. energy change                    ....  1.000e-05 Eh
 Orbital Gradient       TolG            ....  1.000e-05
 Orbital Rotation angle TolX            ....  1.000e-05
 DIIS Error             TolErr          ....  5.000e-07

------------------------------
INITIAL GUESS: MODEL POTENTIAL
------------------------------
Loading Hartree-Fock densities                     ... done
Calculating cut-offs                               ... done
Initializing the effective Hamiltonian             ... done
Setting up the integral package (SHARK)            ... done
Starting the Coulomb interaction                   ... done (   0.2 sec)
Making the grid                                    ... done (   0.4 sec)
Mapping shells                                     ... done
Starting the XC term evaluation                    ... done (   0.2 sec)
  promolecular density results
     # of electrons  =    198.999312642
     EX              =   -207.281509616
     EC              =     -7.012590073
     EX+EC           =   -214.294099689
Transforming the Hamiltonian                       ... done (   0.1 sec)
Diagonalizing the Hamiltonian                      ... done (   0.2 sec)
Back transforming the eigenvectors                 ... done (   0.0 sec)
Now organizing SCF variables                       ... done
                      ------------------
                      INITIAL GUESS DONE (   1.2 sec)
                      ------------------
             **** ENERGY FILE WAS UPDATED (rf_mecn_freq_r2s_D_B.en.tmp) ****
Finished Guess after   2.0 sec
Maximum memory used throughout the entire GUESS-calculation: 48.8 MB


           ************************************************************
           *        Program running with 20 parallel MPI-processes    *
           *              working on a common directory               *
           ************************************************************

-------------------------------------------------------------------------------------------
                                      ORCA LEAN-SCF
                              memory conserving SCF solver
-------------------------------------------------------------------------------------------

--------------------
CPCM SOLVATION MODEL
--------------------
CPCM parameters:
  Epsilon                                         ...      35.6880
  Refrac                                          ...       1.3442
  Rsolv                                           ...       1.3000
  Surface type                                    ... GAUSSIAN VDW
  Discretization scheme                           ... Constant charge density
    Threshold for H atoms                         ...       5.0000 (charges/Ang^2)
    Threshold for non-H atoms                     ...       5.0000 (charges/Ang^2)
  Epsilon function type                           ...         CPCM
Solvent:                                          ... ACETONITRILE
SMD-CDS solvent descriptors:
  Soln                                            ...       1.3442
  Soln25                                          ...       1.3416
  Sola                                            ...       0.0700
  Solb                                            ...       0.3200
  Solg                                            ...      41.2500
  Solc                                            ...       0.0000
  Solh                                            ...       0.0000
Radii:
  Scheme                                          ... Element-dependent radii
  Radius for C  used is    3.4960 Bohr (=   1.8500 Ang.)
  Radius for O  used is    4.0969 Bohr (=   2.1680 Ang.)
  Radius for F  used is    3.2692 Bohr (=   1.7300 Ang.)
Calculating surface                               ...        done! (  0.0s)
Cavity surface points                             ...         2122
Cavity Volume                                     ...    2148.4438
Cavity Surface-area                               ...    1105.6739
Calculating surface distance matrix               ...        done! (  0.0s)
Performing Cholesky decomposition & store         ...        done! (  0.1s)
Overall time for CPCM initialization              ...                 0.1s

----------------------------------------D-I-I-S--------------------------------------------
Iteration    Energy (Eh)           Delta-E    RMSDP     MaxDP     DIISErr   Damp  Time(sec)
-------------------------------------------------------------------------------------------
               ***  Starting incremental Fock matrix formation  ***
    1    -1952.5572422052719048     0.00e+00  5.14e-04  6.63e-02  3.12e-01  0.850   7.1
Warning: op=0 Small HOMO/LUMO gap (   0.037) - skipping pre-diagonalization
         Will do a full diagonalization
    2    -1952.6950636353285518    -1.38e-01  6.69e-04  1.36e-01  2.20e-01  0.850   4.5
                               ***Turning on AO-DIIS***
    3    -1952.7712876603372933    -7.62e-02  3.49e-04  6.72e-02  1.37e-01  0.850   4.1
    4    -1952.8175458033119867    -4.63e-02  1.94e-04  2.81e-02  1.03e-01  0.850   4.0
    5    -1952.8506136156820503    -3.31e-02  1.25e-04  9.27e-03  8.50e-02  0.850   3.7
    6    -1952.8768201283119197    -2.62e-02  9.61e-05  7.68e-03  7.28e-02  0.850   4.0
    7    -1952.8985946495931785    -2.18e-02  8.33e-05  7.00e-03  6.26e-02  0.850   3.7
    8    -1952.9169742119338480    -1.84e-02  7.29e-05  6.09e-03  5.28e-02  0.850   3.7
    9    -1952.9322984754380741    -1.53e-02  6.22e-05  5.18e-03  4.40e-02  0.850   3.6
   10    -1952.9450072249928780    -1.27e-02  5.24e-05  4.40e-03  3.66e-02  0.850   3.5
   11    -1952.9555859636029709    -1.06e-02  4.41e-05  3.76e-03  3.06e-02  0.850   3.5
   12    -1952.9644378555140065    -8.85e-03  3.74e-05  3.24e-03  2.57e-02  0.850   3.8
   13    -1952.9718724597223627    -7.43e-03  2.12e-04  1.85e-02  2.16e-02  0.000   3.4
   14    -1953.0125556828188564    -4.07e-02  1.18e-05  2.02e-03  1.91e-03  0.000   3.7
                              *** Initializing SOSCF ***
---------------------------------------S-O-S-C-F--------------------------------------
Iteration    Energy (Eh)           Delta-E    RMSDP     MaxDP     MaxGrad    Time(sec)
--------------------------------------------------------------------------------------
   15    -1953.0125702486575392    -1.46e-05  6.82e-06  1.27e-03  5.22e-04     3.4
               *** Restarting incremental Fock matrix formation ***
   16    -1953.0125663742446704     3.87e-06  4.73e-06  4.27e-04  3.09e-05     7.0
   17    -1953.0125662766067762     9.76e-08  1.26e-06  1.44e-04  4.98e-05     4.3
   18    -1953.0125665564783048    -2.80e-07  8.30e-07  1.12e-04  8.97e-06     3.6
   19    -1953.0125665401146762     1.64e-08  2.96e-07  3.56e-05  1.97e-05     3.2
   20    -1953.0125665420637233    -1.95e-09  3.06e-07  3.78e-05  3.10e-06     2.9
                 **** Energy Check signals convergence ****

               *****************************************************
               *                     SUCCESS                       *
               *           SCF CONVERGED AFTER  20 CYCLES          *
               *****************************************************

Recomputing exchange energy using gridx3       ... done (    8.671 sec)
Old exchange energy                            :    -20.926873106 Eh
New exchange energy                            :    -20.926892067 Eh
Exchange energy change after final integration :     -0.000018961 Eh
Total energy after final integration           :  -1953.012585503 Eh

SMD CDS free energy correction energy :                 3.22009     Kcal/mol
Total Energy after SMD CDS correction =             -1953.007453971 Eh
             **** ENERGY FILE WAS UPDATED (rf_mecn_freq_r2s_D_B.en.tmp) ****

----------------
TOTAL SCF ENERGY
----------------

Total Energy       :      -1953.00745397087667 Eh          -53144.03461 eV

Components:
Nuclear Repulsion  :       2894.73522536966448 Eh           78769.75006 eV
Electronic Energy  :      -4847.66520806556309 Eh         -131911.67657 eV
One Electron Energy:      -8503.33957673111763 Eh         -231387.63340 eV
Two Electron Energy:       3655.67436866555454 Eh           99475.95683 eV
CPCM Dielectric    :         -0.08258384616517 Eh              -2.24722 eV
SMD CDS (Gcds)     :          0.00513153180104 Eh               0.13964 eV

Virial components:
Potential Energy   :      -3899.58003487644510 Eh         -106112.96743 eV
Kinetic Energy     :       1946.57258090556843 Eh           52968.93281 eV
Virial Ratio       :          2.00330574525113

DFT components:
N(Alpha)           :       99.999981075176 electrons
N(Beta)            :       99.999981075176 electrons
N(Total)           :      199.999962150352 electrons
E(X)               :     -189.345315888915 Eh       
E(C)               :       -6.978597671120 Eh       
E(XC)              :     -196.323913560035 Eh       

CPCM Solvation Model Properties:
Surface-charge          :          0.99055715275387
Corrected charge        :          1.00000000000000
Outlying charge corr.   :          0.00000487904874 Eh               0.00013 eV
Free-energy (cav+disp)  :          0.00513153180104 Eh               0.13964 eV

---------------
SCF CONVERGENCE
---------------

  Last Energy change         ...    1.9490e-09  Tolerance :   1.0000e-08
  Last MAX-Density change    ...    3.7815e-05  Tolerance :   1.0000e-07
  Last RMS-Density change    ...    3.0649e-07  Tolerance :   5.0000e-09
  Last DIIS Error            ...    5.2178e-04  Tolerance :   5.0000e-07
  Last Orbital Gradient      ...    3.1000e-06  Tolerance :   1.0000e-05
  Last Orbital Rotation      ...    5.7824e-06  Tolerance :   1.0000e-05


----------------
ORBITAL ENERGIES
----------------

  NO   OCC          E(Eh)            E(eV) 
   0   2.0000     -24.732253      -672.9988 
   1   2.0000     -24.731534      -672.9793 
   2   2.0000     -24.731275      -672.9722 
   3   2.0000     -24.731109      -672.9677 
   4   2.0000     -24.731062      -672.9664 
   5   2.0000     -24.730448      -672.9497 
   6   2.0000     -24.730143      -672.9414 
   7   2.0000     -24.728468      -672.8958 
   8   2.0000     -24.728341      -672.8924 
   9   2.0000     -24.722934      -672.7452 
  10   2.0000     -24.722158      -672.7241 
  11   2.0000     -24.711236      -672.4269 
  12   2.0000     -24.711049      -672.4218 
  13   2.0000     -24.686395      -671.7510 
  14   2.0000     -24.686036      -671.7412 
  15   2.0000     -19.049410      -518.3608 
  16   2.0000     -19.047504      -518.3089 
  17   2.0000     -10.439886      -284.0837 
  18   2.0000     -10.386311      -282.6259 
  19   2.0000     -10.384967      -282.5893 
  20   2.0000     -10.382919      -282.5336 
  21   2.0000     -10.375598      -282.3344 
  22   2.0000     -10.359991      -281.9097 
  23   2.0000     -10.322322      -280.8847 
  24   2.0000     -10.233614      -278.4708 
  25   2.0000      -1.361565       -37.0501 
  26   2.0000      -1.337724       -36.4013 
  27   2.0000      -1.322144       -35.9774 
  28   2.0000      -1.314249       -35.7625 
  29   2.0000      -1.310139       -35.6507 
  30   2.0000      -1.298172       -35.3251 
  31   2.0000      -1.273234       -34.6465 
  32   2.0000      -1.269831       -34.5538 
  33   2.0000      -1.266844       -34.4726 
  34   2.0000      -1.266153       -34.4538 
  35   2.0000      -1.259467       -34.2718 
  36   2.0000      -1.255943       -34.1760 
  37   2.0000      -1.251698       -34.0604 
  38   2.0000      -1.239783       -33.7362 
  39   2.0000      -1.211191       -32.9582 
  40   2.0000      -1.029082       -28.0028 
  41   2.0000      -0.944747       -25.7079 
  42   2.0000      -0.844982       -22.9931 
  43   2.0000      -0.822200       -22.3732 
  44   2.0000      -0.791818       -21.5465 
  45   2.0000      -0.752816       -20.4852 
  46   2.0000      -0.709783       -19.3142 
  47   2.0000      -0.681010       -18.5312 
  48   2.0000      -0.662621       -18.0308 
  49   2.0000      -0.641520       -17.4566 
  50   2.0000      -0.636761       -17.3271 
  51   2.0000      -0.628948       -17.1145 
  52   2.0000      -0.619887       -16.8680 
  53   2.0000      -0.615731       -16.7549 
  54   2.0000      -0.613910       -16.7053 
  55   2.0000      -0.601273       -16.3615 
  56   2.0000      -0.597154       -16.2494 
  57   2.0000      -0.592601       -16.1255 
  58   2.0000      -0.586089       -15.9483 
  59   2.0000      -0.574238       -15.6258 
  60   2.0000      -0.571089       -15.5401 
  61   2.0000      -0.565185       -15.3795 
  62   2.0000      -0.554768       -15.0960 
  63   2.0000      -0.540138       -14.6979 
  64   2.0000      -0.504105       -13.7174 
  65   2.0000      -0.500202       -13.6112 
  66   2.0000      -0.494544       -13.4572 
  67   2.0000      -0.490614       -13.3503 
  68   2.0000      -0.486474       -13.2376 
  69   2.0000      -0.483006       -13.1432 
  70   2.0000      -0.478596       -13.0233 
  71   2.0000      -0.472424       -12.8553 
  72   2.0000      -0.468578       -12.7506 
  73   2.0000      -0.466295       -12.6885 
  74   2.0000      -0.463902       -12.6234 
  75   2.0000      -0.457274       -12.4431 
  76   2.0000      -0.454389       -12.3645 
  77   2.0000      -0.449230       -12.2242 
  78   2.0000      -0.447318       -12.1721 
  79   2.0000      -0.443545       -12.0695 
  80   2.0000      -0.438398       -11.9294 
  81   2.0000      -0.437601       -11.9077 
  82   2.0000      -0.434583       -11.8256 
  83   2.0000      -0.429997       -11.7008 
  84   2.0000      -0.428956       -11.6725 
  85   2.0000      -0.426175       -11.5968 
  86   2.0000      -0.423176       -11.5152 
  87   2.0000      -0.419629       -11.4187 
  88   2.0000      -0.418064       -11.3761 
  89   2.0000      -0.410950       -11.1825 
  90   2.0000      -0.401765       -10.9326 
  91   2.0000      -0.397932       -10.8283 
  92   2.0000      -0.388448       -10.5702 
  93   2.0000      -0.385526       -10.4907 
  94   2.0000      -0.375433       -10.2161 
  95   2.0000      -0.356432        -9.6990 
  96   2.0000      -0.324473        -8.8294 
  97   2.0000      -0.241729        -6.5778 
  98   2.0000      -0.225515        -6.1366 
  99   2.0000      -0.223376        -6.0784 
 100   0.0000      -0.013684        -0.3724 
 101   0.0000       0.000353         0.0096 
 102   0.0000       0.020525         0.5585 
 103   0.0000       0.050920         1.3856 
 104   0.0000       0.052184         1.4200 
 105   0.0000       0.098397         2.6775 
 106   0.0000       0.101285         2.7561 
 107   0.0000       0.114259         3.1091 
 108   0.0000       0.125602         3.4178 
 109   0.0000       0.136632         3.7179 
 110   0.0000       0.138683         3.7738 
*Only the first 10 virtual orbitals were printed.

                    ********************************
                    * MULLIKEN POPULATION ANALYSIS *
                    ********************************

-----------------------
MULLIKEN ATOMIC CHARGES
-----------------------
   0 C :    0.212184
   1 O :   -0.508683
   2 O :   -0.523158
   3 C :    0.343766
   4 C :    0.299403
   5 C :    0.327789
   6 C :    0.322610
   7 C :    0.298994
   8 C :    0.330250
   9 C :    0.471015
  10 F :   -0.207471
  11 F :   -0.213454
  12 F :   -0.179005
  13 F :   -0.185774
  14 F :   -0.171679
  15 F :   -0.169993
  16 F :   -0.166151
  17 F :   -0.165339
  18 F :   -0.164201
  19 F :   -0.164089
  20 F :   -0.163232
  21 F :   -0.160013
  22 F :   -0.156118
  23 F :   -0.153523
  24 F :   -0.154130
Sum of atomic charges:   -1.0000000

--------------------------------
MULLIKEN REDUCED ORBITAL CHARGES
--------------------------------
  0 C s       :     3.017887  s :     3.017887
      pz      :     0.832820  p :     2.495244
      px      :     0.878421
      py      :     0.784003
      dz2     :     0.031971  d :     0.250142
      dxz     :     0.020397
      dyz     :     0.064098
      dx2y2   :     0.060775
      dxy     :     0.072901
      f0      :     0.002430  f :     0.024543
      f+1     :     0.001823
      f-1     :     0.003068
      f+2     :     0.004911
      f-2     :     0.002443
      f+3     :     0.004888
      f-3     :     0.004981

  1 O s       :     3.801846  s :     3.801846
      pz      :     1.493396  p :     4.675892
      px      :     1.608500
      py      :     1.573995
      dz2     :     0.005905  d :     0.029103
      dxz     :     0.003947
      dyz     :     0.006847
      dx2y2   :     0.005633
      dxy     :     0.006771
      f0      :     0.000140  f :     0.001842
      f+1     :     0.000139
      f-1     :     0.000367
      f+2     :     0.000277
      f-2     :     0.000355
      f+3     :     0.000271
      f-3     :     0.000293

  2 O s       :     3.802710  s :     3.802710
      pz      :     1.616707  p :     4.689715
      px      :     1.698079
      py      :     1.374928
      dz2     :     0.003126  d :     0.028917
      dxz     :     0.000739
      dyz     :     0.008377
      dx2y2   :     0.008787
      dxy     :     0.007887
      f0      :     0.000199  f :     0.001816
      f+1     :     0.000034
      f-1     :     0.000270
      f+2     :     0.000312
      f-2     :     0.000090
      f+3     :     0.000453
      f-3     :     0.000459

  3 C s       :     3.114249  s :     3.114249
      pz      :     0.658181  p :     2.260865
      px      :     0.973528
      py      :     0.629156
      dz2     :     0.044523  d :     0.254823
      dxz     :     0.049581
      dyz     :     0.067736
      dx2y2   :     0.039740
      dxy     :     0.053243
      f0      :     0.005196  f :     0.026297
      f+1     :     0.004546
      f-1     :     0.004621
      f+2     :     0.003276
      f-2     :     0.001477
      f+3     :     0.004519
      f-3     :     0.002663

  4 C s       :     3.141149  s :     3.141149
      pz      :     0.616479  p :     2.250251
      px      :     0.952037
      py      :     0.681735
      dz2     :     0.056489  d :     0.281542
      dxz     :     0.057438
      dyz     :     0.072146
      dx2y2   :     0.037757
      dxy     :     0.057712
      f0      :     0.003688  f :     0.027656
      f+1     :     0.005194
      f-1     :     0.007892
      f+2     :     0.002152
      f-2     :     0.001988
      f+3     :     0.004259
      f-3     :     0.002484

  5 C s       :     3.137939  s :     3.137939
      pz      :     0.586171  p :     2.217647
      px      :     0.924656
      py      :     0.706819
      dz2     :     0.072924  d :     0.288750
      dxz     :     0.061796
      dyz     :     0.063044
      dx2y2   :     0.033669
      dxy     :     0.057317
      f0      :     0.004361  f :     0.027876
      f+1     :     0.004581
      f-1     :     0.006981
      f+2     :     0.002822
      f-2     :     0.003941
      f+3     :     0.002913
      f-3     :     0.002278

  6 C s       :     3.136515  s :     3.136515
      pz      :     0.576082  p :     2.220691
      px      :     0.926510
      py      :     0.718099
      dz2     :     0.082662  d :     0.292176
      dxz     :     0.062869
      dyz     :     0.055947
      dx2y2   :     0.032326
      dxy     :     0.058371
      f0      :     0.006127  f :     0.028007
      f+1     :     0.003958
      f-1     :     0.004366
      f+2     :     0.004048
      f-2     :     0.005342
      f+3     :     0.002202
      f-3     :     0.001963

  7 C s       :     3.140808  s :     3.140808
      pz      :     0.584234  p :     2.239652
      px      :     0.939925
      py      :     0.715494
      dz2     :     0.078203  d :     0.292529
      dxz     :     0.062554
      dyz     :     0.060845
      dx2y2   :     0.032379
      dxy     :     0.058548
      f0      :     0.005075  f :     0.028017
      f+1     :     0.004226
      f-1     :     0.006039
      f+2     :     0.003290
      f-2     :     0.004667
      f+3     :     0.002590
      f-3     :     0.002129

  8 C s       :     3.101493  s :     3.101493
      pz      :     0.613600  p :     2.251232
      px      :     0.943263
      py      :     0.694369
      dz2     :     0.061139  d :     0.288911
      dxz     :     0.061657
      dyz     :     0.073083
      dx2y2   :     0.033896
      dxy     :     0.059136
      f0      :     0.003529  f :     0.028114
      f+1     :     0.005118
      f-1     :     0.008469
      f+2     :     0.002161
      f-2     :     0.002518
      f+3     :     0.003817
      f-3     :     0.002502

  9 C s       :     3.020920  s :     3.020920
      pz      :     0.644153  p :     2.108847
      px      :     0.808109
      py      :     0.656586
      dz2     :     0.068530  d :     0.358571
      dxz     :     0.069333
      dyz     :     0.087674
      dx2y2   :     0.064931
      dxy     :     0.068103
      f0      :     0.004561  f :     0.040648
      f+1     :     0.008106
      f-1     :     0.009248
      f+2     :     0.004515
      f-2     :     0.003159
      f+3     :     0.007467
      f-3     :     0.003591

 10 F s       :     3.920112  s :     3.920112
      pz      :     1.897211  p :     5.270780
      px      :     1.900290
      py      :     1.473278
      dz2     :     0.002196  d :     0.015909
      dxz     :     0.000239
      dyz     :     0.003188
      dx2y2   :     0.006157
      dxy     :     0.004129
      f0      :     0.000054  f :     0.000671
      f+1     :     0.000014
      f-1     :     0.000130
      f+2     :     0.000091
      f-2     :     0.000010
      f+3     :     0.000167
      f-3     :     0.000204

 11 F s       :     3.922136  s :     3.922136
      pz      :     1.480005  p :     5.275003
      px      :     1.911463
      py      :     1.883535
      dz2     :     0.007564  d :     0.015649
      dxz     :     0.003816
      dyz     :     0.003586
      dx2y2   :     0.000361
      dxy     :     0.000323
      f0      :     0.000283  f :     0.000666
      f+1     :     0.000153
      f-1     :     0.000176
      f+2     :     0.000028
      f-2     :     0.000022
      f+3     :     0.000002
      f-3     :     0.000002

 12 F s       :     3.924710  s :     3.924710
      pz      :     1.841796  p :     5.236707
      px      :     1.900854
      py      :     1.494057
      dz2     :     0.002183  d :     0.016876
      dxz     :     0.000536
      dyz     :     0.004743
      dx2y2   :     0.005624
      dxy     :     0.003790
      f0      :     0.000074  f :     0.000712
      f+1     :     0.000006
      f-1     :     0.000122
      f+2     :     0.000163
      f-2     :     0.000044
      f+3     :     0.000135
      f-3     :     0.000167

 13 F s       :     3.927033  s :     3.927033
      pz      :     1.448367  p :     5.241412
      px      :     1.903370
      py      :     1.889675
      dz2     :     0.008768  d :     0.016629
      dxz     :     0.004062
      dyz     :     0.003393
      dx2y2   :     0.000224
      dxy     :     0.000180
      f0      :     0.000358  f :     0.000700
      f+1     :     0.000172
      f-1     :     0.000152
      f+2     :     0.000008
      f-2     :     0.000008
      f+3     :     0.000001
      f-3     :     0.000001

 14 F s       :     3.927325  s :     3.927325
      pz      :     1.737962  p :     5.226569
      px      :     1.895849
      py      :     1.592758
      dz2     :     0.002541  d :     0.017070
      dxz     :     0.001479
      dyz     :     0.006386
      dx2y2   :     0.003666
      dxy     :     0.002999
      f0      :     0.000080  f :     0.000715
      f+1     :     0.000010
      f-1     :     0.000166
      f+2     :     0.000196
      f-2     :     0.000104
      f+3     :     0.000078
      f-3     :     0.000080

 15 F s       :     3.926883  s :     3.926883
      pz      :     1.484351  p :     5.225248
      px      :     1.899782
      py      :     1.841115
      dz2     :     0.007583  d :     0.017141
      dxz     :     0.003739
      dyz     :     0.004684
      dx2y2   :     0.000497
      dxy     :     0.000638
      f0      :     0.000274  f :     0.000721
      f+1     :     0.000133
      f-1     :     0.000223
      f+2     :     0.000037
      f-2     :     0.000049
      f+3     :     0.000003
      f-3     :     0.000003

 16 F s       :     3.928197  s :     3.928197
      pz      :     1.616293  p :     5.220003
      px      :     1.897463
      py      :     1.706248
      dz2     :     0.004215  d :     0.017231
      dxz     :     0.002519
      dyz     :     0.006672
      dx2y2   :     0.001933
      dxy     :     0.001891
      f0      :     0.000109  f :     0.000720
      f+1     :     0.000045
      f-1     :     0.000252
      f+2     :     0.000147
      f-2     :     0.000112
      f+3     :     0.000030
      f-3     :     0.000026

 17 F s       :     3.928069  s :     3.928069
      pz      :     1.576391  p :     5.219262
      px      :     1.896294
      py      :     1.746576
      dz2     :     0.005061  d :     0.017285
      dxz     :     0.002934
      dyz     :     0.006310
      dx2y2   :     0.001443
      dxy     :     0.001537
      f0      :     0.000139  f :     0.000724
      f+1     :     0.000068
      f-1     :     0.000263
      f+2     :     0.000116
      f-2     :     0.000104
      f+3     :     0.000019
      f-3     :     0.000016

 18 F s       :     3.928777  s :     3.928777
      pz      :     1.699031  p :     5.217384
      px      :     1.897413
      py      :     1.620940
      dz2     :     0.002938  d :     0.017317
      dxz     :     0.001769
      dyz     :     0.006786
      dx2y2   :     0.003175
      dxy     :     0.002649
      f0      :     0.000083  f :     0.000723
      f+1     :     0.000015
      f-1     :     0.000198
      f+2     :     0.000196
      f-2     :     0.000110
      f+3     :     0.000061
      f-3     :     0.000061

 19 F s       :     3.928720  s :     3.928720
      pz      :     1.507311  p :     5.217330
      px      :     1.894616
      py      :     1.815404
      dz2     :     0.006851  d :     0.017316
      dxz     :     0.003614
      dyz     :     0.005241
      dx2y2   :     0.000728
      dxy     :     0.000882
      f0      :     0.000226  f :     0.000722
      f+1     :     0.000117
      f-1     :     0.000243
      f+2     :     0.000057
      f-2     :     0.000069
      f+3     :     0.000006
      f-3     :     0.000005

 20 F s       :     3.928704  s :     3.928704
      pz      :     1.811408  p :     5.216575
      px      :     1.893584
      py      :     1.511582
      dz2     :     0.002211  d :     0.017231
      dxz     :     0.000779
      dyz     :     0.005413
      dx2y2   :     0.005148
      dxy     :     0.003680
      f0      :     0.000079  f :     0.000722
      f+1     :     0.000005
      f-1     :     0.000128
      f+2     :     0.000183
      f-2     :     0.000065
      f+3     :     0.000121
      f-3     :     0.000140

 21 F s       :     3.926612  s :     3.926612
      pz      :     1.441061  p :     5.215290
      px      :     1.895867
      py      :     1.878362
      dz2     :     0.008935  d :     0.017373
      dxz     :     0.004200
      dyz     :     0.003788
      dx2y2   :     0.000213
      dxy     :     0.000237
      f0      :     0.000361  f :     0.000737
      f+1     :     0.000177
      f-1     :     0.000172
      f+2     :     0.000009
      f-2     :     0.000016
      f+3     :     0.000001
      f-3     :     0.000001

 22 F s       :     3.924611  s :     3.924611
      pz      :     1.855116  p :     5.213389
      px      :     1.887246
      py      :     1.471027
      dz2     :     0.002356  d :     0.017350
      dxz     :     0.000371
      dyz     :     0.004565
      dx2y2   :     0.006303
      dxy     :     0.003755
      f0      :     0.000077  f :     0.000768
      f+1     :     0.000008
      f-1     :     0.000141
      f+2     :     0.000155
      f-2     :     0.000030
      f+3     :     0.000148
      f-3     :     0.000208

 23 F s       :     3.923063  s :     3.923063
      pz      :     1.820004  p :     5.212267
      px      :     1.610321
      py      :     1.781942
      dz2     :     0.002336  d :     0.017414
      dxz     :     0.004101
      dyz     :     0.002096
      dx2y2   :     0.003811
      dxy     :     0.005071
      f0      :     0.000086  f :     0.000780
      f+1     :     0.000103
      f-1     :     0.000044
      f+2     :     0.000080
      f-2     :     0.000175
      f+3     :     0.000128
      f-3     :     0.000164

 24 F s       :     3.923265  s :     3.923265
      pz      :     1.440678  p :     5.212559
      px      :     1.886275
      py      :     1.885605
      dz2     :     0.009371  d :     0.017523
      dxz     :     0.004057
      dyz     :     0.003714
      dx2y2   :     0.000217
      dxy     :     0.000165
      f0      :     0.000397  f :     0.000783
      f+1     :     0.000184
      f-1     :     0.000178
      f+2     :     0.000014
      f-2     :     0.000009
      f+3     :     0.000001
      f-3     :     0.000001



                     *******************************
                     * LOEWDIN POPULATION ANALYSIS *
                     *******************************

----------------------
LOEWDIN ATOMIC CHARGES
----------------------
   0 C :   -0.696491
   1 O :   -0.047800
   2 O :   -0.054659
   3 C :   -0.450985
   4 C :   -0.468721
   5 C :   -0.470024
   6 C :   -0.471078
   7 C :   -0.472156
   8 C :   -0.479074
   9 C :   -0.679462
  10 F :    0.170812
  11 F :    0.163776
  12 F :    0.216646
  13 F :    0.210705
  14 F :    0.223085
  15 F :    0.225168
  16 F :    0.229215
  17 F :    0.230738
  18 F :    0.231827
  19 F :    0.231175
  20 F :    0.230259
  21 F :    0.231847
  22 F :    0.230657
  23 F :    0.231574
  24 F :    0.232964

-------------------------------
LOEWDIN REDUCED ORBITAL CHARGES
-------------------------------
  0 C s       :     2.772522  s :     2.772522
      pz      :     0.849773  p :     2.725020
      px      :     0.886782
      py      :     0.988465
      dz2     :     0.125256  d :     1.043946
      dxz     :     0.108297
      dyz     :     0.254165
      dx2y2   :     0.280839
      dxy     :     0.275389
      f0      :     0.015930  f :     0.155003
      f+1     :     0.010481
      f-1     :     0.017703
      f+2     :     0.028702
      f-2     :     0.017314
      f+3     :     0.030892
      f-3     :     0.033980

  1 O s       :     3.424230  s :     3.424230
      pz      :     1.453953  p :     4.555026
      px      :     1.534866
      py      :     1.566207
      dz2     :     0.008866  d :     0.062943
      dxz     :     0.010191
      dyz     :     0.016247
      dx2y2   :     0.012736
      dxy     :     0.014903
      f0      :     0.000477  f :     0.005601
      f+1     :     0.000330
      f-1     :     0.000836
      f+2     :     0.000936
      f-2     :     0.001326
      f+3     :     0.000870
      f-3     :     0.000825

  2 O s       :     3.423534  s :     3.423534
      pz      :     1.507214  p :     4.562533
      px      :     1.567777
      py      :     1.487542
      dz2     :     0.008118  d :     0.063037
      dxz     :     0.000999
      dyz     :     0.015071
      dx2y2   :     0.021294
      dxy     :     0.017555
      f0      :     0.000516  f :     0.005556
      f+1     :     0.000118
      f-1     :     0.000948
      f+2     :     0.000839
      f-2     :     0.000185
      f+3     :     0.001499
      f-3     :     0.001450

  3 C s       :     2.780959  s :     2.780959
      pz      :     0.796541  p :     2.595214
      px      :     1.031794
      py      :     0.766880
      dz2     :     0.209141  d :     0.899193
      dxz     :     0.162115
      dyz     :     0.185878
      dx2y2   :     0.178803
      dxy     :     0.163256
      f0      :     0.037180  f :     0.175618
      f+1     :     0.025107
      f-1     :     0.035030
      f+2     :     0.019337
      f-2     :     0.011445
      f+3     :     0.025820
      f-3     :     0.021698

  4 C s       :     2.759554  s :     2.759554
      pz      :     0.765632  p :     2.592655
      px      :     1.013678
      py      :     0.813346
      dz2     :     0.238768  d :     0.933897
      dxz     :     0.151838
      dyz     :     0.201400
      dx2y2   :     0.163454
      dxy     :     0.178437
      f0      :     0.034398  f :     0.182616
      f+1     :     0.029532
      f-1     :     0.042906
      f+2     :     0.020290
      f-2     :     0.013669
      f+3     :     0.023255
      f-3     :     0.018565

  5 C s       :     2.757671  s :     2.757671
      pz      :     0.744189  p :     2.591808
      px      :     1.006727
      py      :     0.840892
      dz2     :     0.245452  d :     0.936599
      dxz     :     0.145667
      dyz     :     0.225505
      dx2y2   :     0.128611
      dxy     :     0.191364
      f0      :     0.032710  f :     0.183946
      f+1     :     0.027868
      f-1     :     0.043642
      f+2     :     0.026521
      f-2     :     0.023105
      f+3     :     0.015998
      f-3     :     0.014101

  6 C s       :     2.756456  s :     2.756456
      pz      :     0.734134  p :     2.591378
      px      :     1.004166
      py      :     0.853078
      dz2     :     0.245854  d :     0.938675
      dxz     :     0.140617
      dyz     :     0.240884
      dx2y2   :     0.113711
      dxy     :     0.197608
      f0      :     0.034258  f :     0.184569
      f+1     :     0.025597
      f-1     :     0.039600
      f+2     :     0.032234
      f-2     :     0.029377
      f+3     :     0.012199
      f-3     :     0.011304

  7 C s       :     2.756205  s :     2.756205
      pz      :     0.740509  p :     2.591489
      px      :     1.004854
      py      :     0.846126
      dz2     :     0.245359  d :     0.939794
      dxz     :     0.143841
      dyz     :     0.233845
      dx2y2   :     0.120988
      dxy     :     0.195762
      f0      :     0.033253  f :     0.184667
      f+1     :     0.026648
      f-1     :     0.042334
      f+2     :     0.029081
      f-2     :     0.026303
      f+3     :     0.014320
      f-3     :     0.012728

  8 C s       :     2.759749  s :     2.759749
      pz      :     0.764020  p :     2.595747
      px      :     1.008656
      py      :     0.823071
      dz2     :     0.239868  d :     0.938686
      dxz     :     0.156589
      dyz     :     0.211642
      dx2y2   :     0.143418
      dxy     :     0.187169
      f0      :     0.033354  f :     0.184892
      f+1     :     0.029705
      f-1     :     0.045406
      f+2     :     0.022043
      f-2     :     0.016507
      f+3     :     0.020697
      f-3     :     0.017179

  9 C s       :     2.754516  s :     2.754516
      pz      :     0.792663  p :     2.495730
      px      :     0.901852
      py      :     0.801215
      dz2     :     0.275587  d :     1.163874
      dxz     :     0.204179
      dyz     :     0.230357
      dx2y2   :     0.232330
      dxy     :     0.221421
      f0      :     0.039955  f :     0.265342
      f+1     :     0.044034
      f-1     :     0.051657
      f+2     :     0.032355
      f-2     :     0.027509
      f+3     :     0.040176
      f-3     :     0.029656

 10 F s       :     3.603400  s :     3.603400
      pz      :     1.824260  p :     5.193873
      px      :     1.828673
      py      :     1.540941
      dz2     :     0.004074  d :     0.030448
      dxz     :     0.000369
      dyz     :     0.005400
      dx2y2   :     0.011769
      dxy     :     0.008835
      f0      :     0.000122  f :     0.001468
      f+1     :     0.000035
      f-1     :     0.000248
      f+2     :     0.000203
      f-2     :     0.000020
      f+3     :     0.000446
      f-3     :     0.000393

 11 F s       :     3.606476  s :     3.606476
      pz      :     1.544135  p :     5.198066
      px      :     1.836472
      py      :     1.817459
      dz2     :     0.014579  d :     0.030232
      dxz     :     0.008366
      dyz     :     0.006073
      dx2y2   :     0.000588
      dxy     :     0.000625
      f0      :     0.000552  f :     0.001450
      f+1     :     0.000425
      f-1     :     0.000349
      f+2     :     0.000067
      f-2     :     0.000051
      f+3     :     0.000003
      f-3     :     0.000003

 12 F s       :     3.591873  s :     3.591873
      pz      :     1.784630  p :     5.158290
      px      :     1.820609
      py      :     1.553051
      dz2     :     0.004031  d :     0.031633
      dxz     :     0.001061
      dyz     :     0.008093
      dx2y2   :     0.010671
      dxy     :     0.007776
      f0      :     0.000134  f :     0.001558
      f+1     :     0.000015
      f-1     :     0.000295
      f+2     :     0.000313
      f-2     :     0.000108
      f+3     :     0.000378
      f-3     :     0.000317

 13 F s       :     3.594339  s :     3.594339
      pz      :     1.526784  p :     5.162221
      px      :     1.821867
      py      :     1.813571
      dz2     :     0.016583  d :     0.031205
      dxz     :     0.008469
      dyz     :     0.005638
      dx2y2   :     0.000269
      dxy     :     0.000247
      f0      :     0.000671  f :     0.001530
      f+1     :     0.000474
      f-1     :     0.000354
      f+2     :     0.000009
      f-2     :     0.000017
      f+3     :     0.000002
      f-3     :     0.000003

 14 F s       :     3.591033  s :     3.591033
      pz      :     1.719233  p :     5.152328
      px      :     1.816758
      py      :     1.616337
      dz2     :     0.004249  d :     0.031980
      dxz     :     0.003047
      dyz     :     0.011839
      dx2y2   :     0.006873
      dxy     :     0.005971
      f0      :     0.000171  f :     0.001574
      f+1     :     0.000019
      f-1     :     0.000356
      f+2     :     0.000379
      f-2     :     0.000271
      f+3     :     0.000219
      f-3     :     0.000158

 15 F s       :     3.590340  s :     3.590340
      pz      :     1.553982  p :     5.150848
      px      :     1.819335
      py      :     1.777531
      dz2     :     0.013897  d :     0.032063
      dxz     :     0.007725
      dyz     :     0.008606
      dx2y2   :     0.000677
      dxy     :     0.001158
      f0      :     0.000543  f :     0.001582
      f+1     :     0.000355
      f-1     :     0.000465
      f+2     :     0.000065
      f-2     :     0.000140
      f+3     :     0.000008
      f-3     :     0.000005

 16 F s       :     3.589937  s :     3.589937
      pz      :     1.641063  p :     5.147048
      px      :     1.816988
      py      :     1.688997
      dz2     :     0.007142  d :     0.032212
      dxz     :     0.005189
      dyz     :     0.012828
      dx2y2   :     0.003365
      dxy     :     0.003688
      f0      :     0.000264  f :     0.001588
      f+1     :     0.000111
      f-1     :     0.000478
      f+2     :     0.000293
      f-2     :     0.000308
      f+3     :     0.000087
      f-3     :     0.000047

 17 F s       :     3.589509  s :     3.589509
      pz      :     1.615084  p :     5.145878
      px      :     1.815941
      py      :     1.714854
      dz2     :     0.008755  d :     0.032281
      dxz     :     0.006030
      dyz     :     0.012118
      dx2y2   :     0.002424
      dxy     :     0.002955
      f0      :     0.000322  f :     0.001594
      f+1     :     0.000170
      f-1     :     0.000500
      f+2     :     0.000233
      f-2     :     0.000285
      f+3     :     0.000054
      f-3     :     0.000029

 18 F s       :     3.589751  s :     3.589751
      pz      :     1.694223  p :     5.144534
      px      :     1.816352
      py      :     1.633960
      dz2     :     0.004837  d :     0.032294
      dxz     :     0.003611
      dyz     :     0.012809
      dx2y2   :     0.005788
      dxy     :     0.005250
      f0      :     0.000192  f :     0.001594
      f+1     :     0.000032
      f-1     :     0.000403
      f+2     :     0.000380
      f-2     :     0.000297
      f+3     :     0.000176
      f-3     :     0.000115

 19 F s       :     3.590130  s :     3.590130
      pz      :     1.569923  p :     5.144817
      px      :     1.814973
      py      :     1.759921
      dz2     :     0.012413  d :     0.032285
      dxz     :     0.007364
      dyz     :     0.009800
      dx2y2   :     0.001081
      dxy     :     0.001627
      f0      :     0.000472  f :     0.001592
      f+1     :     0.000301
      f-1     :     0.000490
      f+2     :     0.000112
      f-2     :     0.000193
      f+3     :     0.000016
[...]
 19:    205.14   0.000072    0.36  0.000109  ( 0.009158 -0.001501  0.004780)
 20:    212.53   0.000611    3.09  0.000897  (-0.000881  0.029806 -0.002733)
 21:    234.94   0.000038    0.19  0.000050  (-0.000074  0.001585  0.006879)
 22:    246.67   0.000016    0.08  0.000020  (-0.004345  0.000093 -0.000949)
 23:    254.03   0.000149    0.76  0.000184  (-0.006697  0.002160  0.011582)
 24:    259.21   0.000004    0.02  0.000005  (-0.000117 -0.000279  0.002125)
 25:    262.77   0.000214    1.08  0.000254  ( 0.006359 -0.001636  0.014517)
 26:    288.09   0.001391    7.03  0.001507  ( 0.036914 -0.011218 -0.004306)
 27:    306.78   0.000037    0.19  0.000038  ( 0.001955 -0.000004 -0.005811)
 28:    316.61   0.000163    0.82  0.000161  (-0.007936  0.009883  0.000189)
 29:    338.30   0.000106    0.53  0.000097  (-0.007438  0.002665 -0.005913)
 30:    349.76   0.000566    2.86  0.000505  (-0.014121  0.000926 -0.017460)
 31:    364.37   0.000161    0.81  0.000138  ( 0.006781  0.000192  0.009581)
 32:    368.14   0.000027    0.14  0.000023  ( 0.004574  0.000510 -0.001274)
 33:    373.61   0.000044    0.22  0.000037  ( 0.005499 -0.002100 -0.001378)
 34:    374.96   0.000457    2.31  0.000380  ( 0.019428 -0.000109  0.001706)
 35:    382.05   0.000096    0.48  0.000078  ( 0.008828 -0.000353 -0.000136)
 36:    415.23   0.000181    0.91  0.000136  (-0.006843 -0.009333  0.001359)
 37:    466.57   0.000808    4.09  0.000541  ( 0.016706 -0.006143  0.014964)
 38:    508.64   0.009259   46.79  0.005680  ( 0.075118 -0.005046  0.003512)
 39:    531.79   0.007917   40.01  0.004646  ( 0.062135 -0.026760 -0.008301)
 40:    544.39   0.006042   30.53  0.003463  (-0.052804  0.013192 -0.022385)
 41:    560.49   0.010309   52.10  0.005740  ( 0.058168  0.047986 -0.007337)
 42:    563.97   0.004434   22.41  0.002453  (-0.047922  0.004805 -0.011568)
 43:    584.40   0.001351    6.83  0.000722  (-0.010107  0.007318  0.023789)
 44:    604.64   0.003326   16.81  0.001717  (-0.040926  0.001115 -0.006364)
 45:    620.83   0.000298    1.51  0.000150  ( 0.005475 -0.010406  0.003414)
 46:    652.65   0.025473  128.73  0.012180  (-0.109554 -0.007246 -0.011206)
 47:    669.17   0.021993  111.14  0.010256  ( 0.100702 -0.000980 -0.010691)
 48:    694.95   0.000155    0.78  0.000070  (-0.007726 -0.002738  0.001594)
 49:    730.68   0.000250    1.26  0.000107  (-0.003211  0.002595  0.009467)
 50:    737.75   0.003464   17.50  0.001465  (-0.037876  0.005141 -0.002024)
 51:    780.71   0.000665    3.36  0.000266  (-0.004716  0.012718  0.009044)
 52:    803.83   0.019001   96.03  0.007377  ( 0.061809  0.027381 -0.052978)
 53:    885.12   0.003524   17.81  0.001242  ( 0.034655 -0.000564 -0.006408)
 54:   1015.99   0.010080   50.94  0.003096  (-0.050847  0.011389 -0.019517)
 55:   1104.55   0.036363  183.76  0.010273  ( 0.034669  0.087390  0.037876)
 56:   1109.35   0.025693  129.84  0.007227  (-0.015369  0.026815  0.079197)
 57:   1133.00   0.035030  177.03  0.009648  ( 0.015597 -0.038021  0.089217)
 58:   1135.83   0.003975   20.09  0.001092  (-0.012830  0.026651 -0.014735)
 59:   1149.79   0.039243  198.32  0.010651  (-0.026114 -0.097344  0.022205)
 60:   1158.10   0.110233  557.07  0.029704  (-0.006400 -0.164469 -0.051115)
 61:   1169.51   0.011696   59.11  0.003121  (-0.001526  0.053068  0.017387)
 62:   1172.45   0.054005  272.92  0.014374  ( 0.013056  0.042962  0.111166)
 63:   1179.30   0.107426  542.89  0.028427  ( 0.005666 -0.017410  0.167606)
 64:   1187.70   0.086917  439.24  0.022837  (-0.034326  0.139268 -0.047575)
 65:   1192.06   0.066486  335.99  0.017405  (-0.032349  0.040661  0.121266)
 66:   1209.15   0.092937  469.66  0.023986  ( 0.021000  0.053696 -0.143741)
 67:   1218.77   0.005447   27.53  0.001395  ( 0.003148  0.009142  0.036071)
 68:   1244.38   0.012236   61.83  0.003068  (-0.038084  0.008787  0.039253)
 69:   1275.62   0.004177   21.11  0.001022  ( 0.015426 -0.021562 -0.017860)
 70:   1294.01   0.004315   21.81  0.001041  (-0.021172  0.020188  0.013597)
 71:   1315.92   0.005967   30.16  0.001415  ( 0.018069 -0.024959  0.021580)
 72:   1368.21   0.054995  277.92  0.012543  (-0.109660 -0.017535  0.014511)
 73:   1399.22   0.018346   92.71  0.004092  (-0.056977 -0.016336  0.024048)
 74:   1758.71   0.160352  810.35  0.028453  (-0.027766  0.154377  0.062044)

* The epsilon (eps) is given for a Dirac delta lineshape.
** The dipole moment derivative (T) already includes vibrational overlap.

The first frequency considered to be a vibration is 6
The total number of vibrations considered is 69


--------------------------
THERMOCHEMISTRY AT 298.15K
--------------------------

Temperature         ...   298.15 K
Pressure            ...     1.00 atm
Total Mass          ...   413.06 AMU
Quasi RRHO          ...     True
Cut-Off Frequency   ...     1.00 cm^-1

Throughout the following assumptions are being made:
  (1) The electronic state is orbitally nondegenerate
  (2) There are no thermally accessible electronically excited states
  (3) Hindered rotations indicated by low frequency modes are not
      treated as such but are treated as vibrations and this may
      cause some error
  (4) All equations used are the standard statistical mechanics
      equations for an ideal gas
  (5) All vibrations are strictly harmonic

freq.      29.57  E(vib)   ...       0.55 
freq.      35.32  E(vib)   ...       0.54 
freq.      42.49  E(vib)   ...       0.53 
freq.      47.56  E(vib)   ...       0.53 
freq.      57.32  E(vib)   ...       0.51 
freq.      71.49  E(vib)   ...       0.50 
freq.      74.47  E(vib)   ...       0.49 
freq.      77.63  E(vib)   ...       0.49 
freq.     118.93  E(vib)   ...       0.44 
freq.     135.08  E(vib)   ...       0.42 
freq.     162.87  E(vib)   ...       0.39 
freq.     190.98  E(vib)   ...       0.36 
freq.     201.85  E(vib)   ...       0.35 
freq.     205.14  E(vib)   ...       0.35 
freq.     212.53  E(vib)   ...       0.34 
freq.     234.94  E(vib)   ...       0.32 
freq.     246.67  E(vib)   ...       0.31 
freq.     254.03  E(vib)   ...       0.30 
freq.     259.21  E(vib)   ...       0.30 
freq.     262.77  E(vib)   ...       0.29 
freq.     288.09  E(vib)   ...       0.27 
freq.     306.78  E(vib)   ...       0.26 
freq.     316.61  E(vib)   ...       0.25 
freq.     338.30  E(vib)   ...       0.23 
freq.     349.76  E(vib)   ...       0.23 
freq.     364.37  E(vib)   ...       0.22 
freq.     368.14  E(vib)   ...       0.21 
freq.     373.61  E(vib)   ...       0.21 
freq.     374.96  E(vib)   ...       0.21 
freq.     382.05  E(vib)   ...       0.21 
freq.     415.23  E(vib)   ...       0.19 
freq.     466.57  E(vib)   ...       0.16 
freq.     508.64  E(vib)   ...       0.14 
freq.     531.79  E(vib)   ...       0.13 
freq.     544.39  E(vib)   ...       0.12 
freq.     560.49  E(vib)   ...       0.11 
freq.     563.97  E(vib)   ...       0.11 
freq.     584.40  E(vib)   ...       0.11 
freq.     604.64  E(vib)   ...       0.10 
freq.     620.83  E(vib)   ...       0.09 
freq.     652.65  E(vib)   ...       0.08 
freq.     669.17  E(vib)   ...       0.08 
freq.     694.95  E(vib)   ...       0.07 
freq.     730.68  E(vib)   ...       0.06 
freq.     737.75  E(vib)   ...       0.06 
freq.     780.71  E(vib)   ...       0.05 
freq.     803.83  E(vib)   ...       0.05 
freq.     885.12  E(vib)   ...       0.04 
freq.    1015.99  E(vib)   ...       0.02 
freq.    1104.55  E(vib)   ...       0.02 
freq.    1109.35  E(vib)   ...       0.02 
freq.    1133.00  E(vib)   ...       0.01 
freq.    1135.83  E(vib)   ...       0.01 
freq.    1149.79  E(vib)   ...       0.01 
freq.    1158.10  E(vib)   ...       0.01 
freq.    1169.51  E(vib)   ...       0.01 
freq.    1172.45  E(vib)   ...       0.01 
freq.    1179.30  E(vib)   ...       0.01 
freq.    1187.70  E(vib)   ...       0.01 
freq.    1192.06  E(vib)   ...       0.01 
freq.    1209.15  E(vib)   ...       0.01 
freq.    1218.77  E(vib)   ...       0.01 
freq.    1244.38  E(vib)   ...       0.01 
freq.    1275.62  E(vib)   ...       0.01 
freq.    1294.01  E(vib)   ...       0.01 
freq.    1315.92  E(vib)   ...       0.01 
freq.    1368.21  E(vib)   ...       0.01 
freq.    1399.22  E(vib)   ...       0.00 
freq.    1758.71  E(vib)   ...       0.00 

------------
INNER ENERGY
------------

The inner energy is: U= E(el) + E(ZPE) + E(vib) + E(rot) + E(trans)
    E(el)   - is the total energy from the electronic structure calculation
              = E(kin-el) + E(nuc-el) + E(el-el) + E(nuc-nuc)
    E(ZPE)  - the the zero temperature vibrational energy from the frequency calculation
    E(vib)  - the the finite temperature correction to E(ZPE) due to population
              of excited vibrational states
    E(rot)  - is the rotational thermal energy
    E(trans)- is the translational thermal energy

Summary of contributions to the inner energy U:
Electronic energy                ...  -1953.01594019 Eh
Zero point energy                ...      0.09917077 Eh      62.23 kcal/mol
Thermal vibrational correction   ...      0.02005976 Eh      12.59 kcal/mol
Thermal rotational correction    ...      0.00141627 Eh       0.89 kcal/mol
Thermal translational correction ...      0.00141627 Eh       0.89 kcal/mol
-----------------------------------------------------------------------
Total thermal energy                  -1952.89387711 Eh


Summary of corrections to the electronic energy:
(perhaps to be used in another calculation)
Total thermal correction                  0.02289231 Eh      14.37 kcal/mol
Non-thermal (ZPE) correction              0.09917077 Eh      62.23 kcal/mol
-----------------------------------------------------------------------
Total correction                          0.12206308 Eh      76.60 kcal/mol


--------
ENTHALPY
--------

The enthalpy is H = U + kB*T
                kB is Boltzmann's constant
Total thermal energy              ...  -1952.89387711 Eh 
Thermal Enthalpy correction       ...      0.00094421 Eh       0.59 kcal/mol
-----------------------------------------------------------------------
Total Enthalpy                    ...  -1952.89293290 Eh


Note: Only C1 symmetry has been detected, increase convergence thresholds 
      if your molecule has a higher symmetry. Symmetry factor of 1.0 is   
      used for the rotational entropy correction. 
 

Note: Rotational entropy computed according to Herzberg 
Infrared and Raman Spectra, Chapter V,1, Van Nostrand Reinhold, 1945 
Point Group:  C1, Symmetry Number:   1  
Rotational constants in cm-1:     0.021447     0.003785     0.003731 

Vibrational entropy computed according to the QRRHO of S. Grimme
Chem.Eur.J. 2012 18 9955 using a reference frequency of 100.0 cm-1


-------
ENTROPY
-------

The entropy contributions are T*S = T*(S(el)+S(vib)+S(rot)+S(trans))
     S(el)   - electronic entropy
     S(vib)  - vibrational entropy
     S(rot)  - rotational entropy
     S(trans)- translational entropy
The entropies will be listed as multiplied by the temperature to get
units of energy

Electronic entropy                ...      0.00000000 Eh      0.00 kcal/mol
Vibrational entropy               ...      0.03569846 Eh     22.40 kcal/mol
Rotational entropy                ...      0.01659685 Eh     10.41 kcal/mol
Translational entropy             ...      0.02088010 Eh     13.10 kcal/mol
-----------------------------------------------------------------------
Final entropy term                ...      0.07317541 Eh     45.92 kcal/mol

In case the symmetry of your molecule has not been determined correctly
or in case you have a reason to use a different symmetry number we print 
out the resulting rotational entropy values for sn=1,12:

 non-linear molecules -----------------------------------
|  sn= 1 | S(rot)=       0.01659685 Eh     10.41 kcal/mol|
|  sn= 2 | S(rot)=       0.01594239 Eh     10.00 kcal/mol|
|  sn= 3 | S(rot)=       0.01555956 Eh      9.76 kcal/mol|
|  sn= 4 | S(rot)=       0.01528794 Eh      9.59 kcal/mol|
|  sn= 5 | S(rot)=       0.01507725 Eh      9.46 kcal/mol|
|  sn= 6 | S(rot)=       0.01490510 Eh      9.35 kcal/mol|
|  sn= 7 | S(rot)=       0.01475956 Eh      9.26 kcal/mol|
|  sn= 8 | S(rot)=       0.01463348 Eh      9.18 kcal/mol|
|  sn= 9 | S(rot)=       0.01452227 Eh      9.11 kcal/mol|
|  sn=10 | S(rot)=       0.01442279 Eh      9.05 kcal/mol|
|  sn=11 | S(rot)=       0.01433280 Eh      8.99 kcal/mol|
|  sn=12 | S(rot)=       0.01425065 Eh      8.94 kcal/mol|
 linear molecules ---------------------------------------
|  Dinfh | S(rot)=       0.01060469 Eh      6.65 kcal/mol|
|  Cinfv | S(rot)=       0.01125914 Eh      7.07 kcal/mol|
 --------------------------------------------------------


-------------------
GIBBS FREE ENERGY
-------------------

The Gibbs free energy is G = H - T*S

Total enthalpy                    ...  -1952.89293290 Eh 
Total entropy correction          ...     -0.07317541 Eh    -45.92 kcal/mol
-----------------------------------------------------------------------
Final Gibbs free energy         ...  -1952.96610831 Eh

For completeness - the Gibbs free energy minus the electronic energy
G-E(el)                           ...      0.04983188 Eh     31.27 kcal/mol


Maximum memory used throughout the entire PROP-calculation: 325.7 MB

--------------------------------
SUGGESTED CITATIONS FOR THIS RUN
--------------------------------

Below you find a list of papers that are relevant to this ORCA run
We neither can nor want to force you to cite these papers, but we appreciate if you do
You receive ORCA, which is the product of decades of hard work by many enthusiastic individuals, for free
The only thing we kindly ask in return is that you cite our papers,
We deeply appreciate it, if you show your appreciation for ORCA by not just citing the generic ORCA reference.

Please note that relegating all ORCA citations to the supporting information does *not* help us.
SI sections are not indexed - citations you put there will not count into any citation statistics
But we need these citations in order to attract the funding resources that allow us to do what we are doing

Therefore, if you are a happy ORCA user, please consider citing a few of the papers listed below in the main body of your paper

In addition to the list printed below, the program has created the file rf_mecn_freq_r2s_D_B.bibtex that contains the list in bibtex format
You can import this file easily into all common literature databanks and citation aid programs


List of essential papers. We consider these as the minimum necessary citations

  1. Neese,F.
     Software update: the ORCA program system, version 5.0
     WIRES Comput. Molec. Sci., 2022 12(1)e1606
     doi.org/10.1002/wcms.1606

List of papers to cite with high priority. The work reported in these papers was absolutely
necessary for this run to complete.
Our perspective: the developers of density functionals and basis sets usually get cited in chemistry papers
Good! But without the algorithms to do something with them, the functionals or basis sets would not do anything.
Hence, in our opinion, the algorithm design and method developments papers are equally worthy of getting cited

  1. Neese,F.
     An improvement of the resolution of the identity approximation for the formation of the Coulomb matrix
     J. Comp. Chem., 2003 24(14)1740-1747
     doi.org/10.1002/jcc.10318
  2. Neese,F.; Wennmohs,F.; Hansen,A.; Becker,U.
     Efficient, approximate and parallel Hartree-Fock and hybrid DFT calculations. A 'chain-of-spheres' algorithm for the Hartree-Fock exchange
     Chem. Phys., 2009 356(1-3)98-109
     doi.org/10.1016/j.chemphys.2008.10.036
  3. Bykov,D.; Petrenko,T.; Izsak,R.; Kossmann,S.; Becker,U.; Valeev,E.; Neese,F.
     Efficient implementation of the analytic second derivatives of Hartree-Fock and hybrid DFT energies: a detailed analysis of different approximations
     Molec. Phys., 2015 113 1961-1977
     doi.org/10.1080/00268976.2015.1025114
  4. Garcia-Rates,M.; Neese,F.
     Efficient implementation of the analytical second derivatives of hartree-fock and hybrid DFT energies within the framework of the conductor-like polarizable continuum model
     J. Comput. Chem., 2019 40 1816-1828
     doi.org/10.1002/jcc.25833
  5. Garcia-Rates,M.; Neese,F.
     Effect of the Solute Cavity on the Solvation Energy and its Derivatives within the Framework of the Gaussian Charge Scheme
     J. Comput. Chem., 2020 41 922-939
     doi.org/10.1002/jcc.26139
  6. Helmich-Paris,B.; de Souza,B.; Neese,F.; Izsák,R.
     An improved chain of spheres for exchange algorithm
     J. Chem. Phys., 2021 155 104109
     doi.org/doi: 10.1063/5.0058766.
  7. Neese,F.
     The SHARK Integral Generation and Digestion System
     J. Comp. Chem., 2022  1-16
     doi.org/10.1002/jcc.26942
  8. Lehtola,S.; Steigemann,C.; Oliveira,M.; Marques,M.
     Recent developments in Libxc - A comprehensive library of functionals for density functional theory
     Software X, 2018 7 
     doi.org/10.1016/j.softx.2017.11.002
  9. Grimme,S.; Antony,J.; Ehrlich,S.; Krieg,H.
     A consistent and accurate ab initio parametrization of density functional dispersion correction (DFT-D) for the 94 elements H-Pu
     J. Chem. Phys., 2010 132 154104
     doi.org/10.1063/1.3382344
 10. Grimme,S.; Ehrlich,S.; Goerigk,L.
     Effect of the damping function in dispersion corrected density functional theory
     J. Comput. Chem., 2011 32(7)1456-1465
     doi.org/10.1002/jcc.21759
 11. Bursch,M.; Neugebauer,H.; Ehlert,S.; Grimme,S.
     Dispersion corrected r2SCAN based global hybrid functionals: r2SCANh, r2SCAN0, and r2SCAN50
     J. Phys. Chem., 2022 156(13)134105
     doi.org/10.1063/5.0086040

List of suggested additional citations. These are papers that are important in the 'surrounding' of 
of this run, or papers that preceded the highly important papers. If you like your results we are grateful for a citation.

  1. Izsak,R.; Neese,F.
     An overlap fitted chain of spheres exchange method
     J. Chem. Phys., 2011 135 144105
     doi.org/10.1063/1.3646921
  2. Izsak,R.; Hansen,A.; Neese,F.
     The resolution of identity and chain of spheres approximations for the LPNO-CCSD singles Fock term
     Molec. Phys., 2012 110 2413-2417
     doi.org/10.1080/00268976.2012.687466
  3. Neese,F.
     The ORCA program system
     WIRES Comput. Molec. Sci., 2012 2(1)73-78
     doi.org/10.1002/wcms.81
  4. Izsak,R.; Neese,F.; Klopper,W.
     Robust fitting techniques in the chain of spheres approximation to the Fock exchange: The role of the complementary space
     J. Chem. Phys., 2013 139 
     doi.org/10.1063/1.4819264
  5. Neese,F.
     Software update: the ORCA program system, version 4.0
     WIRES Comput. Molec. Sci., 2018 8(1)1-6
     doi.org/10.1002/wcms.1327
  6. Neese,F.; Wennmohs,F.; Becker,U.; Riplinger,C.
     The ORCA quantum chemistry program package
     J. Chem. Phys., 2020 152 Art. No. L224108
     doi.org/10.1063/5.0004608
  7. Wittmann,L.; Neugebauer,H.; Grimme,S.; Bursch,M.
     Dispersion-corrected r2SCAN based double-hybrid functionals
     J. Chem. Phys., 2023 159(22)224103
     doi.org/10.1063/5.0174988

List of optional additional citations

  1. Neese,F.
     Approximate second-order SCF convergence for spin unrestricted wavefunctions
     Chem. Phys. Lett., 2000 325(1-3)93-98
     doi.org/10.1016/s0009-2614(00)00662-x

Timings for individual modules:

Sum of individual times          ...     1028.198 sec (=  17.137 min)
Startup calculation              ...        4.632 sec (=   0.077 min)   0.5 %
SCF iterations                   ...       94.088 sec (=   1.568 min)   9.2 %
Property integrals               ...      291.264 sec (=   4.854 min)  28.3 %
SCF Response                     ...      380.683 sec (=   6.345 min)  37.0 %
Property calculations            ...      257.531 sec (=   4.292 min)  25.0 %
                             ****ORCA TERMINATED NORMALLY****
TOTAL RUN TIME: 0 days 0 hours 17 minutes 9 seconds 70 msec
