
                                 *****************
                                 * O   R   C   A *
                                 *****************

                                            #,                                       
                                            ###                                      
                                            ####                                     
                                            #####                                    
                                            ######                                   
                                           ########,                                 
                                     ,,################,,,,,                         
                               ,,#################################,,                 
                          ,,##########################################,,             
                       ,#########################################, ''#####,          
                    ,#############################################,,   '####,        
                  ,##################################################,,,,####,       
                ,###########''''           ''''###############################       
              ,#####''   ,,,,##########,,,,          '''####'''          '####       
            ,##' ,,,,###########################,,,                        '##       
           ' ,,###''''                  '''############,,,                           
         ,,##''                                '''############,,,,        ,,,,,,###''
      ,#''                                            '''#######################'''  
     '                                                          ''''####''''         
             ,#######,   #######,   ,#######,      ##                                
            ,#'     '#,  ##    ##  ,#'     '#,    #''#        ######   ,####,        
            ##       ##  ##   ,#'  ##            #'  '#       #        #'  '#        
            ##       ##  #######   ##           ,######,      #####,   #    #        
            '#,     ,#'  ##    ##  '#,     ,#' ,#      #,         ##   #,  ,#        
             '#######'   ##     ##  '#######'  #'      '#     #####' # '####'        



                  #######################################################
                  #                        -***-                        #
                  #          Department of theory and spectroscopy      #
                  #    Directorship and core code : Frank Neese         #
                  #        Max Planck Institute fuer Kohlenforschung    #
                  #                Kaiser Wilhelm Platz 1               #
                  #                 D-45470 Muelheim/Ruhr               #
                  #                      Germany                        #
                  #                                                     #
                  #                  All rights reserved                #
                  #                        -***-                        #
                  #######################################################


                         Program Version 5.0.3 -  RELEASE  -


 With contributions from (in alphabetic order):
   Daniel Aravena         : Magnetic Suceptibility
   Michael Atanasov       : Ab Initio Ligand Field Theory (pilot matlab implementation)
   Alexander A. Auer      : GIAO ZORA, VPT2 properties, NMR spectrum
   Ute Becker             : Parallelization
   Giovanni Bistoni       : ED, misc. LED, open-shell LED, HFLD
   Martin Brehm           : Molecular dynamics
   Dmytro Bykov           : SCF Hessian
   Vijay G. Chilkuri      : MRCI spin determinant printing, contributions to CSF-ICE
   Dipayan Datta          : RHF DLPNO-CCSD density
   Achintya Kumar Dutta   : EOM-CC, STEOM-CC
   Dmitry Ganyushin       : Spin-Orbit,Spin-Spin,Magnetic field MRCI
   Miquel Garcia          : C-PCM and meta-GGA Hessian, CC/C-PCM, Gaussian charge scheme
   Yang Guo               : DLPNO-NEVPT2, F12-NEVPT2, CIM, IAO-localization
   Andreas Hansen         : Spin unrestricted coupled pair/coupled cluster methods
   Benjamin Helmich-Paris : MC-RPA, TRAH-SCF, COSX integrals
   Lee Huntington         : MR-EOM, pCC
   Robert Izsak           : Overlap fitted RIJCOSX, COSX-SCS-MP3, EOM
   Marcus Kettner         : VPT2
   Christian Kollmar      : KDIIS, OOCD, Brueckner-CCSD(T), CCSD density, CASPT2, CASPT2-K
   Simone Kossmann        : Meta GGA functionals, TD-DFT gradient, OOMP2, MP2 Hessian
   Martin Krupicka        : Initial AUTO-CI
   Lucas Lang             : DCDCAS
   Marvin Lechner         : AUTO-CI (C++ implementation), FIC-MRCC
   Dagmar Lenk            : GEPOL surface, SMD
   Dimitrios Liakos       : Extrapolation schemes; Compound Job, initial MDCI parallelization
   Dimitrios Manganas     : Further ROCIS development; embedding schemes
   Dimitrios Pantazis     : SARC Basis sets
   Anastasios Papadopoulos: AUTO-CI, single reference methods and gradients
   Taras Petrenko         : DFT Hessian,TD-DFT gradient, ASA, ECA, R-Raman, ABS, FL, XAS/XES, NRVS
   Peter Pinski           : DLPNO-MP2, DLPNO-MP2 Gradient
   Christoph Reimann      : Effective Core Potentials
   Marius Retegan         : Local ZFS, SOC
   Christoph Riplinger    : Optimizer, TS searches, QM/MM, DLPNO-CCSD(T), (RO)-DLPNO pert. Triples
   Tobias Risthaus        : Range-separated hybrids, TD-DFT gradient, RPA, STAB
   Michael Roemelt        : Original ROCIS implementation
   Masaaki Saitow         : Open-shell DLPNO-CCSD energy and density
   Barbara Sandhoefer     : DKH picture change effects
   Avijit Sen             : IP-ROCIS
   Kantharuban Sivalingam : CASSCF convergence, NEVPT2, FIC-MRCI
   Bernardo de Souza      : ESD, SOC TD-DFT
   Georgi Stoychev        : AutoAux, RI-MP2 NMR, DLPNO-MP2 response
   Willem Van den Heuvel  : Paramagnetic NMR
   Boris Wezisla          : Elementary symmetry handling
   Frank Wennmohs         : Technical directorship


 We gratefully acknowledge several colleagues who have allowed us to
 interface, adapt or use parts of their codes:
   Stefan Grimme, W. Hujo, H. Kruse, P. Pracht,  : VdW corrections, initial TS optimization,
                  C. Bannwarth, S. Ehlert          DFT functionals, gCP, sTDA/sTD-DF
   Ed Valeev, F. Pavosevic, A. Kumar             : LibInt (2-el integral package), F12 methods
   Garnet Chan, S. Sharma, J. Yang, R. Olivares  : DMRG
   Ulf Ekstrom                                   : XCFun DFT Library
   Mihaly Kallay                                 : mrcc  (arbitrary order and MRCC methods)
   Jiri Pittner, Ondrej Demel                    : Mk-CCSD
   Frank Weinhold                                : gennbo (NPA and NBO analysis)
   Christopher J. Cramer and Donald G. Truhlar   : smd solvation model
   Lars Goerigk                                  : TD-DFT with DH, B97 family of functionals
   V. Asgeirsson, H. Jonsson                     : NEB implementation
   FAccTs GmbH                                   : IRC, NEB, NEB-TS, DLPNO-Multilevel, CI-OPT
                                                   MM, QMMM, 2- and 3-layer-ONIOM, Crystal-QMMM,
                                                   LR-CPCM, SF, NACMEs, symmetry and pop. for TD-DFT,
                                                   nearIR, NL-DFT gradient (VV10), updates on ESD,
                                                   ML-optimized integration grids
   S Lehtola, MJT Oliveira, MAL Marques          : LibXC Library
   Liviu Ungur et al                             : ANISO software


 Your calculation uses the libint2 library for the computation of 2-el integrals
 For citations please refer to: http://libint.valeyev.net

 Your ORCA version has been built with support for libXC version: 5.1.0
 For citations please refer to: https://tddft.org/programs/libxc/

 This ORCA versions uses:
   CBLAS   interface :  Fast vector & matrix operations
   LAPACKE interface :  Fast linear algebra routines
   SCALAPACK package :  Parallel linear algebra routines
   Shared memory     :  Shared parallel matrices
   BLAS/LAPACK       :  OpenBLAS 0.3.15  USE64BITINT DYNAMIC_ARCH NO_AFFINITY SkylakeX SINGLE_THREADED
        Core in use  :  SkylakeX
   Copyright (c) 2011-2014, The OpenBLAS Project


Your calculation utilizes the atom-pairwise dispersion correction
with the Becke-Johnson damping scheme (D3BJ)
Cite in your paper:
S.Grimme, S.Ehrlich, L.Goerigk, J Comput Chem, (2011), 32, 1456–1465 
S.Grimme, J.Antony, S.Ehrlich and H.Krieg, J.Chem.Phys., 132, (2010), 154104 
   

Your calculation utilizes the SMD solvation module
Please cite in your paper:
A.V. Marenich, C.J. Cramer, D.G. Truhlar J. Phys. Chem. B, 113, (2009), 6378 

================================================================================

----- Orbital basis set information -----
Your calculation utilizes the basis: def2-TZVP
   F. Weigend and R. Ahlrichs, Phys. Chem. Chem. Phys. 7, 3297 (2005).

----- AuxJ basis set information -----
Your calculation utilizes the auxiliary basis: def2/J
   F. Weigend, Phys. Chem. Chem. Phys. 8, 1057 (2006).

================================================================================
                                        WARNINGS
                       Please study these warnings very carefully!
================================================================================


WARNING: your system is open-shell and RHF/RKS was chosen
  ===> : WILL SWITCH to UHF/UKS


WARNING: Geometry Optimization
  ===> : Switching off AutoStart
         For restart on a previous wavefunction, please use MOREAD

INFO   : the flag for use of the SHARK integral package has been found!

================================================================================
                                       INPUT FILE
================================================================================
NAME = rf_mecn_opt_TPS_C8_D_B.inp
|  1> !TPSSh def2-TZVP opt d3 TightSCF SlowConv defgrid2
|  2>  
|  3> %pal
|  4> nprocs 20
|  5> end
|  6>  
|  7> %scf
|  8> MaxIter 1500
|  9> end
| 10>  
| 11> %maxcore 8000
| 12>  
| 13> !CPCM
| 14> %cpcm smd true
| 15> SMDsolvent "ACETONITRILE"
| 16> end
| 17>  
| 18> * xyz -1 2
| 19> 6        4.790427000     -0.033865800     -0.529943200
| 20> 8        5.449345000     -1.206924000     -0.894594600
| 21> 8        4.978223000      1.323071000     -0.737377200
| 22> 6        3.506687600     -0.338741600      0.376153800
| 23> 6        2.222300000      0.400524800     -0.110681600
| 24> 6        0.900506800     -0.386389800      0.175703000
| 25> 6       -0.395261200      0.487294000      0.065549000
| 26> 6       -1.705693600     -0.364773800     -0.068373600
| 27> 6       -3.005136200      0.445344800      0.258164000
| 28> 6       -4.319880200     -0.214526000     -0.270540800
| 29> 9        3.211587400     -1.692050400      0.412735200
| 30> 9        3.741061800      0.055285800      1.689948800
| 31> 9        2.125696800      1.616867800      0.483236600
| 32> 9        2.314152400      0.589704000     -1.455769200
| 33> 9        0.794028800     -1.413561400     -0.700839000
| 34> 9        0.958350600     -0.884509000      1.435093400
| 35> 9       -0.498373400      1.260265600      1.173340200
| 36> 9       -0.299075000      1.289512600     -1.020910800
| 37> 9       -1.641790400     -1.418189000      0.779523800
| 38> 9       -1.792381400     -0.831391600     -1.336863600
| 39> 9       -2.918792200      1.679227200     -0.295171200
| 40> 9       -3.119771000      0.573779800      1.598579800
| 41> 9       -5.365669800      0.430528600      0.260394200
| 42> 9       -4.396020400     -0.128550600     -1.602941800
| 43> *
| 44> 
| 45>                          ****END OF INPUT****
================================================================================

                       *****************************
                       * Geometry Optimization Run *
                       *****************************

Geometry optimization settings:
Update method            Update   .... BFGS
Choice of coordinates    CoordSys .... Z-matrix Internals
Initial Hessian          InHess   .... Almoef's Model

Convergence Tolerances:
Energy Change            TolE     ....  5.0000e-06 Eh
Max. Gradient            TolMAXG  ....  3.0000e-04 Eh/bohr
RMS Gradient             TolRMSG  ....  1.0000e-04 Eh/bohr
Max. Displacement        TolMAXD  ....  4.0000e-03 bohr
RMS Displacement         TolRMSD  ....  2.0000e-03 bohr
Strict Convergence                ....  False
------------------------------------------------------------------------------
                        ORCA OPTIMIZATION COORDINATE SETUP
------------------------------------------------------------------------------

The optimization will be done in new redundant internal coordinates
Making redundant internal coordinates   ...  (new redundants) done
Evaluating the initial hessian          ...  (Almloef) done
Evaluating the coordinates              ...  done
Calculating the B-matrix                .... done
Calculating the G-matrix                .... done
Diagonalizing the G-matrix              .... done
Small eigenvalue found = 6.266e-03
Small eigenvalue found = 1.719e-02
The first mode is                       ....   56
The number of degrees of freedom        ....   66

    -----------------------------------------------------------------
                    Redundant Internal Coordinates


    -----------------------------------------------------------------
         Definition                    Initial Value    Approx d2E/dq
    -----------------------------------------------------------------
      1. B(O   1,C   0)                  1.3940         0.551454   
      2. B(O   2,C   0)                  1.3855         0.568952   
      3. B(C   3,C   0)                  1.6006         0.288221   
      4. B(C   4,C   3)                  1.5599         0.334759   
      5. B(C   5,C   4)                  1.5647         0.328824   
      6. B(C   6,C   5)                  1.5667         0.326486   
      7. B(C   7,C   6)                  1.5688         0.323927   
      8. B(C   8,C   7)                  1.5657         0.327637   
      9. B(C   9,C   8)                  1.5632         0.330714   
     10. B(F  10,C   3)                  1.3856         0.528443   
     11. B(F  11,C   3)                  1.3915         0.517117   
     12. B(F  12,C   4)                  1.3570         0.586881   
     13. B(F  13,C   4)                  1.3614         0.577499   
     14. B(F  14,C   5)                  1.3545         0.592326   
     15. B(F  15,C   5)                  1.3556         0.590092   
     16. B(F  16,C   6)                  1.3547         0.591865   
     17. B(F  17,C   6)                  1.3540         0.593567   
     18. B(F  18,C   7)                  1.3538         0.593973   
     19. B(F  19,C   7)                  1.3544         0.592672   
     20. B(F  20,C   8)                  1.3550         0.591238   
     21. B(F  21,C   8)                  1.3514         0.599114   
     22. B(F  22,C   9)                  1.3385         0.628179   
     23. B(F  23,C   9)                  1.3373         0.630929   
     24. A(O   1,C   0,O   2)          136.1318         0.413163   
     25. A(O   2,C   0,C   3)          112.3347         0.371210   
     26. A(O   1,C   0,C   3)          111.5249         0.369222   
     27. A(C   4,C   3,F  10)          107.2033         0.374492   
     28. A(C   0,C   3,F  10)          111.8265         0.364982   
     29. A(F  10,C   3,F  11)          106.7094         0.399684   
     30. A(C   4,C   3,F  11)          107.4072         0.373095   
     31. A(C   0,C   3,C   4)          113.1687         0.341363   
     32. A(C   0,C   3,F  11)          110.2099         0.363632   
     33. A(C   3,C   4,F  12)          110.2926         0.381351   
     34. A(F  12,C   4,F  13)          108.2194         0.415201   
     35. A(C   3,C   4,C   5)          113.5839         0.349005   
     36. A(C   5,C   4,F  13)          107.9208         0.379109   
     37. A(C   3,C   4,F  13)          108.5818         0.380286   
     38. A(C   5,C   4,F  12)          108.0911         0.380169   
     39. A(F  14,C   5,F  15)          109.0206         0.417483   
     40. A(C   4,C   5,C   6)          113.9128         0.347536   
     41. A(C   6,C   5,F  15)          107.7906         0.380059   
     42. A(C   4,C   5,F  15)          108.5900         0.380529   
     43. A(C   6,C   5,F  14)          108.2026         0.380308   
     44. A(C   4,C   5,F  14)          109.2282         0.380779   
     45. A(C   5,C   6,C   7)          113.2023         0.346660   
     46. A(F  16,C   6,F  17)          108.8752         0.417862   
     47. A(C   7,C   6,F  17)          108.2186         0.379927   
     48. A(C   5,C   6,F  17)          109.1523         0.380446   
     49. A(C   7,C   6,F  16)          108.4284         0.379738   
     50. A(C   5,C   6,F  16)          108.8835         0.380256   
     51. A(C   8,C   7,F  18)          108.1296         0.380723   
     52. A(C   6,C   7,F  18)          109.2524         0.379972   
     53. A(F  18,C   7,F  19)          108.7561         0.418014   
     54. A(C   6,C   7,C   8)          113.2298         0.346865   
     55. A(C   8,C   7,F  19)          108.6915         0.380579   
     56. A(C   6,C   7,F  19)          108.6955         0.379828   
     57. A(C   9,C   8,F  21)          107.7127         0.381912   
     58. A(C   7,C   8,F  21)          109.0521         0.381293   
     59. A(C   9,C   8,F  20)          107.4499         0.381036   
     60. A(C   7,C   8,C   9)          114.1471         0.348078   
     61. A(F  20,C   8,F  21)          108.8987         0.418476   
     62. A(C   7,C   8,F  20)          109.4572         0.380419   
     63. A(F  22,C   9,F  23)          108.6464         0.426961   
     64. A(C   8,C   9,F  23)          110.9604         0.385362   
     65. A(C   8,C   9,F  22)          108.6349         0.385069   
     66. D(C   4,C   3,C   0,O   1)   -131.0839         0.006601   
     67. D(F  11,C   3,C   0,O   2)    -70.4768         0.006601   
     68. D(F  10,C   3,C   0,O   1)     -9.8890         0.006601   
     69. D(F  10,C   3,C   0,O   2)    171.0025         0.006601   
     70. D(C   4,C   3,C   0,O   2)     49.8076         0.006601   
     71. D(F  11,C   3,C   0,O   1)    108.6317         0.006601   
     72. D(F  12,C   4,C   3,F  10)    146.3851         0.009100   
     73. D(F  13,C   4,C   3,C   0)     28.5784         0.009100   
     74. D(F  13,C   4,C   3,F  11)    150.4470         0.009100   
     75. D(C   5,C   4,C   3,F  11)    -89.4885         0.009100   
     76. D(C   5,C   4,C   3,C   0)    148.6429         0.009100   
     77. D(F  13,C   4,C   3,F  10)    -95.1911         0.009100   
     78. D(F  12,C   4,C   3,F  11)     32.0233         0.009100   
     79. D(C   5,C   4,C   3,F  10)     24.8733         0.009100   
     80. D(F  12,C   4,C   3,C   0)    -89.8453         0.009100   
     81. D(F  15,C   5,C   4,F  13)    164.2540         0.008811   
     82. D(F  15,C   5,C   4,C   3)     43.8158         0.008811   
     83. D(F  14,C   5,C   4,F  12)    162.3014         0.008811   
     84. D(F  14,C   5,C   4,C   3)    -74.9661         0.008811   
     85. D(C   6,C   5,C   4,F  13)    -75.6292         0.008811   
     86. D(F  14,C   5,C   4,F  13)     45.4721         0.008811   
     87. D(F  15,C   5,C   4,F  12)    -78.9166         0.008811   
     88. D(C   6,C   5,C   4,F  12)     41.2001         0.008811   
     89. D(C   6,C   5,C   4,C   3)    163.9326         0.008811   
     90. D(F  16,C   6,C   5,F  15)     44.2190         0.008700   
     91. D(F  16,C   6,C   5,F  14)    161.9826         0.008700   
     92. D(F  16,C   6,C   5,C   4)    -76.3465         0.008700   
     93. D(C   7,C   6,C   5,F  15)    -76.4529         0.008700   
     94. D(C   7,C   6,C   5,F  14)     41.3107         0.008700   
     95. D(F  17,C   6,C   5,C   4)     42.3872         0.008700   
     96. D(C   7,C   6,C   5,C   4)    162.9815         0.008700   
     97. D(F  17,C   6,C   5,F  15)    162.9527         0.008700   
     98. D(F  17,C   6,C   5,F  14)    -79.2837         0.008700   
     99. D(F  19,C   7,C   6,F  17)     44.3783         0.008578   
    100. D(F  19,C   7,C   6,F  16)    162.3257         0.008578   
    101. D(F  19,C   7,C   6,C   5)    -76.7446         0.008578   
    102. D(F  18,C   7,C   6,F  17)    162.9167         0.008578   
    103. D(F  18,C   7,C   6,F  16)    -79.1358         0.008578   
    104. D(F  18,C   7,C   6,C   5)     41.7939         0.008578   
    105. D(C   8,C   7,C   6,F  17)    -76.5134         0.008578   
    106. D(C   8,C   7,C   6,F  16)     41.4341         0.008578   
    107. D(C   8,C   7,C   6,C   5)    162.3638         0.008578   
    108. D(F  21,C   8,C   7,F  19)    162.0243         0.008755   
    109. D(F  21,C   8,C   7,F  18)     44.1231         0.008755   
    110. D(F  21,C   8,C   7,C   6)    -77.0818         0.008755   
    111. D(F  20,C   8,C   7,F  19)    -78.9355         0.008755   
    112. D(F  20,C   8,C   7,F  18)    163.1633         0.008755   
    113. D(F  20,C   8,C   7,C   6)     41.9584         0.008755   
    114. D(C   9,C   8,C   7,F  19)     41.5227         0.008755   
    115. D(C   9,C   8,C   7,F  18)    -76.3785         0.008755   
    116. D(C   9,C   8,C   7,C   6)    162.4166         0.008755   
    117. D(F  23,C   9,C   8,F  21)    167.4828         0.008360   
    118. D(F  23,C   9,C   8,F  20)     50.3013         0.008360   
    119. D(F  23,C   9,C   8,C   7)    -71.2711         0.008360   
    120. D(F  22,C   9,C   8,F  21)     48.1091         0.008360   
    121. D(F  22,C   9,C   8,F  20)    -69.0724         0.008360   
    122. D(F  22,C   9,C   8,C   7)    169.3552         0.008360   
    -----------------------------------------------------------------

Number of atoms                         .... 24
Number of degrees of freedom            .... 122

         *************************************************************
         *                GEOMETRY OPTIMIZATION CYCLE   1            *
         *************************************************************
---------------------------------
CARTESIAN COORDINATES (ANGSTROEM)
---------------------------------
  C      4.790427   -0.033866   -0.529943
  O      5.449345   -1.206924   -0.894595
  O      4.978223    1.323071   -0.737377
  C      3.506688   -0.338742    0.376154
  C      2.222300    0.400525   -0.110682
  C      0.900507   -0.386390    0.175703
  C     -0.395261    0.487294    0.065549
  C     -1.705694   -0.364774   -0.068374
  C     -3.005136    0.445345    0.258164
  C     -4.319880   -0.214526   -0.270541
  F      3.211587   -1.692050    0.412735
  F      3.741062    0.055286    1.689949
  F      2.125697    1.616868    0.483237
  F      2.314152    0.589704   -1.455769
  F      0.794029   -1.413561   -0.700839
  F      0.958351   -0.884509    1.435093
  F     -0.498373    1.260266    1.173340
  F     -0.299075    1.289513   -1.020911
  F     -1.641790   -1.418189    0.779524
  F     -1.792381   -0.831392   -1.336864
  F     -2.918792    1.679227   -0.295171
  F     -3.119771    0.573780    1.598580
  F     -5.365670    0.430529    0.260394
  F     -4.396020   -0.128551   -1.602942

----------------------------
CARTESIAN COORDINATES (A.U.)
----------------------------
  NO LB      ZA    FRAG     MASS         X           Y           Z
   0 C     6.0000    0    12.011    9.052595   -0.063997   -1.001448
   1 O     8.0000    0    15.999   10.297770   -2.280756   -1.690539
   2 O     8.0000    0    15.999    9.407478    2.500242   -1.393441
   3 C     6.0000    0    12.011    6.626679   -0.640129    0.710828
   4 C     6.0000    0    12.011    4.199538    0.756882   -0.209158
   5 C     6.0000    0    12.011    1.701711   -0.730171    0.332031
   6 C     6.0000    0    12.011   -0.746935    0.920852    0.123870
   7 C     6.0000    0    12.011   -3.223294   -0.689323   -0.129207
   8 C     6.0000    0    12.011   -5.678884    0.841580    0.487859
   9 C     6.0000    0    12.011   -8.163391   -0.405395   -0.511248
  10 F     9.0000    0    18.998    6.069021   -3.197512    0.779956
  11 F     9.0000    0    18.998    7.069582    0.104475    3.193540
  12 F     9.0000    0    18.998    4.016985    3.055437    0.913185
  13 F     9.0000    0    18.998    4.373114    1.114379   -2.751005
  14 F     9.0000    0    18.998    1.500497   -2.671244   -1.324394
  15 F     9.0000    0    18.998    1.811020   -1.671480    2.711934
  16 F     9.0000    0    18.998   -0.941789    2.381557    2.217292
  17 F     9.0000    0    18.998   -0.565170    2.436826   -1.929242
  18 F     9.0000    0    18.998   -3.102534   -2.679989    1.473086
  19 F     9.0000    0    18.998   -3.387110   -1.571102   -2.526306
  20 F     9.0000    0    18.998   -5.515718    3.173280   -0.557793
  21 F     9.0000    0    18.998   -5.895513    1.084287    3.020878
  22 F     9.0000    0    18.998  -10.139646    0.813581    0.492074
  23 F     9.0000    0    18.998   -8.307275   -0.242925   -3.029121

--------------------------------
INTERNAL COORDINATES (ANGSTROEM)
--------------------------------
 C      0   0   0     0.000000000000     0.00000000     0.00000000
 O      1   0   0     1.393990356793     0.00000000     0.00000000
 O      1   2   0     1.385486802956   136.13177198     0.00000000
 C      1   2   3     1.600608594862   111.52489317   181.18992567
 C      4   1   2     1.559863783763   113.16872737   228.91614990
 C      5   4   1     1.564732561934   113.58394786   148.64287440
 C      6   5   4     1.566675459667   113.91280616   163.93256239
 C      7   6   5     1.568817348692   113.20226571   162.98152714
 C      8   7   6     1.565717094808   113.22984595   162.36375422
 C      9   8   7     1.563173062643   114.14707705   162.41661495
 F      4   1   2     1.385592665621   111.82651119   350.11101305
 F      4   1   2     1.391490625050   110.20991618   108.63170802
 F      5   4   1     1.357041377479   110.29260564   270.15468021
 F      5   4   1     1.361428031433   108.58179722    28.57841973
 F      6   5   4     1.354527570075   109.22822656   285.03385927
 F      6   5   4     1.355556277776   108.59004089    43.81583148
 F      7   6   5     1.354739297058   108.88346185   283.65347401
 F      7   6   5     1.353957667090   109.15230848    42.38718856
 F      8   7   6     1.353771473879   109.25240264    41.79387651
 F      8   7   6     1.354368423305   108.69554158   283.25540020
 F      9   8   7     1.355028009646   109.45719767    41.95842364
 F      9   8   7     1.351425618925   109.05210362   282.91820052
 F     10   9   8     1.338530275591   108.63493714   169.35523750
 F     10   9   8     1.337341214598   110.96044107   288.72891896

---------------------------
INTERNAL COORDINATES (A.U.)
---------------------------
 C      0   0   0     0.000000000000     0.00000000     0.00000000
 O      1   0   0     2.634260007667     0.00000000     0.00000000
 O      1   2   0     2.618190619750   136.13177198     0.00000000
 C      1   2   3     3.024711891890   111.52489317   181.18992567
 C      4   1   2     2.947715357535   113.16872737   228.91614990
 C      5   4   1     2.956916014884   113.58394786   148.64287440
 C      6   5   4     2.960587559506   113.91280616   163.93256239
 C      7   6   5     2.964635143173   113.20226571   162.98152714
 C      8   7   6     2.958776512386   113.22984595   162.36375422
 C      9   8   7     2.953968988318   114.14707705   162.41661495
 F      4   1   2     2.618390671194   111.82651119   350.11101305
 F      4   1   2     2.629536199263   110.20991618   108.63170802
 F      5   4   1     2.564436555835   110.29260564   270.15468021
 F      5   4   1     2.572726130452   108.58179722    28.57841973
 F      6   5   4     2.559686148288   109.22822656   285.03385927
 F      6   5   4     2.561630124115   108.59004089    43.81583148
 F      7   6   5     2.560086254300   108.88346185   283.65347401
 F      7   6   5     2.558609187723   109.15230848    42.38718856
 F      8   7   6     2.558257333546   109.25240264    41.79387651
 F      8   7   6     2.559385404477   108.69554158   283.25540020
 F      9   8   7     2.560631842023   109.45719767    41.95842364
 F      9   8   7     2.553824310132   109.05210362   282.91820052
 F     10   9   8     2.529455642830   108.63493714   169.35523750
 F     10   9   8     2.527208643196   110.96044107   288.72891896

---------------------
BASIS SET INFORMATION
---------------------
There are 3 groups of distinct atoms

 Group   1 Type C   : 11s6p2d1f contracted to 5s3p2d1f pattern {62111/411/11/1}
 Group   2 Type O   : 11s6p2d1f contracted to 5s3p2d1f pattern {62111/411/11/1}
 Group   3 Type F   : 11s6p2d1f contracted to 5s3p2d1f pattern {62111/411/11/1}

Atom   0C    basis set group =>   1
Atom   1O    basis set group =>   2
Atom   2O    basis set group =>   2
Atom   3C    basis set group =>   1
Atom   4C    basis set group =>   1
Atom   5C    basis set group =>   1
Atom   6C    basis set group =>   1
Atom   7C    basis set group =>   1
Atom   8C    basis set group =>   1
Atom   9C    basis set group =>   1
Atom  10F    basis set group =>   3
Atom  11F    basis set group =>   3
Atom  12F    basis set group =>   3
Atom  13F    basis set group =>   3
Atom  14F    basis set group =>   3
Atom  15F    basis set group =>   3
Atom  16F    basis set group =>   3
Atom  17F    basis set group =>   3
Atom  18F    basis set group =>   3
Atom  19F    basis set group =>   3
Atom  20F    basis set group =>   3
Atom  21F    basis set group =>   3
Atom  22F    basis set group =>   3
Atom  23F    basis set group =>   3
---------------------------------
AUXILIARY/J BASIS SET INFORMATION
---------------------------------
There are 3 groups of distinct atoms

 Group   1 Type C   : 12s5p4d2f1g contracted to 6s4p3d1f1g pattern {711111/2111/211/2/1}
 Group   2 Type O   : 12s5p4d2f1g contracted to 6s4p3d1f1g pattern {711111/2111/211/2/1}
 Group   3 Type F   : 12s5p4d2f1g contracted to 6s4p3d1f1g pattern {711111/2111/211/2/1}

Atom   0C    basis set group =>   1
Atom   1O    basis set group =>   2
Atom   2O    basis set group =>   2
Atom   3C    basis set group =>   1
Atom   4C    basis set group =>   1
Atom   5C    basis set group =>   1
Atom   6C    basis set group =>   1
Atom   7C    basis set group =>   1
Atom   8C    basis set group =>   1
Atom   9C    basis set group =>   1
Atom  10F    basis set group =>   3
Atom  11F    basis set group =>   3
Atom  12F    basis set group =>   3
Atom  13F    basis set group =>   3
Atom  14F    basis set group =>   3
Atom  15F    basis set group =>   3
Atom  16F    basis set group =>   3
Atom  17F    basis set group =>   3
Atom  18F    basis set group =>   3
Atom  19F    basis set group =>   3
Atom  20F    basis set group =>   3
Atom  21F    basis set group =>   3
Atom  22F    basis set group =>   3
Atom  23F    basis set group =>   3


           ************************************************************
           *        Program running with 20 parallel MPI-processes    *
           *              working on a common directory               *
           ************************************************************
------------------------------------------------------------------------------
                           ORCA GTO INTEGRAL CALCULATION
                           -- RI-GTO INTEGRALS CHOSEN --
------------------------------------------------------------------------------
------------------------------------------------------------------------------
                   ___                                                        
                  /   \      - P O W E R E D   B Y -                         
                 /     \                                                     
                 |  |  |   _    _      __       _____    __    __             
                 |  |  |  | |  | |    /  \     |  _  \  |  |  /  |          
                  \  \/   | |  | |   /    \    | | | |  |  | /  /          
                 / \  \   | |__| |  /  /\  \   | |_| |  |  |/  /          
                |  |  |   |  __  | /  /__\  \  |    /   |      \           
                |  |  |   | |  | | |   __   |  |    \   |  |\   \          
                \     /   | |  | | |  |  |  |  | |\  \  |  | \   \       
                 \___/    |_|  |_| |__|  |__|  |_| \__\ |__|  \__/        
                                                                              
                      - O R C A' S   B I G   F R I E N D -                    
                                      &                                       
                       - I N T E G R A L  F E E D E R -                       
                                                                              
 v1 FN, 2020, v2 2021                                                         
------------------------------------------------------------------------------


Reading SHARK input file rf_mecn_opt_TPS_C8_D_B.SHARKINP.tmp ... ok
----------------------
SHARK INTEGRAL PACKAGE
----------------------

Number of atoms                             ...     24
Number of basis functions                   ...    744
Number of shells                            ...    264
Maximum angular momentum                    ...      3
Integral batch strategy                     ... SHARK/LIBINT Hybrid
RI-J (if used) integral strategy            ... SPLIT-RIJ (Revised 2003 algorithm where possible)
Printlevel                                  ...      1
Contraction scheme used                     ... SEGMENTED contraction
Coulomb Range Separation                    ... NOT USED
Exchange Range Separation                   ... NOT USED
Finite Nucleus Model                        ... NOT USED
Auxiliary Coulomb fitting basis             ... AVAILABLE
   # of basis functions in Aux-J            ...   1176
   # of shells in Aux-J                     ...    360
   Maximum angular momentum in Aux-J        ...      4
Auxiliary J/K fitting basis                 ... NOT available
Auxiliary Correlation fitting basis         ... NOT available
Auxiliary 'external' fitting basis          ... NOT available
Integral threshold                          ...     2.500000e-11
Primitive cut-off                           ...     2.500000e-12
Primitive pair pre-selection threshold      ...     2.500000e-12

Calculating pre-screening integrals         ... done (  0.1 sec) Dimension = 264
Organizing shell pair data                  ... done (  0.4 sec)
Shell pair information
Total number of shell pairs                 ...     34980
Shell pairs after pre-screening             ...     21952
Total number of primitive shell pairs       ...    115968
Primitive shell pairs kept                  ...     46583
          la=0 lb=0:   4091 shell pairs
          la=1 lb=0:   5963 shell pairs
          la=1 lb=1:   2091 shell pairs
          la=2 lb=0:   3267 shell pairs
          la=2 lb=1:   2428 shell pairs
          la=2 lb=2:    688 shell pairs
          la=3 lb=0:   1477 shell pairs
          la=3 lb=1:   1167 shell pairs
          la=3 lb=2:    629 shell pairs
          la=3 lb=3:    151 shell pairs

Calculating one electron integrals          ... done (  0.1 sec)
Calculating RI/J V-Matrix + Cholesky decomp.... done (  0.1 sec)
Calculating Nuclear repulsion               ... done (  0.0 sec) ENN=   2636.152804373618 Eh

SHARK setup successfully completed in   1.1 seconds

Maximum memory used throughout the entire GTOINT-calculation: 38.8 MB


           ************************************************************
           *        Program running with 20 parallel MPI-processes    *
           *              working on a common directory               *
           ************************************************************
-------------------------------------------------------------------------------
                                 ORCA SCF
-------------------------------------------------------------------------------

------------
SCF SETTINGS
------------
Hamiltonian:
 Density Functional     Method          .... DFT(GTOs)
 Exchange Functional    Exchange        .... TPSS
 Correlation Functional Correlation     .... TPSS
 LDA part of GGA corr.  LDAOpt          .... PW91-LDA
 Gradients option       PostSCFGGA      .... off
 Hybrid DFT is turned on
   Fraction HF Exchange ScalHFX         ....  0.100000
   Scaling of DF-GGA-X  ScalDFX         ....  0.900000
   Scaling of DF-GGA-C  ScalDFC         ....  1.000000
   Scaling of DF-LDA-C  ScalLDAC        ....  1.000000
   Perturbative correction              ....  0.000000
   Density functional embedding theory  .... OFF
   NL short-range parameter             ....  5.200000
 RI-approximation to the Coulomb term is turned on
   Number of AuxJ basis functions       .... 1176
   RIJ-COSX (HFX calculated with COS-X)).... on


General Settings:
 Integral files         IntName         .... rf_mecn_opt_TPS_C8_D_B
 Hartree-Fock type      HFTyp           .... UHF
 Total Charge           Charge          ....   -1
 Multiplicity           Mult            ....    2
 Number of Electrons    NEL             ....  191
 Basis Dimension        Dim             ....  744
 Nuclear Repulsion      ENuc            ....   2636.1528043736 Eh

Convergence Acceleration:
 DIIS                   CNVDIIS         .... on
   Start iteration      DIISMaxIt       ....     0
   Startup error        DIISStart       ....  0.200000
   # of expansion vecs  DIISMaxEq       ....     5
   Bias factor          DIISBfac        ....   1.050
   Max. coefficient     DIISMaxC        ....  10.000
 Trust-Rad. Augm. Hess. CNVTRAH         .... auto
   Auto Start mean grad. ratio tolernc. ....  1.125000
   Auto Start start iteration           ....    20
   Auto Start num. interpolation iter.  ....    10
   Max. Number of Micro iterations      ....    16
   Max. Number of Macro iterations      .... Maxiter - #DIIS iter
   Number of Davidson start vectors     ....     2
   Converg. threshold I  (grad. norm)   ....   1.000e-05
   Converg. threshold II (energy diff.) ....   1.000e-08
   Grad. Scal. Fac. for Micro threshold ....   0.100
   Minimum threshold for Micro iter.    ....   0.010
   NR start threshold (gradient norm)   ....   0.001
   Initial trust radius                 ....   0.400
   Minimum AH scaling param. (alpha)    ....   1.000
   Maximum AH scaling param. (alpha)    .... 1000.000
   Orbital update algorithm             .... Taylor
   White noise on init. David. guess    .... on
   Maximum white noise                  ....   0.010
   Quad. conv. algorithm                .... NR
 SOSCF                  CNVSOSCF        .... off
 Level Shifting         CNVShift        .... on
   Level shift para.    LevelShift      ....    0.2500
   Turn off err/grad.   ShiftErr        ....    0.0000
 Zerner damping         CNVZerner       .... off
 Static damping         CNVDamp         .... on
   Fraction old density DampFac         ....    0.8500
   Max. Damping (<1)    DampMax         ....    0.9800
   Min. Damping (>=0)   DampMin         ....    0.0000
   Turn off err/grad.   DampErr         ....    0.0300
 Fernandez-Rico         CNVRico         .... off

SCF Procedure:
 Maximum # iterations   MaxIter         ....  1500
 SCF integral mode      SCFMode         .... Direct
   Integral package                     .... SHARK and LIBINT hybrid scheme
 Reset frequency        DirectResetFreq ....    20
 Integral Threshold     Thresh          ....  2.500e-11 Eh
 Primitive CutOff       TCut            ....  2.500e-12 Eh

Convergence Tolerance:
 Convergence Check Mode ConvCheckMode   .... Total+1el-Energy
 Convergence forced     ConvForced      .... 0
 Energy Change          TolE            ....  1.000e-08 Eh
 1-El. energy change                    ....  1.000e-05 Eh
 DIIS Error             TolErr          ....  5.000e-07


Diagonalization of the overlap matrix:
Smallest eigenvalue                        ... 6.454e-05
Time for diagonalization                   ...    0.133 sec
Threshold for overlap eigenvalues          ... 1.000e-08
Number of eigenvalues below threshold      ... 0
Time for construction of square roots      ...    0.097 sec
Total time needed                          ...    0.234 sec

Time for model grid setup =    0.207 sec

------------------------------
INITIAL GUESS: MODEL POTENTIAL
------------------------------
Loading Hartree-Fock densities                     ... done
Calculating cut-offs                               ... done
Initializing the effective Hamiltonian             ... done
Setting up the integral package (SHARK)            ... done
Starting the Coulomb interaction                   ... done (   0.3 sec)
Reading the grid                                   ... done
Mapping shells                                     ... done
Starting the XC term evaluation                    ... done (   0.2 sec)
  promolecular density results
     # of electrons  =    190.000239354
     EX              =   -197.015607016
     EC              =     -6.648973499
     EX+EC           =   -203.664580514
Transforming the Hamiltonian                       ... done (   0.1 sec)
Diagonalizing the Hamiltonian                      ... done (   0.1 sec)
Back transforming the eigenvectors                 ... done (   0.0 sec)
Now organizing SCF variables                       ... done
                      ------------------
                      INITIAL GUESS DONE (   1.1 sec)
                      ------------------
-------------------
DFT GRID GENERATION
-------------------

General Integration Accuracy     IntAcc      ... 4.388
Radial Grid Type                 RadialGrid  ... OptM3 with GC (2021)
Angular Grid (max. ang.)         AngularGrid ... 4 (Lebedev-302)
Angular grid pruning method      GridPruning ... 4 (adaptive)
Weight generation scheme         WeightScheme... Becke
Basis function cutoff            BFCut       ... 1.0000e-11
Integration weight cutoff        WCut        ... 1.0000e-14
Angular grids for H and He will be reduced by one unit
Partially contracted basis set               ... off
Rotationally invariant grid construction     ... off

Total number of grid points                  ...   145464
Total number of batches                      ...     2283
Average number of points per batch           ...       63
Average number of grid points per atom       ...     6061
Time for grid setup =    1.072 sec

--------------------
COSX GRID GENERATION
--------------------

GRIDX 1
-------
General Integration Accuracy     IntAcc      ... 3.816
Radial Grid Type                 RadialGrid  ... OptM3 with GC (2021)
Angular Grid (max. ang.)         AngularGrid ... 1 (Lebedev-50)
Angular grid pruning method      GridPruning ... 4 (adaptive)
Weight generation scheme         WeightScheme... Becke
Basis function cutoff            BFCut       ... 1.0000e-11
Integration weight cutoff        WCut        ... 1.0000e-14
Angular grids for H and He will be reduced by one unit
Partially contracted basis set               ... on
Rotationally invariant grid construction     ... off

Total number of grid points                  ...    18276
Total number of batches                      ...      299
Average number of points per batch           ...       61
Average number of grid points per atom       ...      762
UseSFitting                                  ... on

GRIDX 2
-------
General Integration Accuracy     IntAcc      ... 4.020
Radial Grid Type                 RadialGrid  ... OptM3 with GC (2021)
Angular Grid (max. ang.)         AngularGrid ... 2 (Lebedev-110)
Angular grid pruning method      GridPruning ... 4 (adaptive)
Weight generation scheme         WeightScheme... Becke
Basis function cutoff            BFCut       ... 1.0000e-11
Integration weight cutoff        WCut        ... 1.0000e-14
Angular grids for H and He will be reduced by one unit
Partially contracted basis set               ... on
Rotationally invariant grid construction     ... off

Total number of grid points                  ...    43326
Total number of batches                      ...      692
Average number of points per batch           ...       62
Average number of grid points per atom       ...     1805
UseSFitting                                  ... on

GRIDX 3
-------
General Integration Accuracy     IntAcc      ... 4.338
Radial Grid Type                 RadialGrid  ... OptM3 with GC (2021)
Angular Grid (max. ang.)         AngularGrid ... 3 (Lebedev-194)
Angular grid pruning method      GridPruning ... 4 (adaptive)
Weight generation scheme         WeightScheme... Becke
Basis function cutoff            BFCut       ... 1.0000e-11
Integration weight cutoff        WCut        ... 1.0000e-14
Angular grids for H and He will be reduced by one unit
Partially contracted basis set               ... on
Rotationally invariant grid construction     ... off

Total number of grid points                  ...    95983
Total number of batches                      ...     1511
Average number of points per batch           ...       63
Average number of grid points per atom       ...     3999
UseSFitting                                  ... on

Time for X-Grid setup             =    1.603 sec


--------------------
CPCM SOLVATION MODEL
--------------------
CPCM parameters:
  Epsilon                                         ...      35.6880
  Refrac                                          ...       1.3442
  Rsolv                                           ...       1.3000
  Surface type                                    ... GAUSSIAN VDW
  Epsilon function type                           ...         CPCM
Solvent:                                     ... ACETONITRILE
SMD-CDS solvent descriptors:
  Soln                                       ...    1.3442
  Soln25                                     ...    1.3416
  Sola                                       ...    0.0700
  Solb                                       ...    0.3200
  Solg                                       ...   41.2500
  Solc                                       ...    0.0000
  Solh                                       ...    0.0000
Radii:
 Radius for C  used is    3.4960 Bohr (=   1.8500 Ang.)
 Radius for O  used is    4.0969 Bohr (=   2.1680 Ang.)
 Radius for F  used is    3.2692 Bohr (=   1.7300 Ang.)
Calculating surface                               ...        done! (  0.0s)
GEPOL surface points                              ...         1255
GEPOL Volume                                      ...    2140.3920
GEPOL Surface-area                                ...    1105.6671
Calculating surface distance matrix               ...        done! (  0.0s)
Performing Cholesky decomposition & store         ...        done! (  0.1s)
Overall time for CPCM initialization              ...                 0.1s
--------------
SCF ITERATIONS
--------------
ITER       Energy         Delta-E        Max-DP      RMS-DP      [F,P]     Damp
               ***  Starting incremental Fock matrix formation  ***
  0  -1853.4067554039   0.000000000000 0.03710252  0.00019199  0.1563437 0.8500
  1  -1853.5578412004  -0.151085796517 0.05788009  0.00021741  0.1023180 0.8500
                               ***Turning on DIIS***
  2  -1853.6328803003  -0.075039099894 0.04396165  0.00015840  0.0575578 0.8500
  3  -1853.6723253078  -0.039445007430 0.11368870  0.00049985  0.0292386 0.0000
  4  -1853.8375864767  -0.165261168939 0.01210810  0.00003879  0.0350755 0.8500
  5  -1853.8426787463  -0.005092269587 0.10184384  0.00032469  0.0298993 0.0000
  6  -1853.8601831007  -0.017504354382 0.01245852  0.00005354  0.0084516 0.0000
  7  -1853.8611573935  -0.000974292833 0.00329881  0.00001445  0.0025555 0.0000
  8  -1853.8612255918  -0.000068198274 0.00127450  0.00000660  0.0025309 0.0000
  9  -1853.8612708650  -0.000045273263 0.00078372  0.00000345  0.0003608 0.0000
               *** Restarting incremental Fock matrix formation ***
                                   *** Resetting DIIS ***
 10  -1853.8612805579  -0.000009692870 0.00046420  0.00000233  0.0002580 0.0000
 11  -1853.8612815178  -0.000000959875 0.00016630  0.00000097  0.0004105 0.0000
 12  -1853.8612830185  -0.000001500738 0.00017284  0.00000070  0.0000579 0.0000
 13  -1853.8612832805  -0.000000261956 0.00008804  0.00000040  0.0000447 0.0000
 14  -1853.8612833620  -0.000000081581 0.00004369  0.00000022  0.0000277 0.0000
 15  -1853.8612834348  -0.000000072797 0.00001547  0.00000014  0.0000094 0.0000
 16  -1853.8612834315   0.000000003356 0.00000793  0.00000008  0.0000066 0.0000
 17  -1853.8612834444  -0.000000012869 0.00000877  0.00000007  0.0000029 0.0000
 18  -1853.8612834990  -0.000000054655 0.00000718  0.00000005  0.0000025 0.0000
 19  -1853.8612834626   0.000000036454 0.00001291  0.00000005  0.0000013 0.0000
                            ***DIIS convergence achieved***

               *****************************************************
               *                     SUCCESS                       *
               *           SCF CONVERGED AFTER  20 CYCLES          *
               *****************************************************

Old exchange energy                            =    -19.871373605 Eh
New exchange energy                            =    -19.871378290 Eh
Exchange energy change after final integration =     -0.000004685 Eh
Total energy after final integration           =  -1853.861288185 Eh
Final COS-X integration done in                =    11.071 sec

SMD CDS free energy correction energy :                 4.00857     Kcal/mol
Total Energy after SMD CDS correction =             -1853.854900127 Eh

----------------
TOTAL SCF ENERGY
----------------

Total Energy       :        -1853.85490013 Eh          -50445.95646 eV

Components:
Nuclear Repulsion  :         2636.15280437 Eh           71733.36466 eV
Electronic Energy  :        -4490.00770450 Eh         -122179.32112 eV
One Electron Energy:        -7847.42394940 Eh         -213539.26179 eV
Two Electron Energy:         3357.41624490 Eh           91359.94067 eV
Max COSX asymmetry :            0.00000031 Eh               0.00001 eV
CPCM Dielectric    :           -0.08318412 Eh              -2.26356 eV
SMD CDS (Gcds)     :            0.00638806 Eh               0.17383 eV

Virial components:
Potential Energy   :        -3700.50057080 Eh         -100695.73980 eV
Kinetic Energy     :         1846.64567067 Eh           50249.78335 eV
Virial Ratio       :            2.00390396


DFT components:
N(Alpha)           :       96.000002881060 electrons
N(Beta)            :       94.999986335753 electrons
N(Total)           :      190.999989216813 electrons
E(X)               :     -180.647445146577 Eh       
E(C)               :       -6.696604928184 Eh       
E(XC)              :     -187.344050074762 Eh       
DFET-embed. en.    :        0.000000000000 Eh       
CPCM Solvation Model Properties:
Surface-charge          :            0.98960957
Charge-correction       :           -0.00103142 Eh              -0.02807 eV
Free-energy (cav+disp)  :            0.00638806 Eh               0.17383 eV

---------------
SCF CONVERGENCE
---------------

  Last Energy change         ...   -3.7372e-08  Tolerance :   1.0000e-08
  Last MAX-Density change    ...    0.0000e+00  Tolerance :   1.0000e-07
  Last RMS-Density change    ...    0.0000e+00  Tolerance :   5.0000e-09
  Last DIIS Error            ...    5.4612e-07  Tolerance :   5.0000e-07

             **** THE GBW FILE WAS UPDATED (rf_mecn_opt_TPS_C8_D_B.gbw) ****
             **** DENSITY rf_mecn_opt_TPS_C8_D_B.scfp WAS UPDATED ****
             **** ENERGY FILE WAS UPDATED (rf_mecn_opt_TPS_C8_D_B.en.tmp) ****
----------------------
UHF SPIN CONTAMINATION
----------------------

Warning: in a DFT calculation there is little theoretical justification to 
         calculate <S**2> as in Hartree-Fock theory. We will do it anyways
         but you should keep in mind that the values have only limited relevance

Expectation value of <S**2>     :     0.752786
Ideal value S*(S+1) for S=0.5   :     0.750000
Deviation                       :     0.002786

             **** THE GBW FILE WAS UPDATED (rf_mecn_opt_TPS_C8_D_B.gbw) ****
             **** DENSITY rf_mecn_opt_TPS_C8_D_B.scfp WAS UPDATED ****
----------------
ORBITAL ENERGIES
----------------
                 SPIN UP ORBITALS
  NO   OCC          E(Eh)            E(eV) 
   0   1.0000     -24.660110      -671.0357 
   1   1.0000     -24.659856      -671.0288 
   2   1.0000     -24.657356      -670.9608 
   3   1.0000     -24.656166      -670.9284 
   4   1.0000     -24.655836      -670.9194 
   5   1.0000     -24.655740      -670.9168 
   6   1.0000     -24.655557      -670.9118 
   7   1.0000     -24.652971      -670.8415 
   8   1.0000     -24.651657      -670.8057 
   9   1.0000     -24.649846      -670.7564 
  10   1.0000     -24.641682      -670.5343 
  11   1.0000     -24.637644      -670.4244 
  12   1.0000     -24.620282      -669.9519 
  13   1.0000     -24.617847      -669.8857 
  14   1.0000     -19.012987      -517.3697 
  15   1.0000     -19.011156      -517.3198 
  16   1.0000     -10.340739      -281.3858 
  17   1.0000     -10.340364      -281.3756 
  18   1.0000     -10.339971      -281.3649 
  19   1.0000     -10.334139      -281.2062 
  20   1.0000     -10.321861      -280.8721 
  21   1.0000     -10.321184      -280.8537 
  22   1.0000     -10.297621      -280.2125 
  23   1.0000     -10.228884      -278.3421 
  24   1.0000      -1.298428       -35.3320 
  25   1.0000      -1.288476       -35.0612 
  26   1.0000      -1.277404       -34.7599 
  27   1.0000      -1.270534       -34.5730 
  28   1.0000      -1.268307       -34.5124 
  29   1.0000      -1.259449       -34.2713 
  30   1.0000      -1.231627       -33.5143 
  31   1.0000      -1.228329       -33.4245 
  32   1.0000      -1.225481       -33.3470 
  33   1.0000      -1.220524       -33.2121 
  34   1.0000      -1.216793       -33.1106 
  35   1.0000      -1.215417       -33.0732 
  36   1.0000      -1.204123       -32.7659 
  37   1.0000      -1.176390       -32.0112 
  38   1.0000      -0.935697       -25.4616 
  39   1.0000      -0.877633       -23.8816 
  40   1.0000      -0.820593       -22.3295 
  41   1.0000      -0.798757       -21.7353 
  42   1.0000      -0.769259       -20.9326 
  43   1.0000      -0.729900       -19.8616 
  44   1.0000      -0.684668       -18.6308 
  45   1.0000      -0.651983       -17.7414 
  46   1.0000      -0.643126       -17.5004 
  47   1.0000      -0.611453       -16.6385 
  48   1.0000      -0.609754       -16.5923 
  49   1.0000      -0.600764       -16.3476 
  50   1.0000      -0.589898       -16.0519 
  51   1.0000      -0.588588       -16.0163 
  52   1.0000      -0.584046       -15.8927 
  53   1.0000      -0.571664       -15.5558 
  54   1.0000      -0.570420       -15.5219 
  55   1.0000      -0.564447       -15.3594 
  56   1.0000      -0.555504       -15.1160 
  57   1.0000      -0.550442       -14.9783 
  58   1.0000      -0.548701       -14.9309 
  59   1.0000      -0.539459       -14.6794 
  60   1.0000      -0.524988       -14.2857 
  61   1.0000      -0.523269       -14.2389 
  62   1.0000      -0.478902       -13.0316 
  63   1.0000      -0.478326       -13.0159 
  64   1.0000      -0.473129       -12.8745 
  65   1.0000      -0.467257       -12.7147 
  66   1.0000      -0.460129       -12.5208 
  67   1.0000      -0.454664       -12.3720 
  68   1.0000      -0.453985       -12.3536 
  69   1.0000      -0.450136       -12.2488 
  70   1.0000      -0.446383       -12.1467 
  71   1.0000      -0.443992       -12.0816 
  72   1.0000      -0.437385       -11.9018 
  73   1.0000      -0.435487       -11.8502 
  74   1.0000      -0.432782       -11.7766 
  75   1.0000      -0.427752       -11.6397 
  76   1.0000      -0.422029       -11.4840 
  77   1.0000      -0.419650       -11.4193 
  78   1.0000      -0.418159       -11.3787 
  79   1.0000      -0.416863       -11.3434 
  80   1.0000      -0.412960       -11.2372 
  81   1.0000      -0.409943       -11.1551 
  82   1.0000      -0.406721       -11.0674 
  83   1.0000      -0.402918       -10.9640 
  84   1.0000      -0.399671       -10.8756 
  85   1.0000      -0.389064       -10.5870 
  86   1.0000      -0.386120       -10.5068 
  87   1.0000      -0.374217       -10.1830 
  88   1.0000      -0.364451        -9.9172 
  89   1.0000      -0.349189        -9.5019 
  90   1.0000      -0.327813        -8.9202 
  91   1.0000      -0.318066        -8.6550 
  92   1.0000      -0.266557        -7.2534 
  93   1.0000      -0.231264        -6.2930 
  94   1.0000      -0.223863        -6.0916 
  95   1.0000      -0.221235        -6.0201 
  96   0.0000      -0.031535        -0.8581 
  97   0.0000      -0.015883        -0.4322 
  98   0.0000      -0.003410        -0.0928 
  99   0.0000       0.028314         0.7705 
 100   0.0000       0.041986         1.1425 
 101   0.0000       0.071413         1.9432 
 102   0.0000       0.083144         2.2625 
 103   0.0000       0.098831         2.6893 
 104   0.0000       0.107494         2.9251 
 105   0.0000       0.113973         3.1014 
 106   0.0000       0.121537         3.3072 
 107   0.0000       0.134019         3.6469 
 108   0.0000       0.140882         3.8336 
 109   0.0000       0.150392         4.0924 
 110   0.0000       0.160022         4.3544 
 111   0.0000       0.166315         4.5257 
 112   0.0000       0.178185         4.8487 
 113   0.0000       0.185063         5.0358 
 114   0.0000       0.192994         5.2516 
 115   0.0000       0.196275         5.3409 
 116   0.0000       0.201391         5.4801 
 117   0.0000       0.207229         5.6390 
 118   0.0000       0.218849         5.9552 
 119   0.0000       0.220655         6.0043 
 120   0.0000       0.225770         6.1435 
 121   0.0000       0.232894         6.3374 
 122   0.0000       0.234117         6.3707 
 123   0.0000       0.242042         6.5863 
 124   0.0000       0.246600         6.7103 
 125   0.0000       0.248121         6.7517 
 126   0.0000       0.253575         6.9001 
 127   0.0000       0.254277         6.9192 
 128   0.0000       0.273463         7.4413 
 129   0.0000       0.276371         7.5204 
 130   0.0000       0.281949         7.6722 
 131   0.0000       0.287984         7.8364 
 132   0.0000       0.295236         8.0338 
 133   0.0000       0.300991         8.1904 
 134   0.0000       0.306537         8.3413 
 135   0.0000       0.311711         8.4821 
 136   0.0000       0.319855         8.7037 
 137   0.0000       0.329796         8.9742 
 138   0.0000       0.335542         9.1306 
 139   0.0000       0.344037         9.3617 
 140   0.0000       0.349193         9.5020 
 141   0.0000       0.349376         9.5070 
 142   0.0000       0.377101        10.2614 
 143   0.0000       0.391769        10.6606 
 144   0.0000       0.395519        10.7626 
 145   0.0000       0.416089        11.3224 
 146   0.0000       0.420214        11.4346 
 147   0.0000       0.430309        11.7093 
 148   0.0000       0.434827        11.8322 
 149   0.0000       0.435297        11.8450 
 150   0.0000       0.444093        12.0844 
 151   0.0000       0.454360        12.3638 
 152   0.0000       0.461811        12.5665 
 153   0.0000       0.470397        12.8002 
 154   0.0000       0.472996        12.8709 
 155   0.0000       0.481182        13.0936 
 156   0.0000       0.485013        13.1979 
 157   0.0000       0.498579        13.5670 
 158   0.0000       0.503175        13.6921 
 159   0.0000       0.514747        14.0070 
 160   0.0000       0.526424        14.3247 
 161   0.0000       0.530515        14.4361 
 162   0.0000       0.534162        14.5353 
 163   0.0000       0.535125        14.5615 
 164   0.0000       0.548881        14.9358 
 165   0.0000       0.559111        15.2142 
 166   0.0000       0.575894        15.6709 
 167   0.0000       0.581035        15.8108 
 168   0.0000       0.584688        15.9102 
 169   0.0000       0.613833        16.7033 
 170   0.0000       0.620385        16.8815 
 171   0.0000       0.626131        17.0379 
 172   0.0000       0.640419        17.4267 
 173   0.0000       0.652693        17.7607 
 174   0.0000       0.657357        17.8876 
 175   0.0000       0.659045        17.9335 
 176   0.0000       0.671889        18.2830 
 177   0.0000       0.684080        18.6148 
 178   0.0000       0.690000        18.7758 
 179   0.0000       0.701115        19.0783 
 180   0.0000       0.706719        19.2308 
 181   0.0000       0.712048        19.3758 
 182   0.0000       0.722061        19.6483 
 183   0.0000       0.725256        19.7352 
 184   0.0000       0.726015        19.7559 
 185   0.0000       0.740543        20.1512 
 186   0.0000       0.743742        20.2382 
 187   0.0000       0.757854        20.6223 
 188   0.0000       0.762166        20.7396 
 189   0.0000       0.771832        21.0026 
 190   0.0000       0.779176        21.2025 
 191   0.0000       0.785957        21.3870 
 192   0.0000       0.797523        21.7017 
 193   0.0000       0.809741        22.0342 
 194   0.0000       0.816599        22.2208 
 195   0.0000       0.822384        22.3782 
 196   0.0000       0.831740        22.6328 
 197   0.0000       0.839525        22.8446 
 198   0.0000       0.843987        22.9660 
 199   0.0000       0.847860        23.0714 
 200   0.0000       0.856493        23.3064 
 201   0.0000       0.860340        23.4111 
 202   0.0000       0.869876        23.6705 
 203   0.0000       0.885642        24.0995 
 204   0.0000       0.893536        24.3144 
 205   0.0000       0.903341        24.5812 
 206   0.0000       0.910330        24.7713 
 207   0.0000       0.915501        24.9120 
 208   0.0000       0.926315        25.2063 
 209   0.0000       0.936632        25.4871 
 210   0.0000       0.942389        25.6437 
 211   0.0000       0.949960        25.8497 
 212   0.0000       0.955509        26.0007 
 213   0.0000       0.965284        26.2667 
 214   0.0000       0.975936        26.5566 
 215   0.0000       0.986209        26.8361 
 216   0.0000       0.998118        27.1602 
 217   0.0000       1.007167        27.4064 
 218   0.0000       1.023736        27.8573 
 219   0.0000       1.029905        28.0251 
 220   0.0000       1.041758        28.3477 
 221   0.0000       1.067720        29.0541 
 222   0.0000       1.070963        29.1424 
 223   0.0000       1.071747        29.1637 
 224   0.0000       1.084967        29.5235 
 225   0.0000       1.097922        29.8760 
 226   0.0000       1.107099        30.1257 
 227   0.0000       1.113848        30.3093 
 228   0.0000       1.115550        30.3556 
 229   0.0000       1.128282        30.7021 
 230   0.0000       1.132632        30.8205 
 231   0.0000       1.143594        31.1188 
 232   0.0000       1.155856        31.4525 
 233   0.0000       1.157047        31.4849 
 234   0.0000       1.168850        31.8060 
 235   0.0000       1.173077        31.9210 
 236   0.0000       1.175837        31.9962 
 237   0.0000       1.204446        32.7746 
 238   0.0000       1.205092        32.7922 
 239   0.0000       1.218367        33.1534 
 240   0.0000       1.228502        33.4292 
 241   0.0000       1.245259        33.8852 
 242   0.0000       1.249451        33.9993 
 243   0.0000       1.256108        34.1804 
 244   0.0000       1.269323        34.5400 
 245   0.0000       1.274981        34.6940 
 246   0.0000       1.293579        35.2001 
 247   0.0000       1.295721        35.2584 
 248   0.0000       1.315088        35.7854 
 249   0.0000       1.326095        36.0849 
 250   0.0000       1.354990        36.8711 
 251   0.0000       1.375851        37.4388 
 252   0.0000       1.383314        37.6419 
 253   0.0000       1.389679        37.8151 
 254   0.0000       1.408634        38.3309 
 255   0.0000       1.438313        39.1385 
 256   0.0000       1.458994        39.7013 
 257   0.0000       1.464915        39.8624 
 258   0.0000       1.477373        40.2014 
 259   0.0000       1.492754        40.6199 
 260   0.0000       1.536668        41.8149 
 261   0.0000       1.556598        42.3572 
 262   0.0000       1.572196        42.7816 
 263   0.0000       1.579903        42.9914 
 264   0.0000       1.605639        43.6916 
 265   0.0000       1.619492        44.0686 
 266   0.0000       1.628836        44.3229 
 267   0.0000       1.658415        45.1278 
 268   0.0000       1.691600        46.0308 
 269   0.0000       1.696709        46.1698 
 270   0.0000       1.712465        46.5985 
 271   0.0000       1.737284        47.2739 
 272   0.0000       1.759717        47.8843 
 273   0.0000       1.769980        48.1636 
 274   0.0000       1.775925        48.3254 
 275   0.0000       1.791700        48.7546 
 276   0.0000       1.802958        49.0610 
 277   0.0000       1.810095        49.2552 
 278   0.0000       1.826513        49.7019 
 279   0.0000       1.837669        50.0055 
 280   0.0000       1.845297        50.2131 
 281   0.0000       1.850727        50.3608 
 282   0.0000       1.860433        50.6250 
 283   0.0000       1.869133        50.8617 
 284   0.0000       1.887254        51.3548 
 285   0.0000       1.895437        51.5775 
 286   0.0000       1.897498        51.6335 
 287   0.0000       1.907382        51.9025 
 288   0.0000       1.916717        52.1565 
 289   0.0000       1.923652        52.3452 
 290   0.0000       1.935479        52.6670 
 291   0.0000       1.938913        52.7605 
 292   0.0000       1.944026        52.8996 
 293   0.0000       1.953054        53.1453 
 294   0.0000       1.962518        53.4028 
 295   0.0000       1.983595        53.9764 
 296   0.0000       2.001857        54.4733 
 297   0.0000       2.007755        54.6338 
 298   0.0000       2.021505        55.0080 
 299   0.0000       2.037937        55.4551 
 300   0.0000       2.042873        55.5894 
 301   0.0000       2.051858        55.8339 
 302   0.0000       2.053362        55.8748 
 303   0.0000       2.057141        55.9777 
 304   0.0000       2.066572        56.2343 
 305   0.0000       2.071180        56.3597 
 306   0.0000       2.074694        56.4553 
 307   0.0000       2.081096        56.6295 
 308   0.0000       2.085223        56.7418 
 309   0.0000       2.088763        56.8381 
 310   0.0000       2.102633        57.2156 
 311   0.0000       2.112805        57.4923 
 312   0.0000       2.122005        57.7427 
 313   0.0000       2.129931        57.9584 
 314   0.0000       2.134971        58.0955 
 315   0.0000       2.143601        58.3303 
 316   0.0000       2.150320        58.5132 
 317   0.0000       2.153924        58.6112 
 318   0.0000       2.166581        58.9557 
 319   0.0000       2.168582        59.0101 
 320   0.0000       2.178344        59.2758 
 321   0.0000       2.184676        59.4480 
 322   0.0000       2.217635        60.3449 
 323   0.0000       2.233316        60.7716 
 324   0.0000       2.244732        61.0823 
 325   0.0000       2.270777        61.7910 
 326   0.0000       2.278629        62.0047 
 327   0.0000       2.294671        62.4412 
 328   0.0000       2.298951        62.5576 
 329   0.0000       2.325404        63.2774 
 330   0.0000       2.334199        63.5168 
 331   0.0000       2.345622        63.8276 
 332   0.0000       2.360050        64.2202 
 333   0.0000       2.363023        64.3011 
 334   0.0000       2.380479        64.7761 
 335   0.0000       2.391932        65.0878 
 336   0.0000       2.411776        65.6278 
 337   0.0000       2.417816        65.7921 
 338   0.0000       2.435932        66.2851 
 339   0.0000       2.445504        66.5456 
 340   0.0000       2.452257        66.7293 
 341   0.0000       2.454747        66.7971 
 342   0.0000       2.458462        66.8981 
 343   0.0000       2.464506        67.0626 
 344   0.0000       2.469341        67.1942 
 345   0.0000       2.478857        67.4531 
 346   0.0000       2.482958        67.5647 
 347   0.0000       2.489947        67.7549 
 348   0.0000       2.510163        68.3050 
 349   0.0000       2.515311        68.4451 
 350   0.0000       2.516593        68.4800 
 351   0.0000       2.537303        69.0435 
 352   0.0000       2.570919        69.9583 
 353   0.0000       2.584234        70.3206 
 354   0.0000       2.593332        70.5681 
 355   0.0000       2.608170        70.9719 
 356   0.0000       2.619404        71.2776 
 357   0.0000       2.633780        71.6688 
 358   0.0000       2.636955        71.7552 
 359   0.0000       2.644444        71.9590 
 360   0.0000       2.684324        73.0442 
 361   0.0000       2.691662        73.2438 
 362   0.0000       2.721404        74.0532 
 363   0.0000       2.755215        74.9732 
 364   0.0000       2.769851        75.3715 
 365   0.0000       2.783613        75.7460 
 366   0.0000       2.821912        76.7881 
 367   0.0000       2.838336        77.2350 
 368   0.0000       2.852532        77.6213 
 369   0.0000       2.865474        77.9735 
 370   0.0000       2.876200        78.2654 
 371   0.0000       2.900057        78.9146 
 372   0.0000       2.905349        79.0586 
 373   0.0000       2.910382        79.1955 
 374   0.0000       2.925237        79.5997 
 375   0.0000       2.927807        79.6697 
 376   0.0000       2.933096        79.8136 
 377   0.0000       2.940119        80.0047 
 378   0.0000       2.952873        80.3518 
 379   0.0000       2.958988        80.5182 
 380   0.0000       2.973849        80.9225 
 381   0.0000       2.980883        81.1140 
 382   0.0000       2.991788        81.4107 
 383   0.0000       2.999279        81.6145 
 384   0.0000       3.008524        81.8661 
 385   0.0000       3.010134        81.9099 
 386   0.0000       3.014015        82.0155 
 387   0.0000       3.022912        82.2576 
 388   0.0000       3.040668        82.7408 
 389   0.0000       3.045875        82.8825 
 390   0.0000       3.050757        83.0153 
 391   0.0000       3.059222        83.2457 
 392   0.0000       3.070850        83.5621 
 393   0.0000       3.073018        83.6211 
 394   0.0000       3.084943        83.9456 
 395   0.0000       3.090882        84.1072 
 396   0.0000       3.101218        84.3884 
 397   0.0000       3.107939        84.5713 
 398   0.0000       3.122346        84.9634 
 399   0.0000       3.128269        85.1245 
 400   0.0000       3.129806        85.1664 
 401   0.0000       3.138884        85.4134 
 402   0.0000       3.141891        85.4952 
 403   0.0000       3.151126        85.7465 
 404   0.0000       3.154143        85.8286 
 405   0.0000       3.161577        86.0309 
 406   0.0000       3.167618        86.1953 
 407   0.0000       3.179266        86.5122 
 408   0.0000       3.186737        86.7155 
 409   0.0000       3.193294        86.8939 
 410   0.0000       3.206269        87.2470 
 411   0.0000       3.211081        87.3780 
 412   0.0000       3.215082        87.4868 
 413   0.0000       3.226469        87.7967 
 414   0.0000       3.236744        88.0763 
 415   0.0000       3.242938        88.2448 
 416   0.0000       3.248578        88.3983 
 417   0.0000       3.259681        88.7004 
 418   0.0000       3.268686        88.9455 
 419   0.0000       3.272238        89.0421 
 420   0.0000       3.277298        89.1798 
 421   0.0000       3.299269        89.7777 
 422   0.0000       3.303999        89.9064 
 423   0.0000       3.306291        89.9688 
 424   0.0000       3.308765        90.0361 
 425   0.0000       3.323018        90.4239 
 426   0.0000       3.347684        91.0951 
 427   0.0000       3.355897        91.3186 
 428   0.0000       3.359464        91.4157 
 429   0.0000       3.378444        91.9321 
 430   0.0000       3.394164        92.3599 
 431   0.0000       3.401753        92.5664 
 432   0.0000       3.419621        93.0526 
 433   0.0000       3.433595        93.4329 
 434   0.0000       3.453409        93.9720 
 435   0.0000       3.462903        94.2304 
 436   0.0000       3.485903        94.8562 
 437   0.0000       3.499582        95.2285 
 438   0.0000       3.513936        95.6191 
 439   0.0000       3.523794        95.8873 
 440   0.0000       3.543983        96.4367 
 441   0.0000       3.564850        97.0045 
 442   0.0000       3.568515        97.1042 
 443   0.0000       3.595355        97.8346 
 444   0.0000       3.614680        98.3604 
 445   0.0000       3.617017        98.4240 
 446   0.0000       3.633178        98.8638 
 447   0.0000       3.650711        99.3409 
 448   0.0000       3.661733        99.6408 
 449   0.0000       3.683549       100.2345 
 450   0.0000       3.712765       101.0295 
 451   0.0000       3.730746       101.5188 
 452   0.0000       3.743058       101.8538 
 453   0.0000       3.763247       102.4032 
 454   0.0000       3.764826       102.4461 
 455   0.0000       3.778381       102.8150 
 456   0.0000       3.792897       103.2100 
 457   0.0000       3.806371       103.5766 
 458   0.0000       3.814878       103.8081 
 459   0.0000       3.836191       104.3881 
 460   0.0000       3.843856       104.5966 
 461   0.0000       3.852450       104.8305 
 462   0.0000       3.860381       105.0463 
 463   0.0000       3.873339       105.3989 
 464   0.0000       3.876662       105.4893 
 465   0.0000       3.899641       106.1146 
 466   0.0000       3.909037       106.3703 
 467   0.0000       3.919977       106.6680 
 468   0.0000       3.932145       106.9991 
 469   0.0000       3.947716       107.4228 
 470   0.0000       3.958955       107.7286 
 471   0.0000       3.963801       107.8605 
 472   0.0000       3.969473       108.0149 
 473   0.0000       3.993612       108.6717 
 474   0.0000       4.000281       108.8532 
 475   0.0000       4.013223       109.2054 
 476   0.0000       4.029322       109.6434 
 477   0.0000       4.033092       109.7460 
 478   0.0000       4.042759       110.0091 
 479   0.0000       4.055426       110.3538 
 480   0.0000       4.063503       110.5735 
 481   0.0000       4.076069       110.9155 
 482   0.0000       4.096548       111.4727 
 483   0.0000       4.098462       111.5248 
 484   0.0000       4.105746       111.7230 
 485   0.0000       4.111847       111.8891 
 486   0.0000       4.121702       112.1572 
 487   0.0000       4.125255       112.2539 
 488   0.0000       4.131378       112.4205 
 489   0.0000       4.138630       112.6178 
 490   0.0000       4.146627       112.8355 
 491   0.0000       4.168948       113.4428 
 492   0.0000       4.170930       113.4968 
 493   0.0000       4.175717       113.6270 
 494   0.0000       4.200187       114.2929 
 495   0.0000       4.210875       114.5837 
 496   0.0000       4.227763       115.0433 
 497   0.0000       4.253262       115.7371 
 498   0.0000       4.266018       116.0843 
 499   0.0000       4.282560       116.5344 
 500   0.0000       4.304741       117.1379 
 501   0.0000       4.310296       117.2891 
 502   0.0000       4.331052       117.8539 
 503   0.0000       4.386277       119.3567 
 504   0.0000       4.419417       120.2585 
 505   0.0000       4.574090       124.4673 
 506   0.0000       4.620665       125.7347 
 507   0.0000       4.642773       126.3363 
 508   0.0000       4.684379       127.4684 
 509   0.0000       4.756433       129.4291 
 510   0.0000       4.783695       130.1710 
 511   0.0000       4.829156       131.4080 
 512   0.0000       4.953670       134.7962 
 513   0.0000       4.972172       135.2997 
 514   0.0000       5.060728       137.7094 
 515   0.0000       5.141822       139.9161 
 516   0.0000       5.151953       140.1918 
 517   0.0000       5.208022       141.7175 
 518   0.0000       5.219109       142.0192 
 519   0.0000       5.247940       142.8037 
 520   0.0000       5.249819       142.8548 
 521   0.0000       5.252430       142.9259 
 522   0.0000       5.261065       143.1609 
 523   0.0000       5.277343       143.6038 
 524   0.0000       5.313552       144.5891 
 525   0.0000       5.331152       145.0680 
 526   0.0000       5.358071       145.8005 
 527   0.0000       5.361688       145.8989 
 528   0.0000       5.371113       146.1554 
 529   0.0000       5.445433       148.1778 
 530   0.0000       5.461192       148.6066 
 531   0.0000       5.487763       149.3296 
 532   0.0000       5.496545       149.5686 
 533   0.0000       5.545807       150.9091 
 534   0.0000       5.613878       152.7614 
 535   0.0000       5.679148       154.5375 
 536   0.0000       5.743016       156.2754 
 537   0.0000       5.775362       157.1556 
 538   0.0000       5.878338       159.9577 
 539   0.0000       5.945366       161.7816 
 540   0.0000       6.193497       168.5336 
 541   0.0000       6.253016       170.1532 
 542   0.0000       6.354403       172.9121 
 543   0.0000       6.399884       174.1497 
 544   0.0000       6.431146       175.0004 
 545   0.0000       6.462112       175.8430 
 546   0.0000       6.755443       183.8250 
 547   0.0000       6.805176       185.1783 
 548   0.0000       6.852621       186.4693 
 549   0.0000       6.853159       186.4839 
 550   0.0000       6.857149       186.5925 
 551   0.0000       6.858507       186.6295 
 552   0.0000       6.859552       186.6579 
 553   0.0000       6.861659       186.7152 
 554   0.0000       6.862171       186.7292 
 555   0.0000       6.862524       186.7388 
 556   0.0000       6.864199       186.7843 
 557   0.0000       6.864863       186.8024 
 558   0.0000       6.867191       186.8658 
 559   0.0000       6.867754       186.8811 
 560   0.0000       6.868472       186.9006 
 561   0.0000       6.868972       186.9142 
 562   0.0000       6.873157       187.0281 
 563   0.0000       6.873793       187.0454 
 564   0.0000       6.874920       187.0761 
 565   0.0000       6.877058       187.1343 
 566   0.0000       6.879523       187.2013 
 567   0.0000       6.881122       187.2448 
 568   0.0000       6.881776       187.2626 
 569   0.0000       6.882393       187.2794 
 570   0.0000       6.883278       187.3035 
 571   0.0000       6.884602       187.3396 
 572   0.0000       6.885373       187.3605 
 573   0.0000       6.886868       187.4012 
 574   0.0000       6.890013       187.4868 
 575   0.0000       6.891886       187.5377 
 576   0.0000       6.893712       187.5874 
 577   0.0000       6.895182       187.6274 
 578   0.0000       6.895939       187.6481 
 579   0.0000       6.898156       187.7084 
 580   0.0000       6.900345       187.7679 
 581   0.0000       6.904132       187.8710 
 582   0.0000       6.905987       187.9215 
 583   0.0000       6.909011       188.0037 
 584   0.0000       6.909936       188.0289 
 585   0.0000       6.912722       188.1047 
 586   0.0000       6.916083       188.1962 
 587   0.0000       6.916429       188.2056 
 588   0.0000       6.924053       188.4131 
 589   0.0000       6.928111       188.5235 
 590   0.0000       6.934282       188.6914 
 591   0.0000       6.942156       188.9057 
 592   0.0000       6.954103       189.2308 
 593   0.0000       6.994126       190.3199 
 594   0.0000       6.996355       190.3805 
 595   0.0000       6.999752       190.4729 
 596   0.0000       7.002421       190.5456 
 597   0.0000       7.004587       190.6045 
 598   0.0000       7.009249       190.7314 
 599   0.0000       7.019751       191.0171 
 600   0.0000       7.035817       191.4543 
 601   0.0000       7.038693       191.5326 
 602   0.0000       7.043564       191.6651 
 603   0.0000       7.052452       191.9070 
 604   0.0000       7.058385       192.0684 
 605   0.0000       7.060257       192.1194 
 606   0.0000       7.063265       192.2012 
[...]
      dxy     :     0.000000
      f0      :    -0.000000  f :    -0.000000
      f+1     :     0.000000
      f-1     :    -0.000000
      f+2     :     0.000000
      f-2     :    -0.000000
      f+3     :    -0.000000
      f-3     :     0.000000
  2 O s       :     0.000000  s :     0.000000
      pz      :     0.000001  p :     0.000003
      px      :     0.000000
      py      :     0.000002
      dz2     :     0.000000  d :    -0.000000
      dxz     :     0.000000
      dyz     :    -0.000000
      dx2y2   :    -0.000000
      dxy     :    -0.000000
      f0      :    -0.000000  f :    -0.000000
      f+1     :     0.000000
      f-1     :    -0.000000
      f+2     :    -0.000000
      f-2     :    -0.000000
      f+3     :    -0.000000
      f-3     :     0.000000
  3 C s       :    -0.000001  s :    -0.000001
      pz      :    -0.000001  p :     0.000000
      px      :     0.000004
      py      :    -0.000003
      dz2     :    -0.000000  d :    -0.000002
      dxz     :     0.000000
      dyz     :    -0.000000
      dx2y2   :    -0.000002
      dxy     :     0.000000
      f0      :     0.000000  f :    -0.000000
      f+1     :    -0.000000
      f-1     :     0.000000
      f+2     :    -0.000000
      f-2     :     0.000000
      f+3     :    -0.000000
      f-3     :     0.000000
  4 C s       :    -0.000003  s :    -0.000003
      pz      :    -0.000002  p :    -0.000024
      px      :    -0.000012
      py      :    -0.000009
      dz2     :    -0.000001  d :    -0.000011
      dxz     :     0.000000
      dyz     :    -0.000000
      dx2y2   :    -0.000009
      dxy     :    -0.000001
      f0      :    -0.000000  f :    -0.000001
      f+1     :    -0.000000
      f-1     :    -0.000000
      f+2     :    -0.000000
      f-2     :    -0.000000
      f+3     :    -0.000001
      f-3     :     0.000000
  5 C s       :    -0.000005  s :    -0.000005
      pz      :    -0.000002  p :    -0.000058
      px      :    -0.000008
      py      :    -0.000047
      dz2     :     0.000001  d :    -0.000013
      dxz     :     0.000000
      dyz     :     0.000000
      dx2y2   :    -0.000023
      dxy     :     0.000008
      f0      :    -0.000000  f :    -0.000004
      f+1     :    -0.000000
      f-1     :     0.000000
      f+2     :    -0.000001
      f-2     :     0.000000
      f+3     :    -0.000003
      f-3     :    -0.000001
  6 C s       :    -0.000064  s :    -0.000064
      pz      :    -0.000033  p :    -0.000371
      px      :    -0.000247
      py      :    -0.000090
      dz2     :    -0.000004  d :    -0.000101
      dxz     :    -0.000003
      dyz     :    -0.000008
      dx2y2   :    -0.000072
      dxy     :    -0.000014
      f0      :    -0.000003  f :    -0.000012
      f+1     :     0.000001
      f-1     :     0.000001
      f+2     :    -0.000000
      f-2     :    -0.000001
      f+3     :    -0.000010
      f-3     :    -0.000001
  7 C s       :     0.000384  s :     0.000384
      pz      :    -0.000112  p :     0.003764
      px      :     0.002970
      py      :     0.000906
      dz2     :    -0.000072  d :    -0.000408
      dxz     :     0.000007
      dyz     :     0.000005
      dx2y2   :    -0.000799
      dxy     :     0.000451
      f0      :     0.000021  f :     0.000084
      f+1     :     0.000000
      f-1     :     0.000008
      f+2     :     0.000001
      f-2     :     0.000026
      f+3     :    -0.000088
      f-3     :     0.000116
  8 C s       :     0.007398  s :     0.007398
      pz      :     0.006063  p :     0.025096
      px      :     0.013195
      py      :     0.005838
      dz2     :     0.001166  d :     0.036120
      dxz     :     0.002597
      dyz     :     0.001034
      dx2y2   :     0.020110
      dxy     :     0.011213
      f0      :    -0.000008  f :     0.006750
      f+1     :     0.000063
      f-1     :     0.000952
      f+2     :     0.001975
      f-2     :     0.000022
      f+3     :     0.003624
      f-3     :     0.000121
  9 C s       :     0.092031  s :     0.092031
      pz      :     0.038014  p :     0.580563
      px      :     0.010624
      py      :     0.531925
      dz2     :     0.001774  d :     0.030730
      dxz     :     0.000560
      dyz     :     0.006452
      dx2y2   :     0.009346
      dxy     :     0.012599
      f0      :     0.000343  f :     0.004586
      f+1     :     0.001289
      f-1     :     0.001990
      f+2     :     0.001311
      f-2     :    -0.000183
      f+3     :     0.000295
      f-3     :    -0.000458
 10 F s       :     0.000000  s :     0.000000
      pz      :     0.000000  p :     0.000001
      px      :     0.000001
      py      :     0.000000
      dz2     :    -0.000000  d :     0.000000
      dxz     :     0.000000
      dyz     :    -0.000000
      dx2y2   :    -0.000000
      dxy     :     0.000000
      f0      :     0.000000  f :     0.000000
      f+1     :     0.000000
      f-1     :     0.000000
      f+2     :    -0.000000
      f-2     :     0.000000
      f+3     :     0.000000
      f-3     :     0.000000
 11 F s       :     0.000000  s :     0.000000
      pz      :     0.000000  p :     0.000001
      px      :     0.000001
      py      :    -0.000000
      dz2     :    -0.000000  d :    -0.000000
      dxz     :    -0.000000
      dyz     :    -0.000000
      dx2y2   :     0.000000
      dxy     :     0.000000
      f0      :    -0.000000  f :     0.000000
      f+1     :     0.000000
      f-1     :    -0.000000
      f+2     :     0.000000
      f-2     :     0.000000
      f+3     :     0.000000
      f-3     :    -0.000000
 12 F s       :     0.000000  s :     0.000000
      pz      :     0.000000  p :     0.000003
      px      :     0.000002
      py      :     0.000001
      dz2     :     0.000000  d :    -0.000000
      dxz     :    -0.000000
      dyz     :    -0.000000
      dx2y2   :    -0.000000
      dxy     :     0.000000
      f0      :    -0.000000  f :    -0.000000
      f+1     :     0.000000
      f-1     :    -0.000000
      f+2     :    -0.000000
      f-2     :    -0.000000
      f+3     :    -0.000000
      f-3     :    -0.000000
 13 F s       :    -0.000000  s :    -0.000000
      pz      :     0.000001  p :     0.000000
      px      :    -0.000001
      py      :    -0.000000
      dz2     :    -0.000000  d :    -0.000000
      dxz     :    -0.000000
      dyz     :    -0.000000
      dx2y2   :     0.000000
      dxy     :    -0.000000
      f0      :    -0.000000  f :    -0.000000
      f+1     :    -0.000000
      f-1     :    -0.000000
      f+2     :     0.000000
      f-2     :    -0.000000
      f+3     :    -0.000000
      f-3     :     0.000000
 14 F s       :     0.000003  s :     0.000003
      pz      :     0.000005  p :     0.000017
      px      :     0.000004
      py      :     0.000008
      dz2     :     0.000000  d :    -0.000001
      dxz     :    -0.000000
      dyz     :    -0.000000
      dx2y2   :    -0.000000
      dxy     :     0.000000
      f0      :     0.000000  f :     0.000000
      f+1     :    -0.000000
      f-1     :    -0.000000
      f+2     :     0.000000
      f-2     :     0.000000
      f+3     :     0.000000
      f-3     :    -0.000000
 15 F s       :     0.000002  s :     0.000002
      pz      :     0.000005  p :     0.000009
      px      :     0.000000
      py      :     0.000003
      dz2     :    -0.000000  d :    -0.000001
      dxz     :    -0.000001
      dyz     :    -0.000000
      dx2y2   :     0.000000
      dxy     :     0.000000
      f0      :    -0.000000  f :    -0.000000
      f+1     :    -0.000000
      f-1     :    -0.000000
      f+2     :    -0.000000
      f-2     :    -0.000000
      f+3     :     0.000000
      f-3     :    -0.000000
 16 F s       :     0.000027  s :     0.000027
      pz      :     0.000017  p :     0.000049
      px      :     0.000016
      py      :     0.000015
      dz2     :     0.000000  d :    -0.000002
      dxz     :    -0.000001
      dyz     :    -0.000001
      dx2y2   :    -0.000001
      dxy     :    -0.000000
      f0      :    -0.000000  f :    -0.000000
      f+1     :    -0.000000
      f-1     :    -0.000000
      f+2     :    -0.000000
      f-2     :    -0.000000
      f+3     :    -0.000000
      f-3     :    -0.000000
 17 F s       :     0.000017  s :     0.000017
      pz      :     0.000044  p :     0.000051
      px      :    -0.000016
      py      :     0.000023
      dz2     :    -0.000001  d :    -0.000005
      dxz     :    -0.000003
      dyz     :    -0.000001
      dx2y2   :    -0.000000
      dxy     :     0.000000
      f0      :    -0.000000  f :    -0.000000
      f+1     :    -0.000000
      f-1     :    -0.000000
      f+2     :    -0.000000
      f-2     :    -0.000000
      f+3     :    -0.000000
      f-3     :    -0.000000
 18 F s       :     0.000309  s :     0.000309
      pz      :     0.000176  p :     0.001824
      px      :     0.001719
      py      :    -0.000071
      dz2     :     0.000000  d :     0.000027
      dxz     :    -0.000006
      dyz     :    -0.000001
      dx2y2   :     0.000032
      dxy     :     0.000002
      f0      :    -0.000000  f :    -0.000000
      f+1     :     0.000000
      f-1     :    -0.000000
      f+2     :    -0.000000
      f-2     :    -0.000000
      f+3     :     0.000000
      f-3     :    -0.000000
 19 F s       :     0.000082  s :     0.000082
      pz      :     0.000044  p :     0.001025
      px      :    -0.000037
      py      :     0.001019
      dz2     :    -0.000000  d :     0.000033
      dxz     :    -0.000006
      dyz     :     0.000011
      dx2y2   :     0.000010
      dxy     :     0.000018
      f0      :    -0.000000  f :     0.000002
      f+1     :     0.000000
      f-1     :    -0.000000
      f+2     :     0.000001
      f-2     :     0.000001
      f+3     :     0.000000
      f-3     :    -0.000000
 20 F s       :     0.001680  s :     0.001680
      pz      :     0.000235  p :     0.028748
      px      :     0.008547
      py      :     0.019966
      dz2     :     0.000229  d :     0.000901
      dxz     :     0.000087
      dyz     :     0.000016
      dx2y2   :     0.000170
      dxy     :     0.000398
      f0      :     0.000004  f :     0.000044
      f+1     :     0.000000
      f-1     :     0.000009
      f+2     :    -0.000001
      f-2     :     0.000014
      f+3     :     0.000017
      f-3     :     0.000002
 21 F s       :    -0.000065  s :    -0.000065
      pz      :    -0.000298  p :    -0.000581
      px      :    -0.000253
      py      :    -0.000029
      dz2     :     0.000097  d :     0.000087
      dxz     :     0.000081
      dyz     :    -0.000069
      dx2y2   :    -0.000005
      dxy     :    -0.000016
      f0      :     0.000002  f :     0.000006
      f+1     :     0.000007
      f-1     :    -0.000003
      f+2     :     0.000000
      f-2     :    -0.000001
      f+3     :    -0.000000
      f-3     :     0.000000
 22 F s       :     0.003525  s :     0.003525
      pz      :    -0.000386  p :     0.078415
      px      :    -0.003711
      py      :     0.082512
      dz2     :     0.000799  d :     0.008922
      dxz     :     0.000547
      dyz     :     0.001414
      dx2y2   :     0.000651
      dxy     :     0.005512
      f0      :     0.000015  f :     0.000457
      f+1     :     0.000051
      f-1     :     0.000002
      f+2     :     0.000056
      f-2     :     0.000121
      f+3     :     0.000079
      f-3     :     0.000134
 23 F s       :     0.003382  s :     0.003382
      pz      :     0.000436  p :     0.075251
      px      :    -0.000875
      py      :     0.075689
      dz2     :     0.000874  d :     0.008849
      dxz     :     0.000199
      dyz     :     0.007336
      dx2y2   :    -0.000002
      dxy     :     0.000442
      f0      :     0.000022  f :     0.000461
      f+1     :     0.000016
      f-1     :     0.000369
      f+2     :    -0.000001
      f-2     :     0.000053
      f+3     :    -0.000000
      f-3     :     0.000001


                      *****************************
                      * MAYER POPULATION ANALYSIS *
                      *****************************

  NA   - Mulliken gross atomic population
  ZA   - Total nuclear charge
  QA   - Mulliken gross atomic charge
  VA   - Mayer's total valence
  BVA  - Mayer's bonded valence
  FA   - Mayer's free valence

  ATOM       NA         ZA         QA         VA         BVA        FA
  0 C      5.8326     6.0000     0.1674     4.6425     4.6425     0.0000
  1 O      8.4786     8.0000    -0.4786     1.9802     1.9802     0.0000
  2 O      8.4919     8.0000    -0.4919     1.9642     1.9642     0.0000
  3 C      5.6980     6.0000     0.3020     3.9489     3.9489    -0.0000
  4 C      5.7236     6.0000     0.2764     4.1503     4.1503     0.0000
  5 C      5.7026     6.0000     0.2974     4.2410     4.2410     0.0000
  6 C      5.7119     6.0000     0.2881     4.2507     4.2507     0.0000
  7 C      5.7317     6.0000     0.2683     4.2356     4.2354     0.0002
  8 C      5.6296     6.0000     0.3704     4.1336     4.1336    -0.0000
  9 C      5.7747     6.0000     0.2253     4.0708     3.3892     0.6816
 10 F      9.1958     9.0000    -0.1958     1.1003     1.1003     0.0000
 11 F      9.2011     9.0000    -0.2011     1.0845     1.0845    -0.0000
 12 F      9.1645     9.0000    -0.1645     1.1534     1.1534     0.0000
 13 F      9.1736     9.0000    -0.1736     1.1419     1.1419    -0.0000
 14 F      9.1576     9.0000    -0.1576     1.1640     1.1640     0.0000
 15 F      9.1560     9.0000    -0.1560     1.1680     1.1680     0.0000
 16 F      9.1522     9.0000    -0.1522     1.1723     1.1723     0.0000
 17 F      9.1523     9.0000    -0.1523     1.1743     1.1743     0.0000
 18 F      9.1544     9.0000    -0.1544     1.1743     1.1743     0.0000
 19 F      9.1523     9.0000    -0.1523     1.1718     1.1718     0.0000
 20 F      9.1617     9.0000    -0.1617     1.1571     1.1561     0.0010
 21 F      9.1507     9.0000    -0.1507     1.1722     1.1722     0.0000
 22 F      9.1255     9.0000    -0.1255     1.1958     1.1888     0.0070
 23 F      9.1268     9.0000    -0.1268     1.1947     1.1881     0.0066

  Mayer bond orders larger than 0.100000
B(  0-C ,  1-O ) :   1.8740 B(  0-C ,  2-O ) :   1.8469 B(  0-C ,  3-C ) :   0.8523 
B(  3-C ,  4-C ) :   0.9383 B(  3-C , 10-F ) :   1.0512 B(  3-C , 11-F ) :   1.0401 
B(  4-C ,  5-C ) :   0.9424 B(  4-C , 12-F ) :   1.0777 B(  4-C , 13-F ) :   1.0677 
B(  5-C ,  6-C ) :   0.9519 B(  5-C , 14-F ) :   1.0838 B(  5-C , 15-F ) :   1.0932 
B(  6-C ,  7-C ) :   0.9502 B(  6-C , 16-F ) :   1.0932 B(  6-C , 17-F ) :   1.0933 
B(  7-C ,  8-C ) :   0.9470 B(  7-C , 18-F ) :   1.0867 B(  7-C , 19-F ) :   1.0936 
B(  8-C ,  9-C ) :   0.9164 B(  8-C , 20-F ) :   1.0702 B(  8-C , 21-F ) :   1.1091 
B(  9-C , 22-F ) :   1.1535 B(  9-C , 23-F ) :   1.1602 

-------
TIMINGS
-------

Total SCF time: 0 days 0 hours 1 min 10 sec 

Total time                  ....      70.798 sec
Sum of individual times     ....      68.392 sec  ( 96.6%)

Fock matrix formation       ....      60.669 sec  ( 85.7%)
  Split-RI-J                ....       3.605 sec  (  5.9% of F)
  Chain of spheres X        ....      41.867 sec  ( 69.0% of F)
  XC integration            ....      10.237 sec  ( 16.9% of F)
    Basis function eval.    ....       0.618 sec  (  6.0% of XC)
    Density eval.           ....       3.743 sec  ( 36.6% of XC)
    XC-Functional eval.     ....       0.436 sec  (  4.3% of XC)
    XC-Potential eval.      ....       2.903 sec  ( 28.4% of XC)
Diagonalization             ....       3.413 sec  (  4.8%)
Density matrix formation    ....       0.138 sec  (  0.2%)
Population analysis         ....       0.263 sec  (  0.4%)
Initial guess               ....       0.482 sec  (  0.7%)
Orbital Transformation      ....       0.000 sec  (  0.0%)
Orbital Orthonormalization  ....       0.412 sec  (  0.6%)
DIIS solution               ....       1.344 sec  (  1.9%)
Grid generation             ....       2.083 sec  (  2.9%)

Maximum memory used throughout the entire SCF-calculation: 160.8 MB


-------------------------------------------------------------------------------
                          DFT DISPERSION CORRECTION                            
                                                                               
                              DFTD3 V3.1  Rev 1                                
                          USING Becke-Johnson damping                          
-------------------------------------------------------------------------------
The TPSSH functional is recognized
Active option DFTDOPT                   ...         4   

molecular C6(AA) [au] = 6305.568056 


            DFT-D V3
 parameters
 s6 scaling factor         :     1.0000 
 a1 scaling factor         :     0.4529 
 s8 scaling factor         :     2.2382 
 a2 scaling factor         :     4.6550 
 ad hoc parameters k1-k3   :    16.0000     1.3333    -4.0000 

 Edisp/kcal,au: -18.405674967611  -0.029331306960 
 E6   /kcal   :  -8.901598530 
 E8   /kcal   :  -9.504076438 
 % E8         :  51.636663444 

-------------------------   ----------------
Dispersion correction           -0.029331307
-------------------------   ----------------


-------------------------   --------------------
FINAL SINGLE POINT ENERGY     -1853.935933821948
-------------------------   --------------------

                                *** OPTIMIZATION RUN DONE ***

                            ***************************************
                            *     ORCA property calculations      *
                            ***************************************

                                    ---------------------
                                    Active property flags
                                    ---------------------
   (+) Dipole Moment


------------------------------------------------------------------------------
                       ORCA ELECTRIC PROPERTIES CALCULATION
------------------------------------------------------------------------------

Dipole Moment Calculation                       ... on
Quadrupole Moment Calculation                   ... off
Polarizability Calculation                      ... off
GBWName                                         ... rf_mecn_opt_TPS_C8_D_B.gbw
Electron density                                ... rf_mecn_opt_TPS_C8_D_B.scfp
The origin for moment calculation is the CENTER OF MASS  = ( 0.283778,  0.101133 -0.008686)

-------------
DIPOLE MOMENT
-------------
                                X             Y             Z
Electronic contribution:    -17.33225      -0.45517       1.67333
Nuclear contribution   :      8.62078       0.14372      -0.95639
                        -----------------------------------------
Total Dipole Moment    :     -8.71146      -0.31144       0.71694
                        -----------------------------------------
Magnitude (a.u.)       :      8.74646
Magnitude (Debye)      :     22.23174



--------------------
Rotational spectrum 
--------------------
 
Rotational constants in cm-1:     0.022643     0.004049     0.004017 
Rotational constants in MHz :   678.810059   121.375589   120.429206 

 Dipole components along the rotational axes: 
x,y,z [a.u.] :     8.688185     0.474193    -0.889481 
x,y,z [Debye]:    22.083610     1.205302    -2.260881 

 

Timings for individual modules:

Sum of individual times         ...     1336.906 sec (=  22.282 min)
GTO integral calculation        ...       14.640 sec (=   0.244 min)   1.1 %
SCF iterations                  ...     1085.376 sec (=  18.090 min)  81.2 %
SCF Gradient evaluation         ...      236.215 sec (=   3.937 min)  17.7 %
Geometry relaxation             ...        0.675 sec (=   0.011 min)   0.1 %
                             ****ORCA TERMINATED NORMALLY****
TOTAL RUN TIME: 0 days 0 hours 22 minutes 23 seconds 64 msec
