
                                 *****************
                                 * O   R   C   A *
                                 *****************

                                            #,                                       
                                            ###                                      
                                            ####                                     
                                            #####                                    
                                            ######                                   
                                           ########,                                 
                                     ,,################,,,,,                         
                               ,,#################################,,                 
                          ,,##########################################,,             
                       ,#########################################, ''#####,          
                    ,#############################################,,   '####,        
                  ,##################################################,,,,####,       
                ,###########''''           ''''###############################       
              ,#####''   ,,,,##########,,,,          '''####'''          '####       
            ,##' ,,,,###########################,,,                        '##       
           ' ,,###''''                  '''############,,,                           
         ,,##''                                '''############,,,,        ,,,,,,###''
      ,#''                                            '''#######################'''  
     '                                                          ''''####''''         
             ,#######,   #######,   ,#######,      ##                                
            ,#'     '#,  ##    ##  ,#'     '#,    #''#        ,####,   ,####,        
            ##       ##  ##   ,#'  ##            #'  '#       #'       #'  '#        
            ##       ##  #######   ##           ,######,      #####,   #    #        
            '#,     ,#'  ##    ##  '#,     ,#' ,#      #,     #,   #   #,  ,#        
             '#######'   ##     ##  '#######'  #'      '#     '####' # '####'        



                #########################################################
                #                        -***-                          #
                #          Department of theory and spectroscopy        #
                #                                                       #
                #                      Frank Neese                      #
                #                                                       #
                #     Directorship, Architecture, Infrastructure        #
                #                    SHARK, DRIVERS                     #
                #        Core code/Algorithms in most modules           #
                #                                                       #
                #        Max Planck Institute fuer Kohlenforschung      #
                #                Kaiser Wilhelm Platz 1                 #
                #                 D-45470 Muelheim/Ruhr                 #
                #                      Germany                          #
                #                                                       #
                #                  All rights reserved                  #
                #                        -***-                          #
                #########################################################


                         Program Version 6.0.1  -  RELEASE   -


 With contributions from (in alphabetic order):
[Max-Planck-Institut fuer Kohlenforschung]                               
  Daniel Aravena         : Magnetic Suceptibility                        
  Michael Atanasov       : Ab Initio Ligand Field Theory (pilot matlab implementation)
  Alexander A. Auer      : GIAO ZORA, VPT2 properties, NMR spectrum      
  Ute Becker             : All parallelization in ORCA, NUMFREQ, NUMCALC 
  Giovanni Bistoni       : ED, misc. LED, open-shell LED, HFLD           
  Martin Brehm           : Molecular dynamics                            
  Dmytro Bykov           : pre 5.0 version of the SCF Hessian            
  Marcos Casanova-Páez   : Triplet and SCS-CIS(D). UHF-(DLPNO)-IP/EA/STEOM-CCSD. UHF-CVS-IP/STEOM-CCSD   
  Vijay G. Chilkuri      : MRCI spin determinant printing, contributions to CSF-ICE 
  Pauline Colinet        : FMM embedding                                 
  Dipayan Datta          : RHF DLPNO-CCSD density                        
  Achintya Kumar Dutta   : EOM-CC, STEOM-CC                              
  Nicolas Foglia         : Exact transition moments, OPA infrastructure, MCD improvements    
  Dmitry Ganyushin       : Spin-Orbit,Spin-Spin,Magnetic field MRCI      
  Miquel Garcia-Rates    : C-PCM and meta-GGA Hessian, CCSD/C-PCM, Gaussian charge scheme 
  Tiago L. C. Gouveia    : GS-ROHF, GS-ROCIS                             
  Yang Guo               : DLPNO-NEVPT2, F12-NEVPT2, CIM, IAO-localization        
  Andreas Hansen         : Spin unrestricted coupled pair/coupled cluster methods 
  Ingolf Harden          : AUTO-CI MPn and infrastructure                
  Benjamin Helmich-Paris : MC-RPA, TRAH-(SCF,CASSCF), AVAS, COSX integrals, SCF dyn. polar. 
  Lee Huntington         : MR-EOM, pCC                                   
  Robert Izsak           : Overlap fitted RIJCOSX, COSX-SCS-MP3, EOM     
  Riya Kayal             : Wick's Theorem for AUTO-CI, AUTO-CI UHF-CCSDT 
  Emily Kempfer          : AUTO-CI, RHF CISDT and CCSDT                  
  Christian Kollmar      : KDIIS, OOCD, Brueckner-CCSD(T), CCSD density, CASPT2, CASPT2-K, improved NEVPT2 
  Axel Koslowski         : Symmetry handling                             
  Simone Kossmann        : meta-GGA functionals, TD-DFT gradient, OOMP2, (MP2 Hessian; deprecated post 5.0) 
  Lucas Lang             : DCDCAS                                        
  Marvin Lechner         : AUTO-CI (C++ implementation), FIC-MRCC        
  Spencer Leger          : CASSCF response                               
  Dagmar Lenk            : GEPOL surface, SMD, ORCA-2-JSON               
  Dimitrios Liakos       : Extrapolation schemes; Compound Job, initial MDCI parallelization 
  Dimitrios Manganas     : Further ROCIS development; embedding schemes. LFT, Crystal Embedding 
  Dimitrios Pantazis     : SARC Basis sets                               
  Anastasios Papadopoulos: AUTO-CI, single reference methods and gradients 
  Taras Petrenko         : pre 6.0 DFT Hessian and TD-DFT gradient, (ASA, deprecated), ECA, 1-Electron XAS/XES, NRVS 
  Peter Pinski           : DLPNO-MP2, DLPNO-MP2 Gradient                 
  Christoph Reimann      : Effective Core Potentials                     
  Marius Retegan         : Local ZFS, SOC                                
  Christoph Riplinger    : Optimizer, TS searches, QM/MM, DLPNO-CCSD(T), (RO)-DLPNO pert. Triples 
  Michael Roemelt        : Original ROCIS implementation                 
  Masaaki Saitow         : Open-shell DLPNO-CCSD energy and density      
  Barbara Sandhoefer     : DKH picture change effects                    
  Kantharuban Sivalingam : CASSCF convergence/infrastructure, NEVPT2 and variants, FIC-MRCI 
  Bernardo de Souza      : ESD, SOC TD-DFT                               
  Georgi L. Stoychev     : AutoAux, RI-MP2 NMR, DLPNO-MP2 response, X2C  
  Van Anh Tran           : RI-MP2 g-tensors                              
  Willem Van den Heuvel  : Paramagnetic NMR                              
  Zikuan Wang            : NOTCH, Electric field optimization            
  Frank Wennmohs         : Technical directorship and infrastructure     
  Hang Xu                : AUTO-CI-Response properties                   
                                                                         
[FACCTs GmbH]                                                            
  Markus Bursch, Miquel Garcia-Rates, Christoph Riplinger, Bernardo de Souza, Georgi L. Stoychev 
                                                                 
  APM, Basis sets (HGBS, AHGBS, def-TZVP (Ac-Lr), def2-XVPD (La-Lu)), CI-OPT, improved COSX, DLPNO-Multilevel,           
  DOCKER, DRACO, updates on ESD, GOAT, IRC, LR-CPCM, MBIS, meta-GGA TD-DFT gradient, ML-optimized integration grids, 
  MM, NACMEs, nearIR, NEB, NEB-TS, NL-DFT gradient (VV10), 2- and 3-layer-ONIOM, interface openCOSMO-RS, QMMM,   
  Crystal-QMMM, SF, symmetry and pop. for TD-DFT, r2SCAN hybrids, SOLVATOR                                   
                                                                         
[Other institutions]                                                     
  V. Asgeirsson          : NEB                                           
  Christoph Bannwarth    : sTDA-DFT, sTD-DFT, PBEh-3c, B97-3c, D3        
  Sebastian Ehlert       : rSCAN, r2SCAN, r2SCAN-3c, D4, dhf basis sets  
  Marvin Friede          : D4 for Fr, Ra, Ac-Lr                          
  Lars Goerigk           : TD-DFT with DH, B97 family of functionals     
  Stefan Grimme          : VdW corrections, initial TS optimization, DFT functionals, gCP, sTDA/sTD-DF 
  Waldemar Hujo          : DFT-NL                                        
  H. Jonsson             : NEB                                           
  Holger Kruse           : gCP                                           
  Marcel Mueller         : wB97X-3c, vDZP basis set                      
  Hagen Neugebauer       : wr2SCAN                                       
  Tobias Risthaus        : range-separated hybrid DFT                    
  Lukas Wittmann         : regularized MP2, r2SCAN double-hybrids, wr2SCAN        
                                                                         
We gratefully acknowledge several colleagues who have allowed us to      
interface, adapt or use parts of their codes:                            
  Ed Valeev, F. Pavosevic, A. Kumar             : LibInt (2-el integral package), F12 methods 
  Garnet Chan, S. Sharma, J. Yang, R. Olivares  : DMRG                   
  Ulf Ekstrom                                   : XCFun DFT Library      
  Mihaly Kallay                                 : mrcc  (arbitrary order and MRCC methods)
  Frank Weinhold                                : gennbo (NPA and NBO analysis)           
  Simon Mueller                                 : openCOSMO-RS                            
  Christopher J. Cramer and Donald G. Truhlar   : smd solvation model                     
  S Lehtola, MJT Oliveira, MAL Marques          : LibXC Library                           
  Liviu Ungur et al                             : ANISO software                          


 Your calculation uses the libint2 library for the computation of 2-el integrals
 For citations please refer to: http://libint.valeyev.net

 Your ORCA version has been built with support for libXC version: 6.2.2
 For citations please refer to: https://libxc.gitlab.io

 This ORCA versions uses:
   CBLAS   interface :  Fast vector & matrix operations
   LAPACKE interface :  Fast linear algebra routines
   SCALAPACK package :  Parallel linear algebra routines
   Shared memory     :  Shared parallel matrices
   BLAS/LAPACK       :  OpenBLAS 0.3.27  USE64BITINT DYNAMIC_ARCH NO_AFFINITY SkylakeX SINGLE_THREADED
        Core in use  :  SkylakeX
   Copyright (c) 2011-2014, The OpenBLAS Project


NOTE: MaxCore=8000 MB was set to SCF,MP2,MDCI,CIPSI,MRCI and CIS
      => If you want to overwrite this, your respective input block should be placed after the MaxCore statement
Your calculation utilizes the atom-pairwise dispersion correction
with the Becke-Johnson damping scheme (D3BJ)


Your calculation utilizes the SMD solvation module
Please cite in your paper:
A.V. Marenich, C.J. Cramer, D.G. Truhlar J. Phys. Chem. B, 113, (2009), 6378 

Warning: RI is on but no J-basis has been assigned. Assigning Def2/J (nothing to worry about!)
================================================================================

----- Orbital basis set information -----
Your calculation utilizes the basis: def2-TZVP
   F. Weigend and R. Ahlrichs, Phys. Chem. Chem. Phys. 7, 3297 (2005).

----- AuxJ basis set information -----
Your calculation utilizes the auxiliary basis: def2/J
   F. Weigend, Phys. Chem. Chem. Phys. 8, 1057 (2006).

================================================================================
                                        WARNINGS
                       Please study these warnings very carefully!
================================================================================


WARNING: your system is open-shell and RHF/RKS was chosen
  ===> : WILL SWITCH to UHF/UKS


================================================================================
                                       INPUT FILE
================================================================================
NAME = rf_mecn_freq_TP_C8_D_B.inp
|  1> !TPSSh def2-TZVP freq d3 TightSCF SlowConv defgrid2
|  2>  
|  3> %pal
|  4> nprocs 20
|  5> end
|  6>  
|  7> %scf
|  8> MaxIter 1500
|  9> end
| 10>  
| 11> %maxcore 8000
| 12>  
| 13> !CPCM
| 14> %cpcm smd true
| 15> SMDsolvent "ACETONITRILE"
| 16> end
| 17>  
| 18> * xyz -1 2
| 19> 6        4.830367000      0.084452000     -0.361284000
| 20> 8        5.424081000     -0.776104000     -1.029031000
| 21> 8        5.078041000      1.283708000     -0.138023000
| 22> 6        3.507588000     -0.408846000      0.354522000
| 23> 6        2.231359000      0.293319000     -0.185240000
| 24> 6        0.880454000     -0.421509000      0.152845000
| 25> 6       -0.378246000      0.499734000     -0.004816000
| 26> 6       -1.726945000     -0.290864000     -0.100264000
| 27> 6       -2.998910000      0.558680000      0.209974000
| 28> 6       -4.274131000     -0.185152000     -0.163653000
| 29> 9        3.312341000     -1.757101000      0.214466000
| 30> 9        3.580349000     -0.169540000      1.703311000
| 31> 9        2.164492000      1.556380000      0.300192000
| 32> 9        2.327050000      0.363528000     -1.539903000
| 33> 9        0.731574000     -1.492681000     -0.660664000
| 34> 9        0.916888000     -0.857014000      1.432395000
| 35> 9       -0.436558000      1.334069000      1.056408000
| 36> 9       -0.249385000      1.241009000     -1.127646000
| 37> 9       -1.710030000     -1.322989000      0.772933000
| 38> 9       -1.842430000     -0.789799000     -1.351706000
| 39> 9       -2.909866000      1.744643000     -0.460724000
| 40> 9       -3.042580000      0.823423000      1.532186000
| 41> 9       -5.341278000      0.163775000      0.537566000
| 42> 9       -4.539707000     -0.237189000     -1.459431000
| 43> *
| 44> 
| 45>                          ****END OF INPUT****
================================================================================

                       ****************************
                       * Single Point Calculation *
                       ****************************

---------------------------------
CARTESIAN COORDINATES (ANGSTROEM)
---------------------------------
  C      4.830367    0.084452   -0.361284
  O      5.424081   -0.776104   -1.029031
  O      5.078041    1.283708   -0.138023
  C      3.507588   -0.408846    0.354522
  C      2.231359    0.293319   -0.185240
  C      0.880454   -0.421509    0.152845
  C     -0.378246    0.499734   -0.004816
  C     -1.726945   -0.290864   -0.100264
  C     -2.998910    0.558680    0.209974
  C     -4.274131   -0.185152   -0.163653
  F      3.312341   -1.757101    0.214466
  F      3.580349   -0.169540    1.703311
  F      2.164492    1.556380    0.300192
  F      2.327050    0.363528   -1.539903
  F      0.731574   -1.492681   -0.660664
  F      0.916888   -0.857014    1.432395
  F     -0.436558    1.334069    1.056408
  F     -0.249385    1.241009   -1.127646
  F     -1.710030   -1.322989    0.772933
  F     -1.842430   -0.789799   -1.351706
  F     -2.909866    1.744643   -0.460724
  F     -3.042580    0.823423    1.532186
  F     -5.341278    0.163775    0.537566
  F     -4.539707   -0.237189   -1.459431

----------------------------
CARTESIAN COORDINATES (A.U.)
----------------------------
  NO LB      ZA    FRAG     MASS         X           Y           Z
   0 C     6.0000    0    12.011    9.128071    0.159591   -0.682728
   1 O     8.0000    0    15.999   10.250028   -1.466624   -1.944587
   2 O     8.0000    0    15.999    9.596107    2.425857   -0.260826
   3 C     6.0000    0    12.011    6.628381   -0.772607    0.669949
   4 C     6.0000    0    12.011    4.216657    0.554293   -0.350053
   5 C     6.0000    0    12.011    1.663817   -0.796537    0.288835
   6 C     6.0000    0    12.011   -0.714781    0.944360   -0.009101
   7 C     6.0000    0    12.011   -3.263453   -0.549653   -0.189472
   8 C     6.0000    0    12.011   -5.667119    1.055752    0.396793
   9 C     6.0000    0    12.011   -8.076937   -0.349887   -0.309259
  10 F     9.0000    0    18.998    6.259417   -3.320440    0.405282
  11 F     9.0000    0    18.998    6.765879   -0.320384    3.218791
  12 F     9.0000    0    18.998    4.090297    2.941132    0.567281
  13 F     9.0000    0    18.998    4.397487    0.686968   -2.909995
  14 F     9.0000    0    18.998    1.382475   -2.820758   -1.248474
  15 F     9.0000    0    18.998    1.732667   -1.619522    2.706834
  16 F     9.0000    0    18.998   -0.824975    2.521025    1.996322
  17 F     9.0000    0    18.998   -0.471269    2.345167   -2.130942
  18 F     9.0000    0    18.998   -3.231488   -2.500087    1.460632
  19 F     9.0000    0    18.998   -3.481688   -1.492504   -2.554354
  20 F     9.0000    0    18.998   -5.498850    3.296897   -0.870642
  21 F     9.0000    0    18.998   -5.749643    1.556044    2.895412
  22 F     9.0000    0    18.998  -10.093553    0.309490    1.015853
  23 F     9.0000    0    18.998   -8.578803   -0.448222   -2.757925

--------------------------------
INTERNAL COORDINATES (ANGSTROEM)
--------------------------------
 C      0   0   0     0.000000000000     0.00000000     0.00000000
 O      1   0   0     1.240539801434     0.00000000     0.00000000
 O      1   2   0     1.244750110638   132.04071526     0.00000000
 C      1   2   3     1.582866207006   115.28888583   180.14187326
 C      4   1   2     1.553428197346   112.86516357   244.87553124
 C      5   4   1     1.565319410163   115.31259640   162.65422376
 C      6   5   4     1.567759977155   113.75490938   162.22910141
 C      7   6   5     1.566251739316   113.63216957   162.34364146
 C      8   7   6     1.560726621098   114.51351668   160.94064123
 C      9   8   7     1.522849886953   111.58092576   168.80203961
 F      4   1   2     1.369499404589   112.31562911     5.94233376
 F      4   1   2     1.371784710251   110.23969284   124.22108931
 F      5   4   1     1.354783566491   109.72198506   284.58313498
 F      5   4   1     1.359852166499   108.15956972    42.40431185
 F      6   5   4     1.353281789231   109.06106619   283.40992027
 F      6   5   4     1.352124344830   109.16103595    41.76906640
 F      7   6   5     1.351188943022   108.57274003   283.55894203
 F      7   6   5     1.351606818511   109.22453235    41.74718716
 F      8   7   6     1.352050714159   109.58472707    40.33603276
 F      8   7   6     1.352176023606   108.43314643   282.08286418
 F      9   8   7     1.365383784329   108.78425612    46.01063944
 F      9   8   7     1.349162887828   109.14733433   288.09682511
 F     10   9   8     1.323729903303   114.60483189   152.90073992
 F     10   9   8     1.323736788954   115.30069610   284.44148913

---------------------------
INTERNAL COORDINATES (A.U.)
---------------------------
 C      0   0   0     0.000000000000     0.00000000     0.00000000
 O      1   0   0     2.344280482939     0.00000000     0.00000000
 O      1   2   0     2.352236814274   132.04071526     0.00000000
 C      1   2   3     2.991183637880   115.28888583   180.14187326
 C      4   1   2     2.935553861695   112.86516357   244.87553124
 C      5   4   1     2.958024997320   115.31259640   162.65422376
 C      6   5   4     2.962637000546   113.75490938   162.22910141
 C      7   6   5     2.959786844084   113.63216957   162.34364146
 C      8   7   6     2.949345883796   114.51351668   160.94064123
 C      9   8   7     2.877769229415   111.58092576   168.80203961
 F      4   1   2     2.587978815242   112.31562911     5.94233376
 F      4   1   2     2.592297417075   110.23969284   124.22108931
 F      5   4   1     2.560169911405   109.72198506   284.58313498
 F      5   4   1     2.569748177302   108.15956972    42.40431185
 F      6   5   4     2.557331963670   109.06106619   283.40992027
 F      6   5   4     2.555144710736   109.16103595    41.76906640
 F      7   6   5     2.553377057494   108.57274003   283.55894203
 F      7   6   5     2.554166727727   109.22453235    41.74718716
 F      8   7   6     2.555005568934   109.58472707    40.33603276
 F      8   7   6     2.555242369469   108.43314643   282.08286418
 F      9   8   7     2.580201420079   108.78425612    46.01063944
 F      9   8   7     2.549548368046   109.14733433   288.09682511
 F     10   9   8     2.501486992525   114.60483189   152.90073992
 F     10   9   8     2.501500004518   115.30069610   284.44148913

---------------------
BASIS SET INFORMATION
---------------------
There are 3 groups of distinct atoms

 Group   1 Type C   : 11s6p2d1f contracted to 5s3p2d1f pattern {62111/411/11/1}
 Group   2 Type O   : 11s6p2d1f contracted to 5s3p2d1f pattern {62111/411/11/1}
 Group   3 Type F   : 11s6p2d1f contracted to 5s3p2d1f pattern {62111/411/11/1}

Atom   0C    basis set group =>   1
Atom   1O    basis set group =>   2
Atom   2O    basis set group =>   2
Atom   3C    basis set group =>   1
Atom   4C    basis set group =>   1
Atom   5C    basis set group =>   1
Atom   6C    basis set group =>   1
Atom   7C    basis set group =>   1
Atom   8C    basis set group =>   1
Atom   9C    basis set group =>   1
Atom  10F    basis set group =>   3
Atom  11F    basis set group =>   3
Atom  12F    basis set group =>   3
Atom  13F    basis set group =>   3
Atom  14F    basis set group =>   3
Atom  15F    basis set group =>   3
Atom  16F    basis set group =>   3
Atom  17F    basis set group =>   3
Atom  18F    basis set group =>   3
Atom  19F    basis set group =>   3
Atom  20F    basis set group =>   3
Atom  21F    basis set group =>   3
Atom  22F    basis set group =>   3
Atom  23F    basis set group =>   3
---------------------------------
AUXILIARY/J BASIS SET INFORMATION
---------------------------------
There are 3 groups of distinct atoms

 Group   1 Type C   : 12s5p4d2f1g contracted to 6s4p3d1f1g pattern {711111/2111/211/2/1}
 Group   2 Type O   : 12s5p4d2f1g contracted to 6s4p3d1f1g pattern {711111/2111/211/2/1}
 Group   3 Type F   : 12s5p4d2f1g contracted to 6s4p3d1f1g pattern {711111/2111/211/2/1}

Atom   0C    basis set group =>   1
Atom   1O    basis set group =>   2
Atom   2O    basis set group =>   2
Atom   3C    basis set group =>   1
Atom   4C    basis set group =>   1
Atom   5C    basis set group =>   1
Atom   6C    basis set group =>   1
Atom   7C    basis set group =>   1
Atom   8C    basis set group =>   1
Atom   9C    basis set group =>   1
Atom  10F    basis set group =>   3
Atom  11F    basis set group =>   3
Atom  12F    basis set group =>   3
Atom  13F    basis set group =>   3
Atom  14F    basis set group =>   3
Atom  15F    basis set group =>   3
Atom  16F    basis set group =>   3
Atom  17F    basis set group =>   3
Atom  18F    basis set group =>   3
Atom  19F    basis set group =>   3
Atom  20F    basis set group =>   3
Atom  21F    basis set group =>   3
Atom  22F    basis set group =>   3
Atom  23F    basis set group =>   3


           ************************************************************
           *        Program running with 20 parallel MPI-processes    *
           *              working on a common directory               *
           ************************************************************
------------------------------------------------------------------------------
                             ORCA STARTUP CALCULATIONS
                           -- RI-GTO INTEGRALS CHOSEN --
------------------------------------------------------------------------------
------------------------------------------------------------------------------
                   ___                                                        
                  /   \      - P O W E R E D   B Y -                         
                 /     \                                                     
                 |  |  |   _    _      __       _____    __    __             
                 |  |  |  | |  | |    /  \     |  _  \  |  |  /  |          
                  \  \/   | |  | |   /    \    | | | |  |  | /  /          
                 / \  \   | |__| |  /  /\  \   | |_| |  |  |/  /          
                |  |  |   |  __  | /  /__\  \  |    /   |      \           
                |  |  |   | |  | | |   __   |  |    \   |  |\   \          
                \     /   | |  | | |  |  |  |  | |\  \  |  | \   \       
                 \___/    |_|  |_| |__|  |__|  |_| \__\ |__|  \__/        
                                                                              
                      - O R C A' S   B I G   F R I E N D -                    
                                      &                                       
                       - I N T E G R A L  F E E D E R -                       
                                                                              
 v1 FN, 2020, v2 2021, v3 2022-2024                                           
------------------------------------------------------------------------------


----------------------
SHARK INTEGRAL PACKAGE
----------------------

Number of atoms                             ...     24
Number of basis functions                   ...    744
Number of shells                            ...    264
Maximum angular momentum                    ...      3
Integral batch strategy                     ... SHARK/LIBINT Hybrid
RI-J (if used) integral strategy            ... SPLIT-RIJ (Revised 2003 algorithm where possible)
Printlevel                                  ...      1
Contraction scheme used                     ... SEGMENTED contraction
Prescreening option                         ... SCHWARTZ
   Thresh                                   ... 2.500e-11
   Tcut                                     ... 2.500e-12
   Tpresel                                  ... 2.500e-12 
Coulomb Range Separation                    ... NOT USED
Exchange Range Separation                   ... NOT USED
Multipole approximations                    ... NOT USED
Finite Nucleus Model                        ... NOT USED
CABS basis                                  ... NOT available
Auxiliary Coulomb fitting basis             ... AVAILABLE
   # of basis functions in Aux-J            ...   1176
   # of shells in Aux-J                     ...    360
   Maximum angular momentum in Aux-J        ...      4
Auxiliary J/K fitting basis                 ... NOT available
Auxiliary Correlation fitting basis         ... NOT available
Auxiliary 'external' fitting basis          ... NOT available

Checking pre-screening integrals            ... done (  0.0 sec) Dimension = 264
Check shell pair data                       ... done (  0.0 sec)
Shell pair information
Shell pair cut-off parameter TPreSel        ...   2.5e-12
Total number of shell pairs                 ...     34980
Shell pairs after pre-screening             ...     22012
Total number of primitive shell pairs       ...    115968
Primitive shell pairs kept                  ...     46835
          la=0 lb=0:   4106 shell pairs
          la=1 lb=0:   5979 shell pairs
          la=1 lb=1:   2095 shell pairs
          la=2 lb=0:   3281 shell pairs
          la=2 lb=1:   2426 shell pairs
          la=2 lb=2:    689 shell pairs
          la=3 lb=0:   1485 shell pairs
          la=3 lb=1:   1168 shell pairs
          la=3 lb=2:    633 shell pairs
          la=3 lb=3:    150 shell pairs

Calculating one electron integrals          ... done (  0.0 sec)
Calculating RI/J V-Matrix + Cholesky decomp.... done (  0.1 sec)
Calculating Nuclear repulsion               ... done (  0.0 sec) ENN=   2646.878156730520 Eh

Diagonalization of the overlap matrix:
Smallest eigenvalue                        ... 6.205e-05
Time for diagonalization                   ...    0.094 sec
Threshold for overlap eigenvalues          ... 1.000e-07
Number of eigenvalues below threshold      ... 0
Time for construction of square roots      ...    0.041 sec
Total time needed                          ...    0.140 sec

-------------------
DFT GRID GENERATION
-------------------

General Integration Accuracy     IntAcc      ... 4.388
Radial Grid Type                 RadialGrid  ... OptM3 with GC (2021)
Angular Grid (max. ang.)         AngularGrid ... 4 (Lebedev-302)
Angular grid pruning method      GridPruning ... 4 (adaptive)
Weight generation scheme         WeightScheme... mBecke (2022)
Basis function cutoff            BFCut       ... 1.0000e-11
Integration weight cutoff        WCut        ... 1.0000e-14
Partially contracted basis set               ... off
Rotationally invariant grid construction     ... off
Angular grids for H and He will be reduced by one unit

Total number of grid points                  ...   145434
Total number of batches                      ...     2286
Average number of points per batch           ...       63
Average number of grid points per atom       ...     6060

--------------------
COSX GRID GENERATION
--------------------

GRIDX 1
-------
General Integration Accuracy     IntAcc      ... 3.816
Radial Grid Type                 RadialGrid  ... OptM3 with GC (2021)
Angular Grid (max. ang.)         AngularGrid ... 1 (Lebedev-50)
Angular grid pruning method      GridPruning ... 4 (adaptive)
Weight generation scheme         WeightScheme... mBecke (2022)
Basis function cutoff            BFCut       ... 1.0000e-11
Integration weight cutoff        WCut        ... 1.0000e-14
Partially contracted basis set               ... on
Rotationally invariant grid construction     ... off
Angular grids for H and He will be reduced by one unit

Total number of grid points                  ...    18276
Total number of batches                      ...      153
Average number of points per batch           ...      119
Average number of grid points per atom       ...      762
UseSFitting                                  ... on

GRIDX 2
-------
General Integration Accuracy     IntAcc      ... 4.020
Radial Grid Type                 RadialGrid  ... OptM3 with GC (2021)
Angular Grid (max. ang.)         AngularGrid ... 2 (Lebedev-110)
Angular grid pruning method      GridPruning ... 4 (adaptive)
Weight generation scheme         WeightScheme... mBecke (2022)
Basis function cutoff            BFCut       ... 1.0000e-11
Integration weight cutoff        WCut        ... 1.0000e-14
Partially contracted basis set               ... on
Rotationally invariant grid construction     ... off
Angular grids for H and He will be reduced by one unit

Total number of grid points                  ...    43322
Total number of batches                      ...      352
Average number of points per batch           ...      123
Average number of grid points per atom       ...     1805
UseSFitting                                  ... on

GRIDX 3
-------
General Integration Accuracy     IntAcc      ... 4.338
Radial Grid Type                 RadialGrid  ... OptM3 with GC (2021)
Angular Grid (max. ang.)         AngularGrid ... 3 (Lebedev-194)
Angular grid pruning method      GridPruning ... 4 (adaptive)
Weight generation scheme         WeightScheme... mBecke (2022)
Basis function cutoff            BFCut       ... 1.0000e-11
Integration weight cutoff        WCut        ... 1.0000e-14
Partially contracted basis set               ... on
Rotationally invariant grid construction     ... off
Angular grids for H and He will be reduced by one unit

Total number of grid points                  ...    95992
Total number of batches                      ...      760
Average number of points per batch           ...      126
Average number of grid points per atom       ...     4000
UseSFitting                                  ... on
Initializing property integral containers    ... done (  0.0 sec)

SHARK setup successfully completed in   2.9 seconds

Maximum memory used throughout the entire STARTUP-calculation: 57.1 MB


           ************************************************************
           *        Program running with 20 parallel MPI-processes    *
           *              working on a common directory               *
           ************************************************************
-------------------------------------------------------------------------------
                                 ORCA GUESS
                   Start orbitals & Density for SCF / CASSCF
-------------------------------------------------------------------------------

------------
SCF SETTINGS
------------
Hamiltonian:
 Density Functional     Method          .... DFT(GTOs)
 Exchange Functional    Exchange        .... TPSS
 Correlation Functional Correlation     .... TPSS
 LDA part of GGA corr.  LDAOpt          .... PW91-LDA
 Gradients option       PostSCFGGA      .... off
 Hybrid DFT is turned on
   Fraction HF Exchange ScalHFX         ....  0.100000
   Scaling of DF-GGA-X  ScalDFX         ....  0.900000
   Scaling of DF-GGA-C  ScalDFC         ....  1.000000
   Scaling of DF-LDA-C  ScalLDAC        ....  1.000000
   Perturbative correction              ....  0.000000
   NL short-range parameter             ....  5.200000
 RI-approximation to the Coulomb term is turned on
   Number of AuxJ basis functions       .... 1176
   RIJ-COSX (HFX calculated with COS-X)).... on


General Settings:
 Integral files         IntName         .... rf_mecn_freq_TP_C8_D_B
 Hartree-Fock type      HFTyp           .... UHF
 Total Charge           Charge          ....   -1
 Multiplicity           Mult            ....    2
 Number of Electrons    NEL             ....  191
 Basis Dimension        Dim             ....  744
 Nuclear Repulsion      ENuc            ....   2646.8781567305 Eh

Convergence Acceleration:
 AO-DIIS                CNVDIIS         .... on
   Start iteration      DIISMaxIt       ....     0
   Startup error        DIISStart       ....  0.200000
   # of expansion vecs  DIISMaxEq       ....     5
   Bias factor          DIISBfac        ....   1.050
   Max. coefficient     DIISMaxC        ....  10.000
 MO-DIIS                CNVKDIIS        .... off
 Trust-Rad. Augm. Hess. CNVTRAH         .... auto
   Auto Start mean grad. ratio tolernc. ....  1.125000
   Auto Start start iteration           ....    50
   Auto Start num. interpolation iter.  ....    10
   Max. Number of Micro iterations      ....    24
   Max. Number of Macro iterations      .... Maxiter - #DIIS iter
   Number of Davidson start vectors     ....     2
   Converg. threshold    (grad. norm)   ....   1.000e-05
   Grad. Scal. Fac. for Micro threshold ....   0.100
   Minimum threshold for Micro iter.    ....   1.000e-02
   NR start threshold (gradient norm)   ....   1.000e-04
   Initial trust radius                 ....   0.400
   Minimum AH scaling param. (alpha)    ....   1.000
   Maximum AH scaling param. (alpha)    .... 1000.000
   Quad. conv. algorithm                .... NR
   White noise on init. David. guess    .... on
   Maximum white noise                  ....   0.010
   Pseudo random numbers                .... off
   Inactive MOs                         .... canonical
   Orbital update algorithm             .... Taylor
   Preconditioner                       .... Diag
   Full preconditioner red. dimension   ....   250
 SOSCF                  CNVSOSCF        .... on
   Start iteration      SOSCFMaxIt      ....   150
   Startup grad/error   SOSCFStart      ....  0.001000
   Hessian update       SOSCFHessUp     .... L-BFGS
 Level Shifting         CNVShift        .... on
   Level shift para.    LevelShift      ....    0.2500
   Turn off err/grad.   ShiftErr        ....    0.0000
 Zerner damping         CNVZerner       .... off
 Static damping         CNVDamp         .... on
   Fraction old density DampFac         ....    0.8500
   Max. Damping (<1)    DampMax         ....    0.9800
   Min. Damping (>=0)   DampMin         ....    0.0000
   Turn off err/grad.   DampErr         ....    0.0300

SCF Procedure:
 Maximum # iterations   MaxIter         ....  1500
 SCF integral mode      SCFMode         .... Direct
   Integral package                     .... SHARK and LIBINT hybrid scheme
 Reset frequency        DirectResetFreq ....    20
 Integral Threshold     Thresh          ....  2.500e-11 Eh
 Primitive CutOff       TCut            ....  2.500e-12 Eh

Convergence Tolerance:
 Convergence Check Mode ConvCheckMode   .... Total+1el-Energy
 Convergence forced     ConvForced      .... 0
 Energy Change          TolE            ....  1.000e-08 Eh
 1-El. energy change                    ....  1.000e-05 Eh
 Orbital Gradient       TolG            ....  1.000e-05
 Orbital Rotation angle TolX            ....  1.000e-05
 DIIS Error             TolErr          ....  5.000e-07

------------------------------
INITIAL GUESS: MODEL POTENTIAL
------------------------------
Loading Hartree-Fock densities                     ... done
Calculating cut-offs                               ... done
Initializing the effective Hamiltonian             ... done
Setting up the integral package (SHARK)            ... done
Starting the Coulomb interaction                   ... done (   0.1 sec)
Making the grid                                    ... done (   0.4 sec)
Mapping shells                                     ... done
Starting the XC term evaluation                    ... done (   0.1 sec)
  promolecular density results
     # of electrons  =    189.999055903
     EX              =   -197.166847923
     EC              =     -6.668590479
     EX+EC           =   -203.835438402
Transforming the Hamiltonian                       ... done (   0.0 sec)
Diagonalizing the Hamiltonian                      ... done (   0.1 sec)
Back transforming the eigenvectors                 ... done (   0.0 sec)
Now organizing SCF variables                       ... done
                      ------------------
                      INITIAL GUESS DONE (   0.9 sec)
                      ------------------
             **** ENERGY FILE WAS UPDATED (rf_mecn_freq_TP_C8_D_B.en.tmp) ****
Finished Guess after   1.6 sec
Maximum memory used throughout the entire GUESS-calculation: 45.9 MB


           ************************************************************
           *        Program running with 20 parallel MPI-processes    *
           *              working on a common directory               *
           ************************************************************

-------------------------------------------------------------------------------------------
                                      ORCA LEAN-SCF
                              memory conserving SCF solver
-------------------------------------------------------------------------------------------

--------------------
CPCM SOLVATION MODEL
--------------------
CPCM parameters:
  Epsilon                                         ...      35.6880
  Refrac                                          ...       1.3442
  Rsolv                                           ...       1.3000
  Surface type                                    ... GAUSSIAN VDW
  Discretization scheme                           ... Constant charge density
    Threshold for H atoms                         ...       5.0000 (charges/Ang^2)
    Threshold for non-H atoms                     ...       5.0000 (charges/Ang^2)
  Epsilon function type                           ...         CPCM
Solvent:                                          ... ACETONITRILE
SMD-CDS solvent descriptors:
  Soln                                            ...       1.3442
  Soln25                                          ...       1.3416
  Sola                                            ...       0.0700
  Solb                                            ...       0.3200
  Solg                                            ...      41.2500
  Solc                                            ...       0.0000
  Solh                                            ...       0.0000
Radii:
  Scheme                                          ... Element-dependent radii
  Radius for C  used is    3.4960 Bohr (=   1.8500 Ang.)
  Radius for O  used is    4.0969 Bohr (=   2.1680 Ang.)
  Radius for F  used is    3.2692 Bohr (=   1.7300 Ang.)
Calculating surface                               ...        done! (  0.0s)
Cavity surface points                             ...         2099
Cavity Volume                                     ...    2106.1324
Cavity Surface-area                               ...    1094.9807
Calculating surface distance matrix               ...        done! (  0.0s)
Performing Cholesky decomposition & store         ...        done! (  0.1s)
Overall time for CPCM initialization              ...                 0.1s

----------------------------------------D-I-I-S--------------------------------------------
Iteration    Energy (Eh)           Delta-E    RMSDP     MaxDP     DIISErr   Damp  Time(sec)
-------------------------------------------------------------------------------------------
               ***  Starting incremental Fock matrix formation  ***
    1    -1853.4841863337633185     0.00e+00  2.65e-04  3.78e-02  1.55e-01  0.850   6.4
Warning: op=0 Small HOMO/LUMO gap (   0.030) - skipping pre-diagonalization
         Will do a full diagonalization
    2    -1853.6185371234405466    -1.34e-01  3.65e-04  7.74e-02  1.07e-01  0.850   4.1
                               ***Turning on AO-DIIS***
    3    -1853.6897950054853936    -7.13e-02  1.90e-04  3.73e-02  6.40e-02  0.850   3.7
    4    -1853.7322206521839689    -4.24e-02  1.00e-04  1.49e-02  4.74e-02  0.850   3.6
    5    -1853.7623684200652860    -3.01e-02  6.03e-05  7.74e-03  3.90e-02  0.850   3.5
    6    -1853.7862673990639450    -2.39e-02  4.49e-05  7.16e-03  3.35e-02  0.850   3.4
    7    -1853.8062025213930610    -1.99e-02  3.89e-05  6.66e-03  2.91e-02  0.850   3.4
    8    -1853.8231539976923159    -1.70e-02  2.30e-04  4.01e-02  2.46e-02  0.000   3.3
    9    -1853.9121134902034100    -8.90e-02  2.43e-05  1.85e-03  3.56e-03  0.000   3.8
   10    -1853.9123197482131218    -2.06e-04  1.30e-05  1.97e-03  1.61e-03  0.000   3.2
                              *** Initializing SOSCF ***
---------------------------------------S-O-S-C-F--------------------------------------
Iteration    Energy (Eh)           Delta-E    RMSDP     MaxDP     MaxGrad    Time(sec)
--------------------------------------------------------------------------------------
   11    -1853.9123553064091539    -3.56e-05  5.52e-06  7.45e-04  3.44e-04     3.4
               *** Restarting incremental Fock matrix formation ***
   12    -1853.9123564911160429    -1.18e-06  4.39e-06  5.86e-04  2.44e-04     6.1
   13    -1853.9123567826763974    -2.92e-07  2.66e-06  4.49e-04  2.07e-04     4.0
   14    -1853.9123580624009264    -1.28e-06  1.12e-06  1.31e-04  2.91e-05     3.7
   15    -1853.9123580401892468     2.22e-08  6.47e-07  1.13e-04  2.41e-05     3.5
   16    -1853.9123580915156708    -5.13e-08  5.08e-07  7.42e-05  1.90e-05     3.1
   17    -1853.9123580848663551     6.65e-09  3.92e-07  6.77e-05  2.08e-05     3.2
                 **** Energy Check signals convergence ****

               *****************************************************
               *                     SUCCESS                       *
               *           SCF CONVERGED AFTER  17 CYCLES          *
               *****************************************************

Recomputing exchange energy using gridx3       ... done (    6.967 sec)
Old exchange energy                            :    -19.902901521 Eh
New exchange energy                            :    -19.902919096 Eh
Exchange energy change after final integration :     -0.000017575 Eh
Total energy after final integration           :  -1853.912375660 Eh

SMD CDS free energy correction energy :                 3.48760     Kcal/mol
Total Energy after SMD CDS correction =             -1853.906817809 Eh
             **** ENERGY FILE WAS UPDATED (rf_mecn_freq_TP_C8_D_B.en.tmp) ****

----------------
TOTAL SCF ENERGY
----------------

Total Energy       :      -1853.90681780948557 Eh          -50447.36921 eV

Components:
Nuclear Repulsion  :       2646.87815673052046 Eh           72025.21634 eV
Electronic Energy  :      -4500.70680742356126 Eh         -122470.45851 eV
One Electron Energy:      -7869.11807410387428 Eh         -214129.58893 eV
Two Electron Energy:       3368.41126668031302 Eh           91659.13043 eV
CPCM Dielectric    :         -0.08370739182523 Eh              -2.27779 eV
SMD CDS (Gcds)     :          0.00555785022551 Eh               0.15124 eV

Virial components:
Potential Energy   :      -3701.54751685545125 Eh         -100724.22865 eV
Kinetic Energy     :       1847.64069904596568 Eh           50276.85945 eV
Virial Ratio       :          2.00339141628930

DFT components:
N(Alpha)           :       95.999994051028 electrons
N(Beta)            :       94.999978966186 electrons
N(Total)           :      190.999973017214 electrons
E(X)               :     -180.872989738484 Eh       
E(C)               :       -6.714488022651 Eh       
E(XC)              :     -187.587477761134 Eh       

CPCM Solvation Model Properties:
Surface-charge          :          0.98990909831165
Corrected charge        :          1.00000000000000
Outlying charge corr.   :          0.00000560056113 Eh               0.00015 eV
Free-energy (cav+disp)  :          0.00555785022551 Eh               0.15124 eV

---------------
SCF CONVERGENCE
---------------

  Last Energy change         ...   -6.6493e-09  Tolerance :   1.0000e-08
  Last MAX-Density change    ...    6.7742e-05  Tolerance :   1.0000e-07
  Last RMS-Density change    ...    3.9240e-07  Tolerance :   5.0000e-09
  Last DIIS Error            ...    3.4412e-04  Tolerance :   5.0000e-07
  Last Orbital Gradient      ...    2.0819e-05  Tolerance :   1.0000e-05
  Last Orbital Rotation      ...    2.3177e-05  Tolerance :   1.0000e-05


----------------------
UHF SPIN CONTAMINATION
----------------------

Warning: in a DFT calculation there is little theoretical justification to 
         calculate <S**2> as in Hartree-Fock theory. We will do it anyways
         but you should keep in mind that the values have only limited relevance

Expectation value of <S**2>     :     0.753234
Ideal value S*(S+1) for S=0.5   :     0.750000
Deviation                       :     0.003234

----------------
ORBITAL ENERGIES
----------------
                 SPIN UP ORBITALS
  NO   OCC          E(Eh)            E(eV) 
   0   1.0000     -24.663031      -671.1152 
   1   1.0000     -24.662850      -671.1103 
   2   1.0000     -24.656277      -670.9314 
   3   1.0000     -24.655648      -670.9143 
   4   1.0000     -24.654290      -670.8773 
   5   1.0000     -24.654226      -670.8756 
   6   1.0000     -24.653089      -670.8447 
   7   1.0000     -24.650305      -670.7689 
   8   1.0000     -24.649838      -670.7562 
   9   1.0000     -24.649155      -670.7376 
  10   1.0000     -24.638510      -670.4479 
  11   1.0000     -24.638398      -670.4449 
  12   1.0000     -24.614124      -669.7844 
  13   1.0000     -24.613795      -669.7754 
  14   1.0000     -18.988592      -516.7058 
  15   1.0000     -18.986615      -516.6521 
  16   1.0000     -10.338375      -281.3215 
  17   1.0000     -10.338263      -281.3184 
  18   1.0000     -10.338159      -281.3156 
  19   1.0000     -10.331844      -281.1438 
  20   1.0000     -10.316627      -280.7297 
  21   1.0000     -10.313430      -280.6427 
  22   1.0000     -10.279073      -279.7078 
  23   1.0000     -10.189797      -277.2785 
  24   1.0000      -1.298519       -35.3345 
  25   1.0000      -1.290078       -35.1048 
  26   1.0000      -1.278809       -34.7982 
  27   1.0000      -1.270678       -34.5769 
  28   1.0000      -1.268002       -34.5041 
  29   1.0000      -1.259522       -34.2733 
  30   1.0000      -1.232954       -33.5504 
  31   1.0000      -1.231420       -33.5086 
  32   1.0000      -1.228744       -33.4358 
  33   1.0000      -1.220693       -33.2167 
  34   1.0000      -1.214746       -33.0549 
  35   1.0000      -1.214348       -33.0441 
  36   1.0000      -1.203653       -32.7531 
  37   1.0000      -1.175479       -31.9864 
  38   1.0000      -0.996927       -27.1278 
  39   1.0000      -0.915707       -24.9177 
  40   1.0000      -0.821009       -22.3408 
  41   1.0000      -0.800131       -21.7727 
  42   1.0000      -0.769586       -20.9415 
  43   1.0000      -0.729060       -19.8387 
  44   1.0000      -0.683064       -18.5871 
  45   1.0000      -0.651204       -17.7202 
  46   1.0000      -0.641718       -17.4620 
  47   1.0000      -0.611767       -16.6470 
  48   1.0000      -0.610023       -16.5996 
  49   1.0000      -0.600645       -16.3444 
  50   1.0000      -0.591358       -16.0917 
  51   1.0000      -0.588271       -16.0077 
  52   1.0000      -0.584844       -15.9144 
  53   1.0000      -0.572804       -15.5868 
  54   1.0000      -0.570696       -15.5294 
  55   1.0000      -0.564183       -15.3522 
  56   1.0000      -0.554272       -15.0825 
  57   1.0000      -0.550140       -14.9701 
  58   1.0000      -0.546730       -14.8773 
  59   1.0000      -0.537592       -14.6286 
  60   1.0000      -0.526473       -14.3261 
  61   1.0000      -0.521530       -14.1916 
  62   1.0000      -0.478096       -13.0097 
  63   1.0000      -0.476638       -12.9700 
  64   1.0000      -0.471962       -12.8427 
  65   1.0000      -0.466948       -12.7063 
  66   1.0000      -0.460261       -12.5243 
  67   1.0000      -0.456036       -12.4094 
  68   1.0000      -0.453711       -12.3461 
  69   1.0000      -0.449240       -12.2244 
  70   1.0000      -0.445663       -12.1271 
  71   1.0000      -0.443289       -12.0625 
  72   1.0000      -0.437865       -11.9149 
  73   1.0000      -0.435876       -11.8608 
  74   1.0000      -0.431184       -11.7331 
  75   1.0000      -0.427307       -11.6276 
  76   1.0000      -0.422188       -11.4883 
  77   1.0000      -0.420022       -11.4294 
  78   1.0000      -0.418538       -11.3890 
  79   1.0000      -0.415514       -11.3067 
  80   1.0000      -0.411618       -11.2007 
  81   1.0000      -0.409570       -11.1450 
  82   1.0000      -0.405755       -11.0411 
  83   1.0000      -0.402814       -10.9611 
  84   1.0000      -0.400207       -10.8902 
  85   1.0000      -0.390383       -10.6228 
  86   1.0000      -0.382750       -10.4152 
  87   1.0000      -0.377626       -10.2757 
  88   1.0000      -0.374216       -10.1829 
  89   1.0000      -0.362964        -9.8768 
  90   1.0000      -0.349973        -9.5233 
  91   1.0000      -0.318277        -8.6607 
  92   1.0000      -0.248367        -6.7584 
  93   1.0000      -0.232191        -6.3182 
  94   1.0000      -0.217762        -5.9256 
  95   1.0000      -0.215606        -5.8669 
  96   0.0000      -0.014936        -0.4064 
  97   0.0000      -0.006458        -0.1757 
  98   0.0000       0.014759         0.4016 
  99   0.0000       0.041111         1.1187 
 100   0.0000       0.045864         1.2480 
 101   0.0000       0.083021         2.2591 
 102   0.0000       0.086460         2.3527 
 103   0.0000       0.108618         2.9556 
 104   0.0000       0.116260         3.1636 
 105   0.0000       0.125931         3.4268 
 106   0.0000       0.135641         3.6910 

                 SPIN DOWN ORBITALS
  NO   OCC          E(Eh)            E(eV) 
   0   1.0000     -24.659357      -671.0152 
   1   1.0000     -24.659010      -671.0058 
   2   1.0000     -24.656196      -670.9292 
   3   1.0000     -24.655604      -670.9131 
   4   1.0000     -24.654288      -670.8773 
   5   1.0000     -24.654224      -670.8756 
   6   1.0000     -24.653131      -670.8458 
   7   1.0000     -24.649838      -670.7562 
   8   1.0000     -24.649155      -670.7376 
   9   1.0000     -24.648820      -670.7285 
  10   1.0000     -24.638510      -670.4479 
  11   1.0000     -24.638398      -670.4449 
  12   1.0000     -24.614124      -669.7844 
  13   1.0000     -24.613795      -669.7754 
  14   1.0000     -18.988591      -516.7058 
  15   1.0000     -18.986615      -516.6521 
  16   1.0000     -10.338385      -281.3218 
  17   1.0000     -10.338258      -281.3183 
  18   1.0000     -10.337342      -281.2934 
  19   1.0000     -10.331848      -281.1439 
  20   1.0000     -10.316628      -280.7297 
  21   1.0000     -10.297249      -280.2024 
  22   1.0000     -10.279073      -279.7078 
  23   1.0000     -10.189797      -277.2785 
  24   1.0000      -1.297343       -35.3025 
  25   1.0000      -1.285534       -34.9812 
  26   1.0000      -1.276943       -34.7474 
  27   1.0000      -1.270643       -34.5760 
  28   1.0000      -1.265979       -34.4490 
  29   1.0000      -1.259518       -34.2732 
  30   1.0000      -1.231513       -33.5112 
  31   1.0000      -1.230184       -33.4750 
  32   1.0000      -1.225377       -33.3442 
  33   1.0000      -1.219984       -33.1975 
  34   1.0000      -1.214707       -33.0539 
  35   1.0000      -1.212669       -32.9984 
  36   1.0000      -1.203653       -32.7531 
  37   1.0000      -1.175479       -31.9864 
  38   1.0000      -0.996927       -27.1278 
  39   1.0000      -0.915707       -24.9177 
  40   1.0000      -0.819362       -22.2960 
  41   1.0000      -0.796807       -21.6822 
  42   1.0000      -0.765522       -20.8309 
  43   1.0000      -0.724481       -19.7141 
  44   1.0000      -0.678565       -18.4647 
  45   1.0000      -0.646159       -17.5829 
  46   1.0000      -0.641667       -17.4607 
  47   1.0000      -0.610567       -16.6144 
  48   1.0000      -0.607983       -16.5441 
  49   1.0000      -0.599000       -16.2996 
  50   1.0000      -0.589271       -16.0349 
  51   1.0000      -0.585654       -15.9365 
  52   1.0000      -0.583164       -15.8687 
  53   1.0000      -0.569849       -15.5064 
  54   1.0000      -0.569543       -15.4980 
  55   1.0000      -0.562251       -15.2996 
  56   1.0000      -0.553239       -15.0544 
  57   1.0000      -0.548633       -14.9291 
  58   1.0000      -0.546072       -14.8594 
  59   1.0000      -0.537201       -14.6180 
  60   1.0000      -0.521530       -14.1915 
  61   1.0000      -0.496686       -13.5155 
  62   1.0000      -0.477050       -12.9812 
  63   1.0000      -0.475779       -12.9466 
  64   1.0000      -0.470466       -12.8020 
  65   1.0000      -0.466296       -12.6886 
  66   1.0000      -0.459922       -12.5151 
  67   1.0000      -0.453169       -12.3313 
  68   1.0000      -0.449649       -12.2356 
  69   1.0000      -0.446040       -12.1374 
  70   1.0000      -0.445219       -12.1150 
  71   1.0000      -0.438951       -11.9445 
  72   1.0000      -0.437364       -11.9013 
  73   1.0000      -0.432323       -11.7641 
  74   1.0000      -0.429268       -11.6810 
  75   1.0000      -0.426791       -11.6136 
  76   1.0000      -0.420000       -11.4288 
  77   1.0000      -0.418950       -11.4002 
  78   1.0000      -0.417377       -11.3574 
  79   1.0000      -0.415139       -11.2965 
  80   1.0000      -0.411322       -11.1926 
  81   1.0000      -0.408919       -11.1273 
  82   1.0000      -0.405471       -11.0334 
  83   1.0000      -0.402756       -10.9595 
  84   1.0000      -0.399672       -10.8756 
  85   1.0000      -0.389925       -10.6104 
  86   1.0000      -0.382747       -10.4151 
  87   1.0000      -0.376630       -10.2486 
  88   1.0000      -0.374084       -10.1793 
  89   1.0000      -0.362958        -9.8766 
  90   1.0000      -0.348273        -9.4770 
  91   1.0000      -0.317521        -8.6402 
  92   1.0000      -0.232191        -6.3182 
  93   1.0000      -0.217757        -5.9255 
  94   1.0000      -0.215605        -5.8669 
  95   0.0000      -0.109628        -2.9831 
  96   0.0000      -0.010362        -0.2820 
  97   0.0000      -0.005101        -0.1388 
  98   0.0000       0.017388         0.4731 
  99   0.0000       0.043854         1.1933 
 100   0.0000       0.053183         1.4472 
 101   0.0000       0.087903         2.3920 
 102   0.0000       0.090664         2.4671 
 103   0.0000       0.110001         2.9933 
 104   0.0000       0.118297         3.2190 
 105   0.0000       0.126871         3.4523 
*Only the first 10 virtual orbitals were printed.

                    ********************************
                    * MULLIKEN POPULATION ANALYSIS *
                    ********************************

--------------------------------------------
MULLIKEN ATOMIC CHARGES AND SPIN POPULATIONS
--------------------------------------------
   0 C :    0.166428   -0.000002
   1 O :   -0.478283    0.000016
   2 O :   -0.491719    0.000003
   3 C :    0.300666   -0.000024
   4 C :    0.278840    0.000013
   5 C :    0.297529    0.000189
   6 C :    0.286892    0.000749
   7 C :    0.269988    0.009044
   8 C :    0.370844   -0.001900
   9 C :    0.225474    0.834994
  10 F :   -0.195816    0.000001
  11 F :   -0.201263    0.000001
  12 F :   -0.164639    0.000001
  13 F :   -0.173807   -0.000002
  14 F :   -0.157653   -0.000010
  15 F :   -0.156080   -0.000030
  16 F :   -0.152290   -0.000035
  17 F :   -0.152345   -0.000032
  18 F :   -0.154579    0.000255
  19 F :   -0.152584    0.000052
  20 F :   -0.161893    0.030020
  21 F :   -0.150835   -0.001027
  22 F :   -0.125758    0.065071
  23 F :   -0.127117    0.062653
Sum of atomic charges         :   -1.0000000
Sum of atomic spin populations:    1.0000000

-----------------------------------------------------
MULLIKEN REDUCED ORBITAL CHARGES AND SPIN POPULATIONS
-----------------------------------------------------
CHARGE
  0 C s       :     3.035242  s :     3.035242
      pz      :     0.840219  p :     2.517969
      px      :     0.882937
      py      :     0.794813
      dz2     :     0.034579  d :     0.256249
      dxz     :     0.022744
      dyz     :     0.062396
      dx2y2   :     0.063187
      dxy     :     0.073344
      f0      :     0.002242  f :     0.024112
      f+1     :     0.001734
      f-1     :     0.003006
      f+2     :     0.004845
      f-2     :     0.002456
      f+3     :     0.004842
      f-3     :     0.004986

  1 O s       :     3.788609  s :     3.788609
      pz      :     1.480621  p :     4.660623
      px      :     1.609911
      py      :     1.570091
      dz2     :     0.005739  d :     0.027287
      dxz     :     0.003781
      dyz     :     0.006370
      dx2y2   :     0.005006
      dxy     :     0.006391
      f0      :     0.000130  f :     0.001764
      f+1     :     0.000141
      f-1     :     0.000354
      f+2     :     0.000258
      f-2     :     0.000339
      f+3     :     0.000268
      f-3     :     0.000274

  2 O s       :     3.789734  s :     3.789734
      pz      :     1.601239  p :     4.673164
      px      :     1.700902
      py      :     1.371024
      dz2     :     0.002992  d :     0.027080
      dxz     :     0.000864
      dyz     :     0.007871
      dx2y2   :     0.008287
      dxy     :     0.007067
      f0      :     0.000182  f :     0.001741
      f+1     :     0.000030
      f-1     :     0.000264
      f+2     :     0.000298
      f-2     :     0.000110
      f+3     :     0.000413
      f-3     :     0.000444

  3 C s       :     3.122596  s :     3.122596
      pz      :     0.660219  p :     2.287101
      px      :     0.978248
      py      :     0.648635
      dz2     :     0.046399  d :     0.263085
      dxz     :     0.052488
      dyz     :     0.068142
      dx2y2   :     0.041514
      dxy     :     0.054541
      f0      :     0.004939  f :     0.026552
      f+1     :     0.004674
      f-1     :     0.005157
      f+2     :     0.003100
      f-2     :     0.001450
      f+3     :     0.004437
      f-3     :     0.002794

  4 C s       :     3.132393  s :     3.132393
      pz      :     0.626303  p :     2.268141
      px      :     0.949086
      py      :     0.692752
      dz2     :     0.058760  d :     0.292586
      dxz     :     0.059234
      dyz     :     0.071888
      dx2y2   :     0.041360
      dxy     :     0.061343
      f0      :     0.003704  f :     0.028040
      f+1     :     0.005124
      f-1     :     0.007991
      f+2     :     0.002368
      f-2     :     0.002137
      f+3     :     0.004217
      f-3     :     0.002500

  5 C s       :     3.129576  s :     3.129576
      pz      :     0.596829  p :     2.245792
      px      :     0.928545
      py      :     0.720418
      dz2     :     0.074082  d :     0.298811
      dxz     :     0.063698
      dyz     :     0.062664
      dx2y2   :     0.037565
      dxy     :     0.060803
      f0      :     0.004605  f :     0.028291
      f+1     :     0.004614
      f-1     :     0.006776
      f+2     :     0.003121
      f-2     :     0.004026
      f+3     :     0.002865
      f-3     :     0.002284

  6 C s       :     3.132519  s :     3.132519
      pz      :     0.588162  p :     2.251007
      px      :     0.930256
      py      :     0.732590
      dz2     :     0.082678  d :     0.301183
      dxz     :     0.063760
      dyz     :     0.056330
      dx2y2   :     0.036592
      dxy     :     0.061823
      f0      :     0.006275  f :     0.028398
      f+1     :     0.004003
      f-1     :     0.004375
      f+2     :     0.004226
      f-2     :     0.005288
      f+3     :     0.002241
      f-3     :     0.001990

  7 C s       :     3.141192  s :     3.141192
      pz      :     0.597189  p :     2.258954
      px      :     0.946498
      py      :     0.715267
      dz2     :     0.076938  d :     0.301408
      dxz     :     0.063739
      dyz     :     0.061684
      dx2y2   :     0.036344
      dxy     :     0.062703
      f0      :     0.005121  f :     0.028457
      f+1     :     0.004347
      f-1     :     0.006180
      f+2     :     0.003380
      f-2     :     0.004574
      f+3     :     0.002713
      f-3     :     0.002143

  8 C s       :     3.049470  s :     3.049470
      pz      :     0.619569  p :     2.251951
      px      :     0.946765
      py      :     0.685617
      dz2     :     0.063658  d :     0.299757
      dxz     :     0.062191
      dyz     :     0.068061
      dx2y2   :     0.041050
      dxy     :     0.064798
      f0      :     0.003770  f :     0.027978
      f+1     :     0.004902
      f-1     :     0.007928
      f+2     :     0.002568
      f-2     :     0.002927
      f+3     :     0.003583
      f-3     :     0.002300

  9 C s       :     3.228213  s :     3.228213
      pz      :     0.593468  p :     2.304420
      px      :     0.741250
      py      :     0.969701
      dz2     :     0.051277  d :     0.214807
      dxz     :     0.057296
      dyz     :     0.045906
      dx2y2   :     0.027517
      dxy     :     0.032811
      f0      :     0.003865  f :     0.027086
      f+1     :     0.008023
      f-1     :     0.004844
      f+2     :     0.002555
      f-2     :     0.002890
      f+3     :     0.002710
      f-3     :     0.002199

 10 F s       :     3.912118  s :     3.912118
      pz      :     1.892993  p :     5.268391
      px      :     1.901424
      py      :     1.473974
      dz2     :     0.002041  d :     0.014653
      dxz     :     0.000246
      dyz     :     0.002944
      dx2y2   :     0.005639
      dxy     :     0.003783
      f0      :     0.000053  f :     0.000655
      f+1     :     0.000013
      f-1     :     0.000128
      f+2     :     0.000091
      f-2     :     0.000012
      f+3     :     0.000158
      f-3     :     0.000200

 11 F s       :     3.913040  s :     3.913040
      pz      :     1.470576  p :     5.273168
      px      :     1.914728
      py      :     1.887864
      dz2     :     0.007323  d :     0.014406
      dxz     :     0.003492
      dyz     :     0.003090
      dx2y2   :     0.000264
      dxy     :     0.000236
      f0      :     0.000307  f :     0.000649
      f+1     :     0.000145
      f-1     :     0.000161
      f+2     :     0.000018
      f-2     :     0.000014
      f+3     :     0.000001
      f-3     :     0.000001

 12 F s       :     3.915085  s :     3.915085
      pz      :     1.834525  p :     5.233228
      px      :     1.904244
      py      :     1.494458
      dz2     :     0.002009  d :     0.015626
      dxz     :     0.000521
      dyz     :     0.004493
      dx2y2   :     0.005196
      dxy     :     0.003407
      f0      :     0.000076  f :     0.000699
      f+1     :     0.000005
      f-1     :     0.000117
      f+2     :     0.000169
      f-2     :     0.000044
      f+3     :     0.000123
      f-3     :     0.000166

 13 F s       :     3.917726  s :     3.917726
      pz      :     1.446472  p :     5.240060
      px      :     1.905387
      py      :     1.888201
      dz2     :     0.008131  d :     0.015337
      dxz     :     0.003694
      dyz     :     0.003107
      dx2y2   :     0.000217
      dxy     :     0.000188
      f0      :     0.000360  f :     0.000685
      f+1     :     0.000161
      f-1     :     0.000146
      f+2     :     0.000008
      f-2     :     0.000008
      f+3     :     0.000001
      f-3     :     0.000001

 14 F s       :     3.917188  s :     3.917188
      pz      :     1.728971  p :     5.223966
      px      :     1.897599
      py      :     1.597395
      dz2     :     0.002348  d :     0.015797
      dxz     :     0.001409
      dyz     :     0.006004
      dx2y2   :     0.003329
      dxy     :     0.002706
      f0      :     0.000078  f :     0.000703
      f+1     :     0.000010
      f-1     :     0.000166
      f+2     :     0.000198
      f-2     :     0.000102
      f+3     :     0.000071
      f-3     :     0.000077

 15 F s       :     3.916784  s :     3.916784
      pz      :     1.484331  p :     5.222725
      px      :     1.903048
      py      :     1.835347
      dz2     :     0.006924  d :     0.015863
      dxz     :     0.003346
      dyz     :     0.004461
      dx2y2   :     0.000504
      dxy     :     0.000628
      f0      :     0.000265  f :     0.000708
      f+1     :     0.000120
      f-1     :     0.000229
      f+2     :     0.000040
      f-2     :     0.000048
      f+3     :     0.000003
      f-3     :     0.000003

 16 F s       :     3.917774  s :     3.917774
      pz      :     1.611045  p :     5.217835
      px      :     1.901061
      py      :     1.705729
      dz2     :     0.003897  d :     0.015972
      dxz     :     0.002299
      dyz     :     0.006262
      dx2y2   :     0.001803
      dxy     :     0.001712
      f0      :     0.000104  f :     0.000710
      f+1     :     0.000042
      f-1     :     0.000258
      f+2     :     0.000149
      f-2     :     0.000103
      f+3     :     0.000027
      f-3     :     0.000026

 17 F s       :     3.917790  s :     3.917790
      pz      :     1.577123  p :     5.217893
      px      :     1.897730
      py      :     1.743040
      dz2     :     0.004541  d :     0.015954
      dxz     :     0.002667
      dyz     :     0.005903
      dx2y2   :     0.001387
      dxy     :     0.001455
      f0      :     0.000128  f :     0.000709
      f+1     :     0.000063
      f-1     :     0.000264
      f+2     :     0.000118
      f-2     :     0.000100
      f+3     :     0.000018
      f-3     :     0.000017

 18 F s       :     3.918475  s :     3.918475
      pz      :     1.702377  p :     5.219475
      px      :     1.902490
      py      :     1.614607
      dz2     :     0.002584  d :     0.015923
      dxz     :     0.001528
      dyz     :     0.006291
      dx2y2   :     0.003074
      dxy     :     0.002446
      f0      :     0.000079  f :     0.000707
      f+1     :     0.000012
      f-1     :     0.000191
      f+2     :     0.000202
      f-2     :     0.000099
      f+3     :     0.000059
      f-3     :     0.000065

 19 F s       :     3.917870  s :     3.917870
      pz      :     1.500590  p :     5.218064
      px      :     1.897893
      py      :     1.819582
      dz2     :     0.006434  d :     0.015942
      dxz     :     0.003302
      dyz     :     0.004772
      dx2y2   :     0.000656
      dxy     :     0.000778
      f0      :     0.000229  f :     0.000707
      f+1     :     0.000112
      f-1     :     0.000241
      f+2     :     0.000054
      f-2     :     0.000062
      f+3     :     0.000005
      f-3     :     0.000004

 20 F s       :     3.919285  s :     3.919285
      pz      :     1.785968  p :     5.226849
      px      :     1.901114
      py      :     1.539767
      dz2     :     0.001972  d :     0.015094
      dxz     :     0.000849
      dyz     :     0.005236
      dx2y2   :     0.004115
      dxy     :     0.002921
      f0      :     0.000076  f :     0.000664
      f+1     :     0.000003
      f-1     :     0.000124
      f+2     :     0.000190
      f-2     :     0.000069
      f+3     :     0.000090
      f-3     :     0.000113

 21 F s       :     3.916220  s :     3.916220
      pz      :     1.448766  p :     5.217911
      px      :     1.903349
      py      :     1.865795
      dz2     :     0.007974  d :     0.015982
      dxz     :     0.003625
      dyz     :     0.003755
      dx2y2   :     0.000291
      dxy     :     0.000337
      f0      :     0.000339  f :     0.000721
      f+1     :     0.000150
      f-1     :     0.000189
      f+2     :     0.000017
      f-2     :     0.000025
      f+3     :     0.000002
      f-3     :     0.000001

 22 F s       :     3.911017  s :     3.911017
      pz      :     1.771983  p :     5.197161
      px      :     1.598761
      py      :     1.826418
      dz2     :     0.002307  d :     0.016814
      dxz     :     0.005510
      dyz     :     0.001602
      dx2y2   :     0.003552
      dxy     :     0.003843
      f0      :     0.000083  f :     0.000766
      f+1     :     0.000146
      f-1     :     0.000017
      f+2     :     0.000179
      f-2     :     0.000134
      f+3     :     0.000096
      f-3     :     0.000110

 23 F s       :     3.911376  s :     3.911376
      pz      :     1.468418  p :     5.198129
      px      :     1.872617
      py      :     1.857095
      dz2     :     0.007888  d :     0.016848
      dxz     :     0.003880
      dyz     :     0.004524
      dx2y2   :     0.000229
      dxy     :     0.000327
      f0      :     0.000342  f :     0.000764
      f+1     :     0.000193
      f-1     :     0.000182
      f+2     :     0.000018
      f-2     :     0.000026
      f+3     :     0.000001
      f-3     :     0.000001


SPIN
  0 C s       :     0.000005  s :     0.000005
      pz      :    -0.000002  p :    -0.000004
      px      :    -0.000001
      py      :    -0.000001
      dz2     :    -0.000000  d :    -0.000002
      dxz     :    -0.000000
      dyz     :    -0.000001
      dx2y2   :    -0.000001
      dxy     :     0.000000
      f0      :    -0.000000  f :     0.000000
      f+1     :    -0.000000
      f-1     :     0.000000
      f+2     :     0.000000
      f-2     :     0.000000
      f+3     :    -0.000000
      f-3     :     0.000000

  1 O s       :     0.000003  s :     0.000003
      pz      :     0.000003  p :     0.000013
      px      :     0.000008
      py      :     0.000003
      dz2     :    -0.000000  d :    -0.000000
      dxz     :    -0.000000
      dyz     :    -0.000000
      dx2y2   :    -0.000000
      dxy     :    -0.000000
      f0      :    -0.000000  f :    -0.000000
      f+1     :     0.000000
      f-1     :    -0.000000
      f+2     :    -0.000000
      f-2     :    -0.000000
      f+3     :    -0.000000
      f-3     :    -0.000000

  2 O s       :     0.000000  s :     0.000000
      pz      :     0.000001  p :     0.000003
      px      :    -0.000000
      py      :     0.000002
      dz2     :    -0.000000  d :    -0.000000
      dxz     :     0.000000
      dyz     :    -0.000000
      dx2y2   :     0.000000
      dxy     :    -0.000000
      f0      :    -0.000000  f :     0.000000
      f+1     :    -0.000000
      f-1     :    -0.000000
      f+2     :    -0.000000
      f-2     :     0.000000
      f+3     :    -0.000000
      f-3     :     0.000000

  3 C s       :    -0.000030  s :    -0.000030
      pz      :    -0.000001  p :     0.000006
      px      :     0.000005
      py      :     0.000002
      dz2     :     0.000000  d :     0.000000
      dxz     :     0.000000
      dyz     :    -0.000000
      dx2y2   :     0.000000
      dxy     :    -0.000000
      f0      :     0.000000  f :    -0.000000
      f+1     :    -0.000000
      f-1     :     0.000000
      f+2     :     0.000000
      f-2     :    -0.000000
      f+3     :    -0.000000
      f-3     :    -0.000000

  4 C s       :    -0.000041  s :    -0.000041
      pz      :     0.000005  p :     0.000058
      px      :    -0.000001
      py      :     0.000054
      dz2     :     0.000000  d :    -0.000003
      dxz     :     0.000001
      dyz     :    -0.000000
      dx2y2   :    -0.000002
      dxy     :    -0.000002
      f0      :     0.000000  f :    -0.000000
      f+1     :     0.000000
      f-1     :    -0.000000
      f+2     :     0.000000
      f-2     :    -0.000000
      f+3     :    -0.000000
      f-3     :    -0.000000

  5 C s       :    -0.000252  s :    -0.000252
      pz      :     0.000040  p :     0.000445
      px      :     0.000263
      py      :     0.000142
      dz2     :     0.000004  d :    -0.000003
      dxz     :     0.000002
      dyz     :     0.000000
      dx2y2   :    -0.000009
      dxy     :     0.000000
      f0      :     0.000000  f :    -0.000001
      f+1     :     0.000000
      f-1     :    -0.000000
      f+2     :    -0.000000
      f-2     :     0.000000
      f+3     :    -0.000001
      f-3     :     0.000000

  6 C s       :     0.000084  s :     0.000084
      pz      :    -0.000133  p :     0.000742
      px      :     0.000560
      py      :     0.000315
      dz2     :     0.000006  d :    -0.000073
      dxz     :    -0.000003
      dyz     :    -0.000012
      dx2y2   :     0.000003
      dxy     :    -0.000068
      f0      :    -0.000001  f :    -0.000003
      f+1     :     0.000001
      f-1     :     0.000000
      f+2     :    -0.000000
      f-2     :    -0.000001
      f+3     :    -0.000003
      f-3     :    -0.000000

  7 C s       :     0.001867  s :     0.001867
      pz      :     0.000488  p :     0.006661
      px      :     0.010579
      py      :    -0.004406
      dz2     :     0.000158  d :     0.000480
      dxz     :     0.000008
      dyz     :     0.000000
      dx2y2   :     0.000025
      dxy     :     0.000289
      f0      :     0.000003  f :     0.000035
      f+1     :     0.000010
      f-1     :     0.000004
      f+2     :     0.000002
      f-2     :     0.000006
      f+3     :    -0.000016
      f-3     :     0.000027

  8 C s       :     0.003809  s :     0.003809
      pz      :     0.008672  p :    -0.018501
      px      :     0.004374
      py      :    -0.031548
      dz2     :    -0.000356  d :     0.011880
      dxz     :     0.001177
      dyz     :     0.000067
      dx2y2   :     0.008834
      dxy     :     0.002157
      f0      :     0.000005  f :     0.000913
      f+1     :    -0.000029
      f-1     :     0.000093
      f+2     :     0.000272
      f-2     :     0.000001
      f+3     :     0.000618
      f-3     :    -0.000047

  9 C s       :     0.200955  s :     0.200955
      pz      :     0.046522  p :     0.632819
      px      :     0.015194
      py      :     0.571103
      dz2     :     0.000313  d :     0.002899
      dxz     :     0.000094
      dyz     :     0.000639
      dx2y2   :    -0.000657
      dxy     :     0.002509
      f0      :    -0.000300  f :    -0.001679
      f+1     :    -0.000023
      f-1     :    -0.000278
      f+2     :    -0.000370
      f-2     :    -0.000191
      f+3     :    -0.000092
      f-3     :    -0.000426

 10 F s       :     0.000000  s :     0.000000
      pz      :    -0.000000  p :     0.000001
      px      :     0.000001
      py      :     0.000000
      dz2     :    -0.000000  d :    -0.000000
      dxz     :    -0.000000
      dyz     :    -0.000000
      dx2y2   :    -0.000000
      dxy     :     0.000000
      f0      :    -0.000000  f :    -0.000000
      f+1     :    -0.000000
      f-1     :    -0.000000
      f+2     :    -0.000000
      f-2     :    -0.000000
      f+3     :     0.000000
      f-3     :    -0.000000

 11 F s       :     0.000000  s :     0.000000
      pz      :     0.000000  p :     0.000001
      px      :     0.000001
      py      :    -0.000000
      dz2     :    -0.000000  d :     0.000000
      dxz     :     0.000000
      dyz     :    -0.000000
      dx2y2   :    -0.000000
      dxy     :    -0.000000
      f0      :    -0.000000  f :    -0.000000
      f+1     :    -0.000000
      f-1     :    -0.000000
      f+2     :     0.000000
      f-2     :    -0.000000
      f+3     :    -0.000000
      f-3     :     0.000000

 12 F s       :    -0.000000  s :    -0.000000
      pz      :    -0.000000  p :     0.000001
      px      :     0.000000
      py      :     0.000001
      dz2     :    -0.000000  d :    -0.000000
      dxz     :    -0.000000
      dyz     :    -0.000000
      dx2y2   :    -0.000000
      dxy     :    -0.000000
      f0      :    -0.000000  f :    -0.000000
      f+1     :    -0.000000
      f-1     :     0.000000
      f+2     :    -0.000000
      f-2     :    -0.000000
      f+3     :    -0.000000
      f-3     :    -0.000000

 13 F s       :     0.000000  s :     0.000000
      pz      :     0.000001  p :    -0.000002
      px      :    -0.000003
      py      :    -0.000000
      dz2     :    -0.000000  d :    -0.000000
      dxz     :     0.000000
      dyz     :    -0.000000
      dx2y2   :    -0.000000
      dxy     :     0.000000
      f0      :    -0.000000  f :    -0.000000
      f+1     :    -0.000000
      f-1     :    -0.000000
      f+2     :    -0.000000
      f-2     :    -0.000000
      f+3     :    -0.000000
      f-3     :    -0.000000

 14 F s       :    -0.000001  s :    -0.000001
      pz      :    -0.000002  p :    -0.000008
      px      :    -0.000014
      py      :     0.000007
      dz2     :    -0.000000  d :    -0.000000
      dxz     :    -0.000000
      dyz     :    -0.000000
      dx2y2   :    -0.000000
      dxy     :    -0.000000
      f0      :    -0.000000  f :    -0.000000
      f+1     :    -0.000000
      f-1     :    -0.000000
      f+2     :    -0.000000
      f-2     :    -0.000000
      f+3     :    -0.000000
      f-3     :    -0.000000

 15 F s       :    -0.000011  s :    -0.000011
      pz      :     0.000006  p :    -0.000018
      px      :    -0.000023
      py      :    -0.000001
      dz2     :    -0.000000  d :    -0.000000
      dxz     :    -0.000000
      dyz     :    -0.000000
      dx2y2   :    -0.000000
      dxy     :    -0.000000
      f0      :    -0.000000  f :    -0.000000
      f+1     :    -0.000000
      f-1     :    -0.000000
      f+2     :    -0.000000
      f-2     :    -0.000000
      f+3     :     0.000000
      f-3     :    -0.000000

 16 F s       :    -0.000052  s :    -0.000052
[...]
  7:     32.43   0.000158    0.80  0.001524  ( 0.011479  0.005928  0.036839)
  8:     38.92   0.000716    3.62  0.005741  ( 0.002754  0.074293  0.014641)
  9:     47.58   0.000004    0.02  0.000023  ( 0.000357 -0.004288 -0.002120)
 10:     51.84   0.000001    0.01  0.000009  ( 0.000432 -0.001139 -0.002672)
 11:     62.69   0.000122    0.62  0.000606  (-0.006109  0.016886 -0.016840)
 12:     67.04   0.000102    0.52  0.000477  (-0.005619 -0.006561 -0.020048)
 13:     70.09   0.000498    2.52  0.002217  ( 0.017019 -0.032379  0.029644)
 14:    114.43   0.000739    3.74  0.002017  ( 0.032641 -0.011653  0.028554)
 15:    133.02   0.000520    2.63  0.001221  ( 0.034853 -0.001983  0.001400)
 16:    158.14   0.000205    1.04  0.000404  (-0.016855  0.008906 -0.006401)
 17:    185.55   0.003192   16.13  0.005368  ( 0.001829  0.005987  0.073001)
 18:    194.74   0.000167    0.84  0.000268  (-0.015750  0.003467 -0.002736)
 19:    200.79   0.000126    0.64  0.000197  (-0.001455 -0.013555 -0.003278)
 20:    207.24   0.000391    1.97  0.000588  (-0.002444  0.019516 -0.014184)
 21:    223.52   0.000216    1.09  0.000302  (-0.009804 -0.005585 -0.013199)
 22:    232.22   0.000046    0.23  0.000062  ( 0.007693 -0.001581  0.000140)
 23:    243.04   0.000121    0.61  0.000156  ( 0.005737 -0.001298 -0.011000)
 24:    250.66   0.000009    0.05  0.000011  (-0.003310 -0.000193 -0.000510)
 25:    253.66   0.000230    1.16  0.000283  (-0.004642  0.002002 -0.016033)
 26:    290.69   0.001722    8.70  0.001848  ( 0.042141 -0.007196 -0.004539)
 27:    300.79   0.000293    1.48  0.000304  (-0.016783  0.001974  0.004255)
 28:    308.67   0.000234    1.18  0.000237  ( 0.010961 -0.010447  0.002689)
 29:    334.62   0.000038    0.19  0.000035  (-0.005471 -0.000064 -0.002359)
 30:    343.38   0.000688    3.48  0.000625  (-0.019701  0.000108 -0.015394)
 31:    356.34   0.000262    1.33  0.000230  ( 0.013464  0.000939  0.006900)
 32:    359.64   0.000307    1.55  0.000266  (-0.016234  0.001225 -0.001025)
 33:    366.29   0.000012    0.06  0.000010  (-0.003052  0.000986 -0.000097)
 34:    370.12   0.000027    0.14  0.000023  ( 0.004368  0.001149  0.001483)
 35:    409.96   0.000504    2.55  0.000384  (-0.016779  0.009019  0.004588)
 36:    451.58   0.004023   20.33  0.002780  (-0.051217  0.009659 -0.007996)
 37:    498.28   0.001685    8.52  0.001055  ( 0.028790  0.006980  0.013332)
 38:    524.34   0.019584   98.97  0.011655  (-0.104769  0.020824 -0.015661)
 39:    535.37   0.011068   55.93  0.006452  ( 0.066647  0.044712  0.003267)
 40:    548.52   0.001995   10.08  0.001135  (-0.007317  0.027353 -0.018260)
 41:    565.30   0.003389   17.13  0.001871  (-0.037964  0.006096  0.019806)
 42:    570.45   0.002112   10.67  0.001156  ( 0.031039 -0.013249 -0.004074)
 43:    592.70   0.002070   10.46  0.001090  (-0.031150  0.010385 -0.003434)
 44:    627.02   0.000823    4.16  0.000410  (-0.017552 -0.003262 -0.009537)
 45:    646.14   0.041299  208.71  0.019946  (-0.141076 -0.006589 -0.000253)
 46:    668.35   0.000994    5.02  0.000464  (-0.019435 -0.002820  0.008853)
 47:    706.43   0.000605    3.06  0.000267  (-0.014832  0.002071  0.006553)
 48:    735.00   0.004475   22.62  0.001900  (-0.043277 -0.002711  0.004460)
 49:    754.87   0.001002    5.06  0.000414  (-0.002367 -0.019797  0.004095)
 50:    781.81   0.020378  102.98  0.008134  ( 0.067913  0.028686 -0.051950)
 51:    857.68   0.005460   27.59  0.001987  ( 0.043351  0.009082 -0.004978)
 52:    989.22   0.008330   42.10  0.002628  (-0.049232  0.002584 -0.014045)
 53:   1054.18   0.044219  223.47  0.013090  ( 0.020905  0.106877 -0.035075)
 54:   1073.24   0.042832  216.45  0.012454  (-0.014464 -0.073150 -0.083030)
 55:   1084.46   0.015416   77.91  0.004436  (-0.019507 -0.012212  0.062502)
 56:   1101.63   0.018071   91.32  0.005119  ( 0.013077 -0.029563  0.063828)
 57:   1115.09   0.078386  396.13  0.021937  (-0.008593 -0.139761  0.048269)
 58:   1122.95   0.059724  301.82  0.016597  (-0.009952  0.126854  0.020154)
 59:   1129.54   0.019809  100.11  0.005473  (-0.012020 -0.068611 -0.024914)
 60:   1137.11   0.044137  223.05  0.012113  ( 0.007407 -0.002023 -0.109790)
 61:   1144.97   0.179030  904.75  0.048795  ( 0.017820  0.021260  0.219147)
 62:   1154.35   0.002992   15.12  0.000809  (-0.005776 -0.018041 -0.021214)
 63:   1177.34   0.009021   45.59  0.002391  (-0.025012  0.007737  0.041300)
 64:   1207.43   0.013531   68.38  0.003497  ( 0.007881 -0.032322 -0.048889)
 65:   1232.40   0.037934  191.70  0.009606  (-0.033098  0.001422  0.092239)
 66:   1242.44   0.028886  145.98  0.007255  ( 0.022039 -0.017408 -0.080415)
 67:   1263.76   0.004169   21.07  0.001029  ( 0.020623 -0.011645 -0.021647)
 68:   1296.85   0.008245   41.67  0.001984  ( 0.030076  0.029807 -0.013822)
 69:   1340.62   0.042552  215.04  0.009905  ( 0.097862 -0.016924 -0.006462)
 70:   1359.50   0.023724  119.89  0.005446  ( 0.063125  0.029285 -0.024562)
 71:   1724.69   0.156959  793.20  0.028400  ( 0.027808 -0.152319 -0.066524)

* The epsilon (eps) is given for a Dirac delta lineshape.
** The dipole moment derivative (T) already includes vibrational overlap.

The first frequency considered to be a vibration is 6
The total number of vibrations considered is 66


--------------------------
THERMOCHEMISTRY AT 298.15K
--------------------------

Temperature         ...   298.15 K
Pressure            ...     1.00 atm
Total Mass          ...   394.06 AMU
Quasi RRHO          ...     True
Cut-Off Frequency   ...     1.00 cm^-1

Throughout the following assumptions are being made:
  (1) The electronic state is orbitally nondegenerate
      but the spin degeneracy is treated
  (2) There are no thermally accessible electronically excited states
  (3) Hindered rotations indicated by low frequency modes are not
      treated as such but are treated as vibrations and this may
      cause some error
  (4) All equations used are the standard statistical mechanics
      equations for an ideal gas
  (5) All vibrations are strictly harmonic

freq.      30.38  E(vib)   ...       0.55 
freq.      32.43  E(vib)   ...       0.55 
freq.      38.92  E(vib)   ...       0.54 
freq.      47.58  E(vib)   ...       0.53 
freq.      51.84  E(vib)   ...       0.52 
freq.      62.69  E(vib)   ...       0.51 
freq.      67.04  E(vib)   ...       0.50 
freq.      70.09  E(vib)   ...       0.50 
freq.     114.43  E(vib)   ...       0.44 
freq.     133.02  E(vib)   ...       0.42 
freq.     158.14  E(vib)   ...       0.39 
freq.     185.55  E(vib)   ...       0.37 
freq.     194.74  E(vib)   ...       0.36 
freq.     200.79  E(vib)   ...       0.35 
freq.     207.24  E(vib)   ...       0.34 
freq.     223.52  E(vib)   ...       0.33 
freq.     232.22  E(vib)   ...       0.32 
freq.     243.04  E(vib)   ...       0.31 
freq.     250.66  E(vib)   ...       0.30 
freq.     253.66  E(vib)   ...       0.30 
freq.     290.69  E(vib)   ...       0.27 
freq.     300.79  E(vib)   ...       0.26 
freq.     308.67  E(vib)   ...       0.26 
freq.     334.62  E(vib)   ...       0.24 
freq.     343.38  E(vib)   ...       0.23 
freq.     356.34  E(vib)   ...       0.22 
freq.     359.64  E(vib)   ...       0.22 
freq.     366.29  E(vib)   ...       0.22 
freq.     370.12  E(vib)   ...       0.21 
freq.     409.96  E(vib)   ...       0.19 
freq.     451.58  E(vib)   ...       0.16 
freq.     498.28  E(vib)   ...       0.14 
freq.     524.34  E(vib)   ...       0.13 
freq.     535.37  E(vib)   ...       0.13 
freq.     548.52  E(vib)   ...       0.12 
freq.     565.30  E(vib)   ...       0.11 
freq.     570.45  E(vib)   ...       0.11 
freq.     592.70  E(vib)   ...       0.10 
freq.     627.02  E(vib)   ...       0.09 
freq.     646.14  E(vib)   ...       0.09 
freq.     668.35  E(vib)   ...       0.08 
freq.     706.43  E(vib)   ...       0.07 
freq.     735.00  E(vib)   ...       0.06 
freq.     754.87  E(vib)   ...       0.06 
freq.     781.81  E(vib)   ...       0.05 
freq.     857.68  E(vib)   ...       0.04 
freq.     989.22  E(vib)   ...       0.02 
freq.    1054.18  E(vib)   ...       0.02 
freq.    1073.24  E(vib)   ...       0.02 
freq.    1084.46  E(vib)   ...       0.02 
freq.    1101.63  E(vib)   ...       0.02 
freq.    1115.09  E(vib)   ...       0.01 
freq.    1122.95  E(vib)   ...       0.01 
freq.    1129.54  E(vib)   ...       0.01 
freq.    1137.11  E(vib)   ...       0.01 
freq.    1144.97  E(vib)   ...       0.01 
freq.    1154.35  E(vib)   ...       0.01 
freq.    1177.34  E(vib)   ...       0.01 
freq.    1207.43  E(vib)   ...       0.01 
freq.    1232.40  E(vib)   ...       0.01 
freq.    1242.44  E(vib)   ...       0.01 
freq.    1263.76  E(vib)   ...       0.01 
freq.    1296.85  E(vib)   ...       0.01 
freq.    1340.62  E(vib)   ...       0.01 
freq.    1359.50  E(vib)   ...       0.01 
freq.    1724.69  E(vib)   ...       0.00 

------------
INNER ENERGY
------------

The inner energy is: U= E(el) + E(ZPE) + E(vib) + E(rot) + E(trans)
    E(el)   - is the total energy from the electronic structure calculation
              = E(kin-el) + E(nuc-el) + E(el-el) + E(nuc-nuc)
    E(ZPE)  - the the zero temperature vibrational energy from the frequency calculation
    E(vib)  - the the finite temperature correction to E(ZPE) due to population
              of excited vibrational states
    E(rot)  - is the rotational thermal energy
    E(trans)- is the translational thermal energy

Summary of contributions to the inner energy U:
Electronic energy                ...  -1853.93614912 Eh
Zero point energy                ...      0.09170552 Eh      57.55 kcal/mol
Thermal vibrational correction   ...      0.01999705 Eh      12.55 kcal/mol
Thermal rotational correction    ...      0.00141627 Eh       0.89 kcal/mol
Thermal translational correction ...      0.00141627 Eh       0.89 kcal/mol
-----------------------------------------------------------------------
Total thermal energy                  -1853.82161400 Eh


Summary of corrections to the electronic energy:
(perhaps to be used in another calculation)
Total thermal correction                  0.02282959 Eh      14.33 kcal/mol
Non-thermal (ZPE) correction              0.09170552 Eh      57.55 kcal/mol
-----------------------------------------------------------------------
Total correction                          0.11453512 Eh      71.87 kcal/mol


--------
ENTHALPY
--------

The enthalpy is H = U + kB*T
                kB is Boltzmann's constant
Total thermal energy              ...  -1853.82161400 Eh 
Thermal Enthalpy correction       ...      0.00094421 Eh       0.59 kcal/mol
-----------------------------------------------------------------------
Total Enthalpy                    ...  -1853.82066979 Eh


Note: Only C1 symmetry has been detected, increase convergence thresholds 
      if your molecule has a higher symmetry. Symmetry factor of 1.0 is   
      used for the rotational entropy correction. 
 

Note: Rotational entropy computed according to Herzberg 
Infrared and Raman Spectra, Chapter V,1, Van Nostrand Reinhold, 1945 
Point Group:  C1, Symmetry Number:   1  
Rotational constants in cm-1:     0.022643     0.004049     0.004017 

Vibrational entropy computed according to the QRRHO of S. Grimme
Chem.Eur.J. 2012 18 9955 using a reference frequency of 100.0 cm-1


-------
ENTROPY
-------

The entropy contributions are T*S = T*(S(el)+S(vib)+S(rot)+S(trans))
     S(el)   - electronic entropy
     S(vib)  - vibrational entropy
     S(rot)  - rotational entropy
     S(trans)- translational entropy
The entropies will be listed as multiplied by the temperature to get
units of energy

Electronic entropy                ...      0.00065446 Eh      0.41 kcal/mol
Vibrational entropy               ...      0.03587108 Eh     22.51 kcal/mol
Rotational entropy                ...      0.01650459 Eh     10.36 kcal/mol
Translational entropy             ...      0.02081341 Eh     13.06 kcal/mol
-----------------------------------------------------------------------
Final entropy term                ...      0.07384354 Eh     46.34 kcal/mol

In case the symmetry of your molecule has not been determined correctly
or in case you have a reason to use a different symmetry number we print 
out the resulting rotational entropy values for sn=1,12:

 non-linear molecules -----------------------------------
|  sn= 1 | S(rot)=       0.01650459 Eh     10.36 kcal/mol|
|  sn= 2 | S(rot)=       0.01585013 Eh      9.95 kcal/mol|
|  sn= 3 | S(rot)=       0.01546730 Eh      9.71 kcal/mol|
|  sn= 4 | S(rot)=       0.01519568 Eh      9.54 kcal/mol|
|  sn= 5 | S(rot)=       0.01498499 Eh      9.40 kcal/mol|
|  sn= 6 | S(rot)=       0.01481284 Eh      9.30 kcal/mol|
|  sn= 7 | S(rot)=       0.01466730 Eh      9.20 kcal/mol|
|  sn= 8 | S(rot)=       0.01454122 Eh      9.12 kcal/mol|
|  sn= 9 | S(rot)=       0.01443001 Eh      9.05 kcal/mol|
|  sn=10 | S(rot)=       0.01433053 Eh      8.99 kcal/mol|
|  sn=11 | S(rot)=       0.01424054 Eh      8.94 kcal/mol|
|  sn=12 | S(rot)=       0.01415839 Eh      8.88 kcal/mol|
 linear molecules ---------------------------------------
|  Dinfh | S(rot)=       0.01053504 Eh      6.61 kcal/mol|
|  Cinfv | S(rot)=       0.01118950 Eh      7.02 kcal/mol|
 --------------------------------------------------------


-------------------
GIBBS FREE ENERGY
-------------------

The Gibbs free energy is G = H - T*S

Total enthalpy                    ...  -1853.82066979 Eh 
Total entropy correction          ...     -0.07384354 Eh    -46.34 kcal/mol
-----------------------------------------------------------------------
Final Gibbs free energy         ...  -1853.89451333 Eh

For completeness - the Gibbs free energy minus the electronic energy
G-E(el)                           ...      0.04163578 Eh     26.13 kcal/mol


Maximum memory used throughout the entire PROP-calculation: 523.6 MB

--------------------------------
SUGGESTED CITATIONS FOR THIS RUN
--------------------------------

Below you find a list of papers that are relevant to this ORCA run
We neither can nor want to force you to cite these papers, but we appreciate if you do
You receive ORCA, which is the product of decades of hard work by many enthusiastic individuals, for free
The only thing we kindly ask in return is that you cite our papers,
We deeply appreciate it, if you show your appreciation for ORCA by not just citing the generic ORCA reference.

Please note that relegating all ORCA citations to the supporting information does *not* help us.
SI sections are not indexed - citations you put there will not count into any citation statistics
But we need these citations in order to attract the funding resources that allow us to do what we are doing

Therefore, if you are a happy ORCA user, please consider citing a few of the papers listed below in the main body of your paper

In addition to the list printed below, the program has created the file rf_mecn_freq_TP_C8_D_B.bibtex that contains the list in bibtex format
You can import this file easily into all common literature databanks and citation aid programs


List of essential papers. We consider these as the minimum necessary citations

  1. Neese,F.
     Software update: the ORCA program system, version 5.0
     WIRES Comput. Molec. Sci., 2022 12(1)e1606
     doi.org/10.1002/wcms.1606

List of papers to cite with high priority. The work reported in these papers was absolutely
necessary for this run to complete.
Our perspective: the developers of density functionals and basis sets usually get cited in chemistry papers
Good! But without the algorithms to do something with them, the functionals or basis sets would not do anything.
Hence, in our opinion, the algorithm design and method developments papers are equally worthy of getting cited

  1. Neese,F.
     An improvement of the resolution of the identity approximation for the formation of the Coulomb matrix
     J. Comp. Chem., 2003 24(14)1740-1747
     doi.org/10.1002/jcc.10318
  2. Neese,F.; Wennmohs,F.; Hansen,A.; Becker,U.
     Efficient, approximate and parallel Hartree-Fock and hybrid DFT calculations. A 'chain-of-spheres' algorithm for the Hartree-Fock exchange
     Chem. Phys., 2009 356(1-3)98-109
     doi.org/10.1016/j.chemphys.2008.10.036
  3. Bykov,D.; Petrenko,T.; Izsak,R.; Kossmann,S.; Becker,U.; Valeev,E.; Neese,F.
     Efficient implementation of the analytic second derivatives of Hartree-Fock and hybrid DFT energies: a detailed analysis of different approximations
     Molec. Phys., 2015 113 1961-1977
     doi.org/10.1080/00268976.2015.1025114
  4. Garcia-Rates,M.; Neese,F.
     Efficient implementation of the analytical second derivatives of hartree-fock and hybrid DFT energies within the framework of the conductor-like polarizable continuum model
     J. Comput. Chem., 2019 40 1816-1828
     doi.org/10.1002/jcc.25833
  5. Garcia-Rates,M.; Neese,F.
     Effect of the Solute Cavity on the Solvation Energy and its Derivatives within the Framework of the Gaussian Charge Scheme
     J. Comput. Chem., 2020 41 922-939
     doi.org/10.1002/jcc.26139
  6. Helmich-Paris,B.; de Souza,B.; Neese,F.; Izsák,R.
     An improved chain of spheres for exchange algorithm
     J. Chem. Phys., 2021 155 104109
     doi.org/doi: 10.1063/5.0058766.
  7. Neese,F.
     The SHARK Integral Generation and Digestion System
     J. Comp. Chem., 2022  1-16
     doi.org/10.1002/jcc.26942
  8. Grimme,S.; Antony,J.; Ehrlich,S.; Krieg,H.
     A consistent and accurate ab initio parametrization of density functional dispersion correction (DFT-D) for the 94 elements H-Pu
     J. Chem. Phys., 2010 132 154104
     doi.org/10.1063/1.3382344
  9. Grimme,S.; Ehrlich,S.; Goerigk,L.
     Effect of the damping function in dispersion corrected density functional theory
     J. Comput. Chem., 2011 32(7)1456-1465
     doi.org/10.1002/jcc.21759

List of suggested additional citations. These are papers that are important in the 'surrounding' of 
of this run, or papers that preceded the highly important papers. If you like your results we are grateful for a citation.

  1. Izsak,R.; Neese,F.
     An overlap fitted chain of spheres exchange method
     J. Chem. Phys., 2011 135 144105
     doi.org/10.1063/1.3646921
  2. Izsak,R.; Hansen,A.; Neese,F.
     The resolution of identity and chain of spheres approximations for the LPNO-CCSD singles Fock term
     Molec. Phys., 2012 110 2413-2417
     doi.org/10.1080/00268976.2012.687466
  3. Neese,F.
     The ORCA program system
     WIRES Comput. Molec. Sci., 2012 2(1)73-78
     doi.org/10.1002/wcms.81
  4. Izsak,R.; Neese,F.; Klopper,W.
     Robust fitting techniques in the chain of spheres approximation to the Fock exchange: The role of the complementary space
     J. Chem. Phys., 2013 139 
     doi.org/10.1063/1.4819264
  5. Neese,F.
     Software update: the ORCA program system, version 4.0
     WIRES Comput. Molec. Sci., 2018 8(1)1-6
     doi.org/10.1002/wcms.1327
  6. Neese,F.; Wennmohs,F.; Becker,U.; Riplinger,C.
     The ORCA quantum chemistry program package
     J. Chem. Phys., 2020 152 Art. No. L224108
     doi.org/10.1063/5.0004608

List of optional additional citations

  1. Neese,F.
     Approximate second-order SCF convergence for spin unrestricted wavefunctions
     Chem. Phys. Lett., 2000 325(1-3)93-98
     doi.org/10.1016/s0009-2614(00)00662-x

Timings for individual modules:

Sum of individual times          ...     1232.275 sec (=  20.538 min)
Startup calculation              ...        3.458 sec (=   0.058 min)   0.3 %
SCF iterations                   ...       76.781 sec (=   1.280 min)   6.2 %
Property integrals               ...      398.137 sec (=   6.636 min)  32.3 %
SCF Response                     ...      543.049 sec (=   9.051 min)  44.1 %
Property calculations            ...      210.850 sec (=   3.514 min)  17.1 %
                             ****ORCA TERMINATED NORMALLY****
TOTAL RUN TIME: 0 days 0 hours 20 minutes 33 seconds 119 msec
