
                                 *****************
                                 * O   R   C   A *
                                 *****************

                                            #,                                       
                                            ###                                      
                                            ####                                     
                                            #####                                    
                                            ######                                   
                                           ########,                                 
                                     ,,################,,,,,                         
                               ,,#################################,,                 
                          ,,##########################################,,             
                       ,#########################################, ''#####,          
                    ,#############################################,,   '####,        
                  ,##################################################,,,,####,       
                ,###########''''           ''''###############################       
              ,#####''   ,,,,##########,,,,          '''####'''          '####       
            ,##' ,,,,###########################,,,                        '##       
           ' ,,###''''                  '''############,,,                           
         ,,##''                                '''############,,,,        ,,,,,,###''
      ,#''                                            '''#######################'''  
     '                                                          ''''####''''         
             ,#######,   #######,   ,#######,      ##                                
            ,#'     '#,  ##    ##  ,#'     '#,    #''#        ,####,   ,####,        
            ##       ##  ##   ,#'  ##            #'  '#       #'       #'  '#        
            ##       ##  #######   ##           ,######,      #####,   #    #        
            '#,     ,#'  ##    ##  '#,     ,#' ,#      #,     #,   #   #,  ,#        
             '#######'   ##     ##  '#######'  #'      '#     '####' # '####'        



                #########################################################
                #                        -***-                          #
                #          Department of theory and spectroscopy        #
                #                                                       #
                #                      Frank Neese                      #
                #                                                       #
                #     Directorship, Architecture, Infrastructure        #
                #                    SHARK, DRIVERS                     #
                #        Core code/Algorithms in most modules           #
                #                                                       #
                #        Max Planck Institute fuer Kohlenforschung      #
                #                Kaiser Wilhelm Platz 1                 #
                #                 D-45470 Muelheim/Ruhr                 #
                #                      Germany                          #
                #                                                       #
                #                  All rights reserved                  #
                #                        -***-                          #
                #########################################################


                         Program Version 6.0.1  -  RELEASE   -


 With contributions from (in alphabetic order):
[Max-Planck-Institut fuer Kohlenforschung]                               
  Daniel Aravena         : Magnetic Suceptibility                        
  Michael Atanasov       : Ab Initio Ligand Field Theory (pilot matlab implementation)
  Alexander A. Auer      : GIAO ZORA, VPT2 properties, NMR spectrum      
  Ute Becker             : All parallelization in ORCA, NUMFREQ, NUMCALC 
  Giovanni Bistoni       : ED, misc. LED, open-shell LED, HFLD           
  Martin Brehm           : Molecular dynamics                            
  Dmytro Bykov           : pre 5.0 version of the SCF Hessian            
  Marcos Casanova-Páez   : Triplet and SCS-CIS(D). UHF-(DLPNO)-IP/EA/STEOM-CCSD. UHF-CVS-IP/STEOM-CCSD   
  Vijay G. Chilkuri      : MRCI spin determinant printing, contributions to CSF-ICE 
  Pauline Colinet        : FMM embedding                                 
  Dipayan Datta          : RHF DLPNO-CCSD density                        
  Achintya Kumar Dutta   : EOM-CC, STEOM-CC                              
  Nicolas Foglia         : Exact transition moments, OPA infrastructure, MCD improvements    
  Dmitry Ganyushin       : Spin-Orbit,Spin-Spin,Magnetic field MRCI      
  Miquel Garcia-Rates    : C-PCM and meta-GGA Hessian, CCSD/C-PCM, Gaussian charge scheme 
  Tiago L. C. Gouveia    : GS-ROHF, GS-ROCIS                             
  Yang Guo               : DLPNO-NEVPT2, F12-NEVPT2, CIM, IAO-localization        
  Andreas Hansen         : Spin unrestricted coupled pair/coupled cluster methods 
  Ingolf Harden          : AUTO-CI MPn and infrastructure                
  Benjamin Helmich-Paris : MC-RPA, TRAH-(SCF,CASSCF), AVAS, COSX integrals, SCF dyn. polar. 
  Lee Huntington         : MR-EOM, pCC                                   
  Robert Izsak           : Overlap fitted RIJCOSX, COSX-SCS-MP3, EOM     
  Riya Kayal             : Wick's Theorem for AUTO-CI, AUTO-CI UHF-CCSDT 
  Emily Kempfer          : AUTO-CI, RHF CISDT and CCSDT                  
  Christian Kollmar      : KDIIS, OOCD, Brueckner-CCSD(T), CCSD density, CASPT2, CASPT2-K, improved NEVPT2 
  Axel Koslowski         : Symmetry handling                             
  Simone Kossmann        : meta-GGA functionals, TD-DFT gradient, OOMP2, (MP2 Hessian; deprecated post 5.0) 
  Lucas Lang             : DCDCAS                                        
  Marvin Lechner         : AUTO-CI (C++ implementation), FIC-MRCC        
  Spencer Leger          : CASSCF response                               
  Dagmar Lenk            : GEPOL surface, SMD, ORCA-2-JSON               
  Dimitrios Liakos       : Extrapolation schemes; Compound Job, initial MDCI parallelization 
  Dimitrios Manganas     : Further ROCIS development; embedding schemes. LFT, Crystal Embedding 
  Dimitrios Pantazis     : SARC Basis sets                               
  Anastasios Papadopoulos: AUTO-CI, single reference methods and gradients 
  Taras Petrenko         : pre 6.0 DFT Hessian and TD-DFT gradient, (ASA, deprecated), ECA, 1-Electron XAS/XES, NRVS 
  Peter Pinski           : DLPNO-MP2, DLPNO-MP2 Gradient                 
  Christoph Reimann      : Effective Core Potentials                     
  Marius Retegan         : Local ZFS, SOC                                
  Christoph Riplinger    : Optimizer, TS searches, QM/MM, DLPNO-CCSD(T), (RO)-DLPNO pert. Triples 
  Michael Roemelt        : Original ROCIS implementation                 
  Masaaki Saitow         : Open-shell DLPNO-CCSD energy and density      
  Barbara Sandhoefer     : DKH picture change effects                    
  Kantharuban Sivalingam : CASSCF convergence/infrastructure, NEVPT2 and variants, FIC-MRCI 
  Bernardo de Souza      : ESD, SOC TD-DFT                               
  Georgi L. Stoychev     : AutoAux, RI-MP2 NMR, DLPNO-MP2 response, X2C  
  Van Anh Tran           : RI-MP2 g-tensors                              
  Willem Van den Heuvel  : Paramagnetic NMR                              
  Zikuan Wang            : NOTCH, Electric field optimization            
  Frank Wennmohs         : Technical directorship and infrastructure     
  Hang Xu                : AUTO-CI-Response properties                   
                                                                         
[FACCTs GmbH]                                                            
  Markus Bursch, Miquel Garcia-Rates, Christoph Riplinger, Bernardo de Souza, Georgi L. Stoychev 
                                                                 
  APM, Basis sets (HGBS, AHGBS, def-TZVP (Ac-Lr), def2-XVPD (La-Lu)), CI-OPT, improved COSX, DLPNO-Multilevel,           
  DOCKER, DRACO, updates on ESD, GOAT, IRC, LR-CPCM, MBIS, meta-GGA TD-DFT gradient, ML-optimized integration grids, 
  MM, NACMEs, nearIR, NEB, NEB-TS, NL-DFT gradient (VV10), 2- and 3-layer-ONIOM, interface openCOSMO-RS, QMMM,   
  Crystal-QMMM, SF, symmetry and pop. for TD-DFT, r2SCAN hybrids, SOLVATOR                                   
                                                                         
[Other institutions]                                                     
  V. Asgeirsson          : NEB                                           
  Christoph Bannwarth    : sTDA-DFT, sTD-DFT, PBEh-3c, B97-3c, D3        
  Sebastian Ehlert       : rSCAN, r2SCAN, r2SCAN-3c, D4, dhf basis sets  
  Marvin Friede          : D4 for Fr, Ra, Ac-Lr                          
  Lars Goerigk           : TD-DFT with DH, B97 family of functionals     
  Stefan Grimme          : VdW corrections, initial TS optimization, DFT functionals, gCP, sTDA/sTD-DF 
  Waldemar Hujo          : DFT-NL                                        
  H. Jonsson             : NEB                                           
  Holger Kruse           : gCP                                           
  Marcel Mueller         : wB97X-3c, vDZP basis set                      
  Hagen Neugebauer       : wr2SCAN                                       
  Tobias Risthaus        : range-separated hybrid DFT                    
  Lukas Wittmann         : regularized MP2, r2SCAN double-hybrids, wr2SCAN        
                                                                         
We gratefully acknowledge several colleagues who have allowed us to      
interface, adapt or use parts of their codes:                            
  Ed Valeev, F. Pavosevic, A. Kumar             : LibInt (2-el integral package), F12 methods 
  Garnet Chan, S. Sharma, J. Yang, R. Olivares  : DMRG                   
  Ulf Ekstrom                                   : XCFun DFT Library      
  Mihaly Kallay                                 : mrcc  (arbitrary order and MRCC methods)
  Frank Weinhold                                : gennbo (NPA and NBO analysis)           
  Simon Mueller                                 : openCOSMO-RS                            
  Christopher J. Cramer and Donald G. Truhlar   : smd solvation model                     
  S Lehtola, MJT Oliveira, MAL Marques          : LibXC Library                           
  Liviu Ungur et al                             : ANISO software                          


 Your calculation uses the libint2 library for the computation of 2-el integrals
 For citations please refer to: http://libint.valeyev.net

 Your ORCA version has been built with support for libXC version: 6.2.2
 For citations please refer to: https://libxc.gitlab.io

 This ORCA versions uses:
   CBLAS   interface :  Fast vector & matrix operations
   LAPACKE interface :  Fast linear algebra routines
   SCALAPACK package :  Parallel linear algebra routines
   Shared memory     :  Shared parallel matrices
   BLAS/LAPACK       :  OpenBLAS 0.3.27  USE64BITINT DYNAMIC_ARCH NO_AFFINITY SkylakeX SINGLE_THREADED
        Core in use  :  SkylakeX
   Copyright (c) 2011-2014, The OpenBLAS Project


NOTE: MaxCore=8000 MB was set to SCF,MP2,MDCI,CIPSI,MRCI and CIS
      => If you want to overwrite this, your respective input block should be placed after the MaxCore statement
Your calculation utilizes the atom-pairwise dispersion correction
with the Becke-Johnson damping scheme (D3BJ)


Your calculation utilizes the SMD solvation module
Please cite in your paper:
A.V. Marenich, C.J. Cramer, D.G. Truhlar J. Phys. Chem. B, 113, (2009), 6378 

Warning: RI is on but no J-basis has been assigned. Assigning Def2/J (nothing to worry about!)
================================================================================

----- Orbital basis set information -----
Your calculation utilizes the basis: def2-TZVP
   F. Weigend and R. Ahlrichs, Phys. Chem. Chem. Phys. 7, 3297 (2005).

----- AuxJ basis set information -----
Your calculation utilizes the auxiliary basis: def2/J
   F. Weigend, Phys. Chem. Chem. Phys. 8, 1057 (2006).

================================================================================
                                        WARNINGS
                       Please study these warnings very carefully!
================================================================================


================================================================================
                                       INPUT FILE
================================================================================
NAME = rf_mecn_freq_B3L_D_B.inp
|  1> !B3LYP def2-TZVP freq d3 TightSCF SlowConv defgrid2
|  2>  
|  3> %pal
|  4> nprocs 20
|  5> end
|  6>  
|  7> %scf
|  8> MaxIter 1500
|  9> end
| 10>  
| 11> %maxcore 8000
| 12>  
| 13> !CPCM
| 14> %cpcm smd true
| 15> SMDsolvent "ACETONITRILE"
| 16> end
| 17>  
| 18> * xyz -1 1
| 19> 6        4.820807000      0.136137000     -0.399891000
| 20> 8        5.413770000     -0.713769000     -1.075975000
| 21> 8        5.054547000      1.336432000     -0.186559000
| 22> 6        3.518249000     -0.378268000      0.340528000
| 23> 6        2.221745000      0.290870000     -0.196864000
| 24> 6        0.891585000     -0.452930000      0.168828000
| 25> 6       -0.389352000      0.442213000      0.018234000
| 26> 6       -1.722900000     -0.380570000     -0.043334000
| 27> 6       -2.996695000      0.481932000      0.261195000
| 28> 6       -4.332505000     -0.159238000     -0.237375000
| 29> 9        3.356501000     -1.728856000      0.220323000
| 30> 9        3.601948000     -0.116948000      1.681325000
| 31> 9        2.134319000      1.555026000      0.274372000
| 32> 9        2.299128000      0.345112000     -1.550235000
| 33> 9        0.757088000     -1.533614000     -0.629259000
| 34> 9        0.955363000     -0.870557000      1.450098000
| 35> 9       -0.452914000      1.281103000      1.072409000
| 36> 9       -0.296181000      1.170856000     -1.111986000
| 37> 9       -1.671584000     -1.379818000      0.859670000
| 38> 9       -1.842502000     -0.916923000     -1.274097000
| 39> 9       -2.883918000      1.689106000     -0.327697000
| 40> 9       -3.092747000      0.655070000      1.591839000
| 41> 9       -4.423530000     -1.429355000      0.163646000
| 42> 9       -5.358445000      0.525926000      0.271350000
| 43> 9       -4.410372000     -0.115379000     -1.567001000
| 44> *
| 45> 
| 46>                          ****END OF INPUT****
================================================================================

                       ****************************
                       * Single Point Calculation *
                       ****************************

---------------------------------
CARTESIAN COORDINATES (ANGSTROEM)
---------------------------------
  C      4.820807    0.136137   -0.399891
  O      5.413770   -0.713769   -1.075975
  O      5.054547    1.336432   -0.186559
  C      3.518249   -0.378268    0.340528
  C      2.221745    0.290870   -0.196864
  C      0.891585   -0.452930    0.168828
  C     -0.389352    0.442213    0.018234
  C     -1.722900   -0.380570   -0.043334
  C     -2.996695    0.481932    0.261195
  C     -4.332505   -0.159238   -0.237375
  F      3.356501   -1.728856    0.220323
  F      3.601948   -0.116948    1.681325
  F      2.134319    1.555026    0.274372
  F      2.299128    0.345112   -1.550235
  F      0.757088   -1.533614   -0.629259
  F      0.955363   -0.870557    1.450098
  F     -0.452914    1.281103    1.072409
  F     -0.296181    1.170856   -1.111986
  F     -1.671584   -1.379818    0.859670
  F     -1.842502   -0.916923   -1.274097
  F     -2.883918    1.689106   -0.327697
  F     -3.092747    0.655070    1.591839
  F     -4.423530   -1.429355    0.163646
  F     -5.358445    0.525926    0.271350
  F     -4.410372   -0.115379   -1.567001

----------------------------
CARTESIAN COORDINATES (A.U.)
----------------------------
  NO LB      ZA    FRAG     MASS         X           Y           Z
   0 C     6.0000    0    12.011    9.110005    0.257262   -0.755684
   1 O     8.0000    0    15.999   10.230543   -1.348828   -2.033298
   2 O     8.0000    0    15.999    9.551710    2.525490   -0.352545
   3 C     6.0000    0    12.011    6.648527   -0.714823    0.643505
   4 C     6.0000    0    12.011    4.198490    0.549665   -0.372019
   5 C     6.0000    0    12.011    1.684851   -0.855914    0.319039
   6 C     6.0000    0    12.011   -0.735769    0.835661    0.034457
   7 C     6.0000    0    12.011   -3.255809   -0.719173   -0.081889
   8 C     6.0000    0    12.011   -5.662933    0.910719    0.493587
   9 C     6.0000    0    12.011   -8.187248   -0.300916   -0.448574
  10 F     9.0000    0    18.998    6.342868   -3.267064    0.416350
  11 F     9.0000    0    18.998    6.806695   -0.221000    3.177244
  12 F     9.0000    0    18.998    4.033278    2.938573    0.518488
  13 F     9.0000    0    18.998    4.344722    0.652167   -2.929520
  14 F     9.0000    0    18.998    1.430689   -2.898110   -1.189127
  15 F     9.0000    0    18.998    1.805374   -1.645114    2.740288
  16 F     9.0000    0    18.998   -0.855883    2.420934    2.026559
  17 F     9.0000    0    18.998   -0.559701    2.212597   -2.101349
  18 F     9.0000    0    18.998   -3.158836   -2.607478    1.624541
  19 F     9.0000    0    18.998   -3.481824   -1.732733   -2.407694
  20 F     9.0000    0    18.998   -5.449815    3.191948   -0.619258
  21 F     9.0000    0    18.998   -5.844445    1.237903    3.008140
  22 F     9.0000    0    18.998   -8.359260   -2.701089    0.309246
  23 F     9.0000    0    18.998  -10.125994    0.993856    0.512777
  24 F     9.0000    0    18.998   -8.334395   -0.218035   -2.961203

--------------------------------
INTERNAL COORDINATES (ANGSTROEM)
--------------------------------
 C      0   0   0     0.000000000000     0.00000000     0.00000000
 O      1   0   0     1.237349951817     0.00000000     0.00000000
 O      1   2   0     1.241311007302   131.90105057     0.00000000
 C      1   2   3     1.584137034145   115.23795407   179.98507250
 C      4   1   2     1.554817817856   112.60332609   245.78730078
 C      5   4   1     1.567257063938   115.01289755   162.64451927
 C      6   5   4     1.569955139886   113.54676537   161.97241949
 C      7   6   5     1.568155844302   113.48122916   162.61514737
 C      8   7   6     1.568184081628   113.23804208   161.77355193
 C      9   8   7     1.563348767838   113.98837408   161.03178293
 F      4   1   2     1.365540040890   112.17388841     6.88154214
 F      4   1   2     1.368586957489   110.21937079   125.24184899
 F      5   4   1     1.351960452642   109.62511076   284.42621323
 F      5   4   1     1.356666276906   108.32669011    42.41535042
 F      6   5   4     1.350151921242   109.05578316   283.16917413
 F      6   5   4     1.349122958560   109.17082614    41.63493178
 F      7   6   5     1.348725876733   108.54907627   283.29746378
 F      7   6   5     1.347960943459   109.40475837    41.90031776
 F      8   7   6     1.347793055842   109.28785692    41.37106501
 F      8   7   6     1.347871188646   108.66858118   282.93045306
 F      9   8   7     1.347880375133   109.86344776    40.41594400
 F      9   8   7     1.345294097394   108.71476387   281.41468364
 F     10   9   8     1.335028309346   110.64933802    49.70428907
 F     10   9   8     1.334467577771   108.95081910   169.22314119
 F     10   9   8     1.332626047114   110.77030999   288.59237676

---------------------------
INTERNAL COORDINATES (A.U.)
---------------------------
 C      0   0   0     0.000000000000     0.00000000     0.00000000
 O      1   0   0     2.338252540754     0.00000000     0.00000000
 O      1   2   0     2.345737850823   131.90105057     0.00000000
 C      1   2   3     2.993585153136   115.23795407   179.98507250
 C      4   1   2     2.938179863890   112.60332609   245.78730078
 C      5   4   1     2.961686632297   115.01289755   162.64451927
 C      6   5   4     2.966785256926   113.54676537   161.97241949
 C      7   6   5     2.963385081038   113.48122916   162.61514737
 C      8   7   6     2.963438441851   113.23804208   161.77355193
 C      9   8   7     2.954301023017   113.98837408   161.03178293
 F      4   1   2     2.580496702185   112.17388841     6.88154214
 F      4   1   2     2.586254540111   110.21937079   125.24184899
 F      5   4   1     2.554834999386   109.62511076   284.42621323
 F      5   4   1     2.563727718479   108.32669011    42.41535042
 F      6   5   4     2.551417370335   109.05578316   283.16917413
 F      6   5   4     2.549472912664   109.17082614    41.63493178
 F      7   6   5     2.548722536758   108.54907627   283.29746378
 F      7   6   5     2.547277022359   109.40475837    41.90031776
 F      8   7   6     2.546959760742   109.28785692    41.37106501
 F      8   7   6     2.547107410344   108.66858118   282.93045306
 F      9   8   7     2.547124770289   109.86344776    40.41594400
 F      9   8   7     2.542237413656   108.71476387   281.41468364
 F     10   9   8     2.522837885696   110.64933802    49.70428907
 F     10   9   8     2.521778256584   108.95081910   169.22314119
 F     10   9   8     2.518298267975   110.77030999   288.59237676

---------------------
BASIS SET INFORMATION
---------------------
There are 3 groups of distinct atoms

 Group   1 Type C   : 11s6p2d1f contracted to 5s3p2d1f pattern {62111/411/11/1}
 Group   2 Type O   : 11s6p2d1f contracted to 5s3p2d1f pattern {62111/411/11/1}
 Group   3 Type F   : 11s6p2d1f contracted to 5s3p2d1f pattern {62111/411/11/1}

Atom   0C    basis set group =>   1
Atom   1O    basis set group =>   2
Atom   2O    basis set group =>   2
Atom   3C    basis set group =>   1
Atom   4C    basis set group =>   1
Atom   5C    basis set group =>   1
Atom   6C    basis set group =>   1
Atom   7C    basis set group =>   1
Atom   8C    basis set group =>   1
Atom   9C    basis set group =>   1
Atom  10F    basis set group =>   3
Atom  11F    basis set group =>   3
Atom  12F    basis set group =>   3
Atom  13F    basis set group =>   3
Atom  14F    basis set group =>   3
Atom  15F    basis set group =>   3
Atom  16F    basis set group =>   3
Atom  17F    basis set group =>   3
Atom  18F    basis set group =>   3
Atom  19F    basis set group =>   3
Atom  20F    basis set group =>   3
Atom  21F    basis set group =>   3
Atom  22F    basis set group =>   3
Atom  23F    basis set group =>   3
Atom  24F    basis set group =>   3
---------------------------------
AUXILIARY/J BASIS SET INFORMATION
---------------------------------
There are 3 groups of distinct atoms

 Group   1 Type C   : 12s5p4d2f1g contracted to 6s4p3d1f1g pattern {711111/2111/211/2/1}
 Group   2 Type O   : 12s5p4d2f1g contracted to 6s4p3d1f1g pattern {711111/2111/211/2/1}
 Group   3 Type F   : 12s5p4d2f1g contracted to 6s4p3d1f1g pattern {711111/2111/211/2/1}

Atom   0C    basis set group =>   1
Atom   1O    basis set group =>   2
Atom   2O    basis set group =>   2
Atom   3C    basis set group =>   1
Atom   4C    basis set group =>   1
Atom   5C    basis set group =>   1
Atom   6C    basis set group =>   1
Atom   7C    basis set group =>   1
Atom   8C    basis set group =>   1
Atom   9C    basis set group =>   1
Atom  10F    basis set group =>   3
Atom  11F    basis set group =>   3
Atom  12F    basis set group =>   3
Atom  13F    basis set group =>   3
Atom  14F    basis set group =>   3
Atom  15F    basis set group =>   3
Atom  16F    basis set group =>   3
Atom  17F    basis set group =>   3
Atom  18F    basis set group =>   3
Atom  19F    basis set group =>   3
Atom  20F    basis set group =>   3
Atom  21F    basis set group =>   3
Atom  22F    basis set group =>   3
Atom  23F    basis set group =>   3
Atom  24F    basis set group =>   3


           ************************************************************
           *        Program running with 20 parallel MPI-processes    *
           *              working on a common directory               *
           ************************************************************
------------------------------------------------------------------------------
                             ORCA STARTUP CALCULATIONS
                           -- RI-GTO INTEGRALS CHOSEN --
------------------------------------------------------------------------------
------------------------------------------------------------------------------
                   ___                                                        
                  /   \      - P O W E R E D   B Y -                         
                 /     \                                                     
                 |  |  |   _    _      __       _____    __    __             
                 |  |  |  | |  | |    /  \     |  _  \  |  |  /  |          
                  \  \/   | |  | |   /    \    | | | |  |  | /  /          
                 / \  \   | |__| |  /  /\  \   | |_| |  |  |/  /          
                |  |  |   |  __  | /  /__\  \  |    /   |      \           
                |  |  |   | |  | | |   __   |  |    \   |  |\   \          
                \     /   | |  | | |  |  |  |  | |\  \  |  | \   \       
                 \___/    |_|  |_| |__|  |__|  |_| \__\ |__|  \__/        
                                                                              
                      - O R C A' S   B I G   F R I E N D -                    
                                      &                                       
                       - I N T E G R A L  F E E D E R -                       
                                                                              
 v1 FN, 2020, v2 2021, v3 2022-2024                                           
------------------------------------------------------------------------------


----------------------
SHARK INTEGRAL PACKAGE
----------------------

Number of atoms                             ...     25
Number of basis functions                   ...    775
Number of shells                            ...    275
Maximum angular momentum                    ...      3
Integral batch strategy                     ... SHARK/LIBINT Hybrid
RI-J (if used) integral strategy            ... SPLIT-RIJ (Revised 2003 algorithm where possible)
Printlevel                                  ...      1
Contraction scheme used                     ... SEGMENTED contraction
Prescreening option                         ... SCHWARTZ
   Thresh                                   ... 2.500e-11
   Tcut                                     ... 2.500e-12
   Tpresel                                  ... 2.500e-12 
Coulomb Range Separation                    ... NOT USED
Exchange Range Separation                   ... NOT USED
Multipole approximations                    ... NOT USED
Finite Nucleus Model                        ... NOT USED
CABS basis                                  ... NOT available
Auxiliary Coulomb fitting basis             ... AVAILABLE
   # of basis functions in Aux-J            ...   1225
   # of shells in Aux-J                     ...    375
   Maximum angular momentum in Aux-J        ...      4
Auxiliary J/K fitting basis                 ... NOT available
Auxiliary Correlation fitting basis         ... NOT available
Auxiliary 'external' fitting basis          ... NOT available

Checking pre-screening integrals            ... done (  0.0 sec) Dimension = 275
Check shell pair data                       ... done (  0.0 sec)
Shell pair information
Shell pair cut-off parameter TPreSel        ...   2.5e-12
Total number of shell pairs                 ...     37950
Shell pairs after pre-screening             ...     23392
Total number of primitive shell pairs       ...    125800
Primitive shell pairs kept                  ...     49679
          la=0 lb=0:   4368 shell pairs
          la=1 lb=0:   6360 shell pairs
          la=1 lb=1:   2230 shell pairs
          la=2 lb=0:   3473 shell pairs
          la=2 lb=1:   2581 shell pairs
          la=2 lb=2:    727 shell pairs
          la=3 lb=0:   1580 shell pairs
          la=3 lb=1:   1244 shell pairs
          la=3 lb=2:    669 shell pairs
          la=3 lb=3:    160 shell pairs

Calculating one electron integrals          ... done (  0.0 sec)
Calculating RI/J V-Matrix + Cholesky decomp.... done (  0.1 sec)
Calculating Nuclear repulsion               ... done (  0.0 sec) ENN=   2875.117918765096 Eh

Diagonalization of the overlap matrix:
Smallest eigenvalue                        ... 6.009e-05
Time for diagonalization                   ...    0.131 sec
Threshold for overlap eigenvalues          ... 1.000e-07
Number of eigenvalues below threshold      ... 0
Time for construction of square roots      ...    0.063 sec
Total time needed                          ...    0.200 sec

-------------------
DFT GRID GENERATION
-------------------

General Integration Accuracy     IntAcc      ... 4.388
Radial Grid Type                 RadialGrid  ... OptM3 with GC (2021)
Angular Grid (max. ang.)         AngularGrid ... 4 (Lebedev-302)
Angular grid pruning method      GridPruning ... 4 (adaptive)
Weight generation scheme         WeightScheme... mBecke (2022)
Basis function cutoff            BFCut       ... 1.0000e-11
Integration weight cutoff        WCut        ... 1.0000e-14
Partially contracted basis set               ... off
Rotationally invariant grid construction     ... off
Angular grids for H and He will be reduced by one unit

Total number of grid points                  ...   151451
Total number of batches                      ...     2379
Average number of points per batch           ...       63
Average number of grid points per atom       ...     6058

--------------------
COSX GRID GENERATION
--------------------

GRIDX 1
-------
General Integration Accuracy     IntAcc      ... 3.816
Radial Grid Type                 RadialGrid  ... OptM3 with GC (2021)
Angular Grid (max. ang.)         AngularGrid ... 1 (Lebedev-50)
Angular grid pruning method      GridPruning ... 4 (adaptive)
Weight generation scheme         WeightScheme... mBecke (2022)
Basis function cutoff            BFCut       ... 1.0000e-11
Integration weight cutoff        WCut        ... 1.0000e-14
Partially contracted basis set               ... on
Rotationally invariant grid construction     ... off
Angular grids for H and He will be reduced by one unit

Total number of grid points                  ...    19019
Total number of batches                      ...      159
Average number of points per batch           ...      119
Average number of grid points per atom       ...      761
UseSFitting                                  ... on

GRIDX 2
-------
General Integration Accuracy     IntAcc      ... 4.020
Radial Grid Type                 RadialGrid  ... OptM3 with GC (2021)
Angular Grid (max. ang.)         AngularGrid ... 2 (Lebedev-110)
Angular grid pruning method      GridPruning ... 4 (adaptive)
Weight generation scheme         WeightScheme... mBecke (2022)
Basis function cutoff            BFCut       ... 1.0000e-11
Integration weight cutoff        WCut        ... 1.0000e-14
Partially contracted basis set               ... on
Rotationally invariant grid construction     ... off
Angular grids for H and He will be reduced by one unit

Total number of grid points                  ...    45057
Total number of batches                      ...      367
Average number of points per batch           ...      122
Average number of grid points per atom       ...     1802
UseSFitting                                  ... on

GRIDX 3
-------
General Integration Accuracy     IntAcc      ... 4.338
Radial Grid Type                 RadialGrid  ... OptM3 with GC (2021)
Angular Grid (max. ang.)         AngularGrid ... 3 (Lebedev-194)
Angular grid pruning method      GridPruning ... 4 (adaptive)
Weight generation scheme         WeightScheme... mBecke (2022)
Basis function cutoff            BFCut       ... 1.0000e-11
Integration weight cutoff        WCut        ... 1.0000e-14
Partially contracted basis set               ... on
Rotationally invariant grid construction     ... off
Angular grids for H and He will be reduced by one unit

Total number of grid points                  ...    99842
Total number of batches                      ...      791
Average number of points per batch           ...      126
Average number of grid points per atom       ...     3994
UseSFitting                                  ... on
Initializing property integral containers    ... done (  0.0 sec)

SHARK setup successfully completed in   3.6 seconds

Maximum memory used throughout the entire STARTUP-calculation: 59.5 MB


           ************************************************************
           *        Program running with 20 parallel MPI-processes    *
           *              working on a common directory               *
           ************************************************************
-------------------------------------------------------------------------------
                                 ORCA GUESS
                   Start orbitals & Density for SCF / CASSCF
-------------------------------------------------------------------------------

------------
SCF SETTINGS
------------
Hamiltonian:
 Density Functional     Method          .... DFT(GTOs)
 Exchange Functional    Exchange        .... B88
   X-Alpha parameter    XAlpha          ....  0.666667
   Becke's b parameter  XBeta           ....  0.004200
 Correlation Functional Correlation     .... LYP
 LDA part of GGA corr.  LDAOpt          .... VWN-5
 Gradients option       PostSCFGGA      .... off
 Hybrid DFT is turned on
   Fraction HF Exchange ScalHFX         ....  0.200000
   Scaling of DF-GGA-X  ScalDFX         ....  0.720000
   Scaling of DF-GGA-C  ScalDFC         ....  0.810000
   Scaling of DF-LDA-C  ScalLDAC        ....  1.000000
   Perturbative correction              ....  0.000000
   NL short-range parameter             ....  4.800000
 RI-approximation to the Coulomb term is turned on
   Number of AuxJ basis functions       .... 1225
   RIJ-COSX (HFX calculated with COS-X)).... on


General Settings:
 Integral files         IntName         .... rf_mecn_freq_B3L_D_B
 Hartree-Fock type      HFTyp           .... RHF
 Total Charge           Charge          ....   -1
 Multiplicity           Mult            ....    1
 Number of Electrons    NEL             ....  200
 Basis Dimension        Dim             ....  775
 Nuclear Repulsion      ENuc            ....   2875.1179187651 Eh

Convergence Acceleration:
 AO-DIIS                CNVDIIS         .... on
   Start iteration      DIISMaxIt       ....     0
   Startup error        DIISStart       ....  0.200000
   # of expansion vecs  DIISMaxEq       ....     5
   Bias factor          DIISBfac        ....   1.050
   Max. coefficient     DIISMaxC        ....  10.000
 MO-DIIS                CNVKDIIS        .... off
 Trust-Rad. Augm. Hess. CNVTRAH         .... auto
   Auto Start mean grad. ratio tolernc. ....  1.125000
   Auto Start start iteration           ....    50
   Auto Start num. interpolation iter.  ....    10
   Max. Number of Micro iterations      ....    24
   Max. Number of Macro iterations      .... Maxiter - #DIIS iter
   Number of Davidson start vectors     ....     2
   Converg. threshold    (grad. norm)   ....   1.000e-05
   Grad. Scal. Fac. for Micro threshold ....   0.100
   Minimum threshold for Micro iter.    ....   1.000e-02
   NR start threshold (gradient norm)   ....   1.000e-04
   Initial trust radius                 ....   0.400
   Minimum AH scaling param. (alpha)    ....   1.000
   Maximum AH scaling param. (alpha)    .... 1000.000
   Quad. conv. algorithm                .... NR
   White noise on init. David. guess    .... on
   Maximum white noise                  ....   0.010
   Pseudo random numbers                .... off
   Inactive MOs                         .... canonical
   Orbital update algorithm             .... Taylor
   Preconditioner                       .... Diag
   Full preconditioner red. dimension   ....   250
 SOSCF                  CNVSOSCF        .... on
   Start iteration      SOSCFMaxIt      ....   150
   Startup grad/error   SOSCFStart      ....  0.001000
   Hessian update       SOSCFHessUp     .... L-BFGS
 Level Shifting         CNVShift        .... on
   Level shift para.    LevelShift      ....    0.2500
   Turn off err/grad.   ShiftErr        ....    0.0000
 Zerner damping         CNVZerner       .... off
 Static damping         CNVDamp         .... on
   Fraction old density DampFac         ....    0.8500
   Max. Damping (<1)    DampMax         ....    0.9800
   Min. Damping (>=0)   DampMin         ....    0.0000
   Turn off err/grad.   DampErr         ....    0.0300

SCF Procedure:
 Maximum # iterations   MaxIter         ....  1500
 SCF integral mode      SCFMode         .... Direct
   Integral package                     .... SHARK and LIBINT hybrid scheme
 Reset frequency        DirectResetFreq ....    20
 Integral Threshold     Thresh          ....  2.500e-11 Eh
 Primitive CutOff       TCut            ....  2.500e-12 Eh

Convergence Tolerance:
 Convergence Check Mode ConvCheckMode   .... Total+1el-Energy
 Convergence forced     ConvForced      .... 0
 Energy Change          TolE            ....  1.000e-08 Eh
 1-El. energy change                    ....  1.000e-05 Eh
 Orbital Gradient       TolG            ....  1.000e-05
 Orbital Rotation angle TolX            ....  1.000e-05
 DIIS Error             TolErr          ....  5.000e-07

------------------------------
INITIAL GUESS: MODEL POTENTIAL
------------------------------
Loading Hartree-Fock densities                     ... done
Calculating cut-offs                               ... done
Initializing the effective Hamiltonian             ... done
Setting up the integral package (SHARK)            ... done
Starting the Coulomb interaction                   ... done (   0.2 sec)
Making the grid                                    ... done (   0.5 sec)
Mapping shells                                     ... done
Starting the XC term evaluation                    ... done (   0.2 sec)
  promolecular density results
     # of electrons  =    198.999111897
     EX              =   -208.347178438
     EC              =     -7.501523273
     EX+EC           =   -215.848701711
Transforming the Hamiltonian                       ... done (   0.1 sec)
Diagonalizing the Hamiltonian                      ... done (   0.1 sec)
Back transforming the eigenvectors                 ... done (   0.0 sec)
Now organizing SCF variables                       ... done
                      ------------------
                      INITIAL GUESS DONE (   1.1 sec)
                      ------------------
             **** ENERGY FILE WAS UPDATED (rf_mecn_freq_B3L_D_B.en.tmp) ****
Finished Guess after   1.8 sec
Maximum memory used throughout the entire GUESS-calculation: 48.7 MB


           ************************************************************
           *        Program running with 20 parallel MPI-processes    *
           *              working on a common directory               *
           ************************************************************

-------------------------------------------------------------------------------------------
                                      ORCA LEAN-SCF
                              memory conserving SCF solver
-------------------------------------------------------------------------------------------

--------------------
CPCM SOLVATION MODEL
--------------------
CPCM parameters:
  Epsilon                                         ...      35.6880
  Refrac                                          ...       1.3442
  Rsolv                                           ...       1.3000
  Surface type                                    ... GAUSSIAN VDW
  Discretization scheme                           ... Constant charge density
    Threshold for H atoms                         ...       5.0000 (charges/Ang^2)
    Threshold for non-H atoms                     ...       5.0000 (charges/Ang^2)
  Epsilon function type                           ...         CPCM
Solvent:                                          ... ACETONITRILE
SMD-CDS solvent descriptors:
  Soln                                            ...       1.3442
  Soln25                                          ...       1.3416
  Sola                                            ...       0.0700
  Solb                                            ...       0.3200
  Solg                                            ...      41.2500
  Solc                                            ...       0.0000
  Solh                                            ...       0.0000
Radii:
  Scheme                                          ... Element-dependent radii
  Radius for C  used is    3.4960 Bohr (=   1.8500 Ang.)
  Radius for O  used is    4.0969 Bohr (=   2.1680 Ang.)
  Radius for F  used is    3.2692 Bohr (=   1.7300 Ang.)
Calculating surface                               ...        done! (  0.0s)
Cavity surface points                             ...         2141
Cavity Volume                                     ...    2165.6517
Cavity Surface-area                               ...    1117.2093
Calculating surface distance matrix               ...        done! (  0.0s)
Performing Cholesky decomposition & store         ...        done! (  0.1s)
Overall time for CPCM initialization              ...                 0.1s

----------------------------------------D-I-I-S--------------------------------------------
Iteration    Energy (Eh)           Delta-E    RMSDP     MaxDP     DIISErr   Damp  Time(sec)
-------------------------------------------------------------------------------------------
               ***  Starting incremental Fock matrix formation  ***
    1    -1952.5776953468430293     0.00e+00  5.55e-04  7.87e-02  3.37e-01  0.850   6.6
Warning: op=0 Small HOMO/LUMO gap (   0.043) - skipping pre-diagonalization
         Will do a full diagonalization
    2    -1952.7562053606652626    -1.79e-01  7.43e-04  1.61e-01  2.34e-01  0.850   4.1
                               ***Turning on AO-DIIS***
    3    -1952.8530027275983230    -9.68e-02  3.83e-04  7.93e-02  1.43e-01  0.850   3.7
    4    -1952.9111716013940168    -5.82e-02  2.02e-04  3.40e-02  1.08e-01  0.850   3.5
    5    -1952.9526180862494584    -4.14e-02  1.19e-04  1.25e-02  8.88e-02  0.850   3.4
    6    -1952.9854375514478306    -3.28e-02  8.29e-05  5.62e-03  7.60e-02  0.850   3.4
    7    -1953.0126794133984731    -2.72e-02  6.89e-05  4.29e-03  6.53e-02  0.850   3.2
    8    -1953.0356293596814794    -2.29e-02  6.04e-05  3.83e-03  5.50e-02  0.850   3.2
    9    -1953.0547508762483631    -1.91e-02  5.19e-05  3.24e-03  4.57e-02  0.850   3.3
   10    -1953.0706092453774545    -1.59e-02  4.37e-05  2.72e-03  3.80e-02  0.850   3.4
   11    -1953.0838081542951841    -1.32e-02  3.64e-05  2.32e-03  3.18e-02  0.850   3.4
   12    -1953.0948482123876602    -1.10e-02  3.04e-05  2.01e-03  2.67e-02  0.850   3.4
   13    -1953.1041164242915329    -9.27e-03  1.71e-04  1.16e-02  2.23e-02  0.000   3.4
   14    -1953.1548026082664364    -5.07e-02  1.26e-05  2.20e-03  2.19e-03  0.000   3.6
                              *** Initializing SOSCF ***
---------------------------------------S-O-S-C-F--------------------------------------
Iteration    Energy (Eh)           Delta-E    RMSDP     MaxDP     MaxGrad    Time(sec)
--------------------------------------------------------------------------------------
   15    -1953.1548228331103019    -2.02e-05  7.09e-06  1.41e-03  4.86e-04     3.4
               *** Restarting incremental Fock matrix formation ***
   16    -1953.1548017371451351     2.11e-05  6.73e-06  6.02e-04  3.47e-05     6.3
   17    -1953.1548016243868915     1.13e-07  1.27e-06  9.50e-05  5.48e-05     4.2
   18    -1953.1548019676274635    -3.43e-07  7.20e-07  9.91e-05  8.48e-06     3.7
   19    -1953.1548019465726611     2.11e-08  3.51e-07  5.76e-05  1.63e-05     3.1
   20    -1953.1548019409256085     5.65e-09  3.46e-07  4.59e-05  3.19e-06     2.7
                 **** Energy Check signals convergence ****

               *****************************************************
               *                     SUCCESS                       *
               *           SCF CONVERGED AFTER  20 CYCLES          *
               *****************************************************

Recomputing exchange energy using gridx3       ... done (    8.743 sec)
Old exchange energy                            :    -41.815917603 Eh
New exchange energy                            :    -41.815943712 Eh
Exchange energy change after final integration :     -0.000026108 Eh
Total energy after final integration           :  -1953.154828049 Eh

SMD CDS free energy correction energy :                 3.26670     Kcal/mol
Total Energy after SMD CDS correction =             -1953.149622237 Eh
             **** ENERGY FILE WAS UPDATED (rf_mecn_freq_B3L_D_B.en.tmp) ****

----------------
TOTAL SCF ENERGY
----------------

Total Energy       :      -1953.14962223674252 Eh          -53147.90321 eV

Components:
Nuclear Repulsion  :       2875.11791876509596 Eh           78235.93601 eV
Electronic Energy  :      -4828.18996517334926 Eh         -131381.72827 eV
One Electron Energy:      -8463.73551324319124 Eh         -230309.95205 eV
Two Electron Energy:       3635.54554806984197 Eh           98928.22378 eV
CPCM Dielectric    :         -0.08275553267248 Eh              -2.25189 eV
SMD CDS (Gcds)     :          0.00520581256483 Eh               0.14166 eV

Virial components:
Potential Energy   :      -3899.71216583553451 Eh         -106116.56289 eV
Kinetic Energy     :       1946.56254359879222 Eh           52968.65969 eV
Virial Ratio       :          2.00338395427345

DFT components:
N(Alpha)           :       99.999984314368 electrons
N(Beta)            :       99.999984314368 electrons
N(Total)           :      199.999968628735 electrons
E(X)               :     -166.650810385194 Eh       
E(C)               :       -8.799378272583 Eh       
E(XC)              :     -175.450188657776 Eh       

CPCM Solvation Model Properties:
Surface-charge          :          0.98961998375692
Corrected charge        :          1.00000000000000
Outlying charge corr.   :          0.00000587337844 Eh               0.00016 eV
Free-energy (cav+disp)  :          0.00520581256483 Eh               0.14166 eV

---------------
SCF CONVERGENCE
---------------

  Last Energy change         ...   -5.6471e-09  Tolerance :   1.0000e-08
  Last MAX-Density change    ...    4.5885e-05  Tolerance :   1.0000e-07
  Last RMS-Density change    ...    3.4571e-07  Tolerance :   5.0000e-09
  Last DIIS Error            ...    4.8595e-04  Tolerance :   5.0000e-07
  Last Orbital Gradient      ...    3.1900e-06  Tolerance :   1.0000e-05
  Last Orbital Rotation      ...    6.3477e-06  Tolerance :   1.0000e-05


----------------
ORBITAL ENERGIES
----------------

  NO   OCC          E(Eh)            E(eV) 
   0   2.0000     -24.744871      -673.3422 
   1   2.0000     -24.743600      -673.3076 
   2   2.0000     -24.743462      -673.3038 
   3   2.0000     -24.743207      -673.2969 
   4   2.0000     -24.742987      -673.2909 
   5   2.0000     -24.742942      -673.2897 
   6   2.0000     -24.742161      -673.2684 
   7   2.0000     -24.740190      -673.2148 
   8   2.0000     -24.740139      -673.2134 
   9   2.0000     -24.734821      -673.0687 
  10   2.0000     -24.733928      -673.0444 
  11   2.0000     -24.723116      -672.7502 
  12   2.0000     -24.723066      -672.7488 
  13   2.0000     -24.698248      -672.0735 
  14   2.0000     -24.698205      -672.0723 
  15   2.0000     -19.061647      -518.6938 
  16   2.0000     -19.059747      -518.6421 
  17   2.0000     -10.461004      -284.6584 
  18   2.0000     -10.407847      -283.2119 
  19   2.0000     -10.407022      -283.1895 
  20   2.0000     -10.404454      -283.1196 
  21   2.0000     -10.397281      -282.9244 
  22   2.0000     -10.381532      -282.4959 
  23   2.0000     -10.343360      -281.4571 
  24   2.0000     -10.254429      -279.0372 
  25   2.0000      -1.353633       -36.8342 
  26   2.0000      -1.330096       -36.1937 
  27   2.0000      -1.315001       -35.7830 
  28   2.0000      -1.307325       -35.5741 
  29   2.0000      -1.303188       -35.4616 
  30   2.0000      -1.291273       -35.1373 
  31   2.0000      -1.266921       -34.4747 
  32   2.0000      -1.262725       -34.3605 
  33   2.0000      -1.260689       -34.3051 
  34   2.0000      -1.259871       -34.2828 
  35   2.0000      -1.253188       -34.1010 
  36   2.0000      -1.249752       -34.0075 
  37   2.0000      -1.245452       -33.8905 
  38   2.0000      -1.233647       -33.5692 
  39   2.0000      -1.204967       -32.7888 
  40   2.0000      -1.024797       -27.8862 
  41   2.0000      -0.942339       -25.6423 
  42   2.0000      -0.846508       -23.0347 
  43   2.0000      -0.824684       -22.4408 
  44   2.0000      -0.795512       -21.6470 
  45   2.0000      -0.757981       -20.6257 
  46   2.0000      -0.716628       -19.5004 
  47   2.0000      -0.689079       -18.7508 
  48   2.0000      -0.670501       -18.2453 
  49   2.0000      -0.650823       -17.7098 
  50   2.0000      -0.645957       -17.5774 
  51   2.0000      -0.638136       -17.3646 
  52   2.0000      -0.629474       -17.1289 
  53   2.0000      -0.625678       -17.0256 
  54   2.0000      -0.623382       -16.9631 
  55   2.0000      -0.610803       -16.6208 
  56   2.0000      -0.607701       -16.5364 
  57   2.0000      -0.603269       -16.4158 
  58   2.0000      -0.596238       -16.2244 
  59   2.0000      -0.584811       -15.9135 
  60   2.0000      -0.581858       -15.8332 
  61   2.0000      -0.575877       -15.6704 
  62   2.0000      -0.564601       -15.3636 
  63   2.0000      -0.550292       -14.9742 
  64   2.0000      -0.517237       -14.0747 
  65   2.0000      -0.513723       -13.9791 
  66   2.0000      -0.508065       -13.8251 
  67   2.0000      -0.504140       -13.7183 
  68   2.0000      -0.500289       -13.6136 
  69   2.0000      -0.496530       -13.5113 
  70   2.0000      -0.492315       -13.3966 
  71   2.0000      -0.486879       -13.2487 
  72   2.0000      -0.482906       -13.1405 
  73   2.0000      -0.480441       -13.0735 
  74   2.0000      -0.477311       -12.9883 
  75   2.0000      -0.470816       -12.8115 
  76   2.0000      -0.468505       -12.7487 
  77   2.0000      -0.463698       -12.6179 
  78   2.0000      -0.459950       -12.5159 
  79   2.0000      -0.456160       -12.4127 
  80   2.0000      -0.453204       -12.3323 
  81   2.0000      -0.451971       -12.2988 
  82   2.0000      -0.448795       -12.2123 
  83   2.0000      -0.444466       -12.0945 
  84   2.0000      -0.443594       -12.0708 
  85   2.0000      -0.441099       -12.0029 
  86   2.0000      -0.437478       -11.9044 
  87   2.0000      -0.434205       -11.8153 
  88   2.0000      -0.432525       -11.7696 
  89   2.0000      -0.425243       -11.5714 
  90   2.0000      -0.415555       -11.3078 
  91   2.0000      -0.412200       -11.2165 
  92   2.0000      -0.401233       -10.9181 
  93   2.0000      -0.399465       -10.8700 
  94   2.0000      -0.385123       -10.4797 
  95   2.0000      -0.373091       -10.1523 
  96   2.0000      -0.342300        -9.3144 
  97   2.0000      -0.250669        -6.8210 
  98   2.0000      -0.238925        -6.5015 
  99   2.0000      -0.237048        -6.4504 
 100   0.0000      -0.007912        -0.2153 
 101   0.0000       0.005933         0.1614 
 102   0.0000       0.026935         0.7329 
 103   0.0000       0.053931         1.4675 
 104   0.0000       0.057188         1.5562 
 105   0.0000       0.094661         2.5758 
 106   0.0000       0.101803         2.7702 
 107   0.0000       0.103079         2.8049 
 108   0.0000       0.113001         3.0749 
 109   0.0000       0.130291         3.5454 
 110   0.0000       0.137535         3.7425 
*Only the first 10 virtual orbitals were printed.

                    ********************************
                    * MULLIKEN POPULATION ANALYSIS *
                    ********************************

-----------------------
MULLIKEN ATOMIC CHARGES
-----------------------
   0 C :    0.143107
   1 O :   -0.471793
   2 O :   -0.486195
   3 C :    0.341234
   4 C :    0.318839
   5 C :    0.333849
   6 C :    0.331148
   7 C :    0.313093
   8 C :    0.321996
   9 C :    0.476462
  10 F :   -0.211681
  11 F :   -0.218145
  12 F :   -0.183547
  13 F :   -0.191580
  14 F :   -0.176084
  15 F :   -0.174546
  16 F :   -0.170538
  17 F :   -0.170125
  18 F :   -0.168484
  19 F :   -0.168119
  20 F :   -0.165639
  21 F :   -0.162698
  22 F :   -0.155194
  23 F :   -0.152566
  24 F :   -0.152793
Sum of atomic charges:   -1.0000000

--------------------------------
MULLIKEN REDUCED ORBITAL CHARGES
--------------------------------
  0 C s       :     3.049718  s :     3.049718
      pz      :     0.839475  p :     2.538247
      px      :     0.882096
      py      :     0.816675
      dz2     :     0.033408  d :     0.244139
      dxz     :     0.022055
      dyz     :     0.059773
      dx2y2   :     0.058106
      dxy     :     0.070798
      f0      :     0.002401  f :     0.024789
      f+1     :     0.001731
      f-1     :     0.003165
      f+2     :     0.005019
      f-2     :     0.002560
      f+3     :     0.004963
      f-3     :     0.004951

  1 O s       :     3.765223  s :     3.765223
      pz      :     1.487530  p :     4.677744
      px      :     1.608063
      py      :     1.582150
      dz2     :     0.005895  d :     0.027162
      dxz     :     0.003820
      dyz     :     0.006259
      dx2y2   :     0.004960
      dxy     :     0.006229
      f0      :     0.000125  f :     0.001664
      f+1     :     0.000137
      f-1     :     0.000338
      f+2     :     0.000251
      f-2     :     0.000313
      f+3     :     0.000239
      f-3     :     0.000262

  2 O s       :     3.765459  s :     3.765459
      pz      :     1.614078  p :     4.692073
      px      :     1.702757
      py      :     1.375238
      dz2     :     0.002934  d :     0.027017
      dxz     :     0.000805
      dyz     :     0.007939
      dx2y2   :     0.008182
      dxy     :     0.007157
      f0      :     0.000176  f :     0.001646
      f+1     :     0.000029
      f-1     :     0.000248
      f+2     :     0.000287
      f-2     :     0.000096
      f+3     :     0.000404
      f-3     :     0.000406

  3 C s       :     3.139124  s :     3.139124
      pz      :     0.653703  p :     2.246371
      px      :     0.961424
      py      :     0.631244
      dz2     :     0.043848  d :     0.247001
      dxz     :     0.048142
      dyz     :     0.064694
      dx2y2   :     0.038823
      dxy     :     0.051494
      f0      :     0.005140  f :     0.026270
      f+1     :     0.004529
      f-1     :     0.004913
      f+2     :     0.003139
      f-2     :     0.001348
      f+3     :     0.004483
      f-3     :     0.002718

  4 C s       :     3.151495  s :     3.151495
      pz      :     0.616258  p :     2.227196
      px      :     0.932851
      py      :     0.678088
      dz2     :     0.054628  d :     0.274833
      dxz     :     0.056212
      dyz     :     0.068336
      dx2y2   :     0.038354
      dxy     :     0.057302
      f0      :     0.003943  f :     0.027638
      f+1     :     0.005062
      f-1     :     0.007748
      f+2     :     0.002191
      f-2     :     0.002005
      f+3     :     0.004107
      f-3     :     0.002582

  5 C s       :     3.151647  s :     3.151647
      pz      :     0.587875  p :     2.205389
      px      :     0.913361
      py      :     0.704153
      dz2     :     0.069313  d :     0.281198
      dxz     :     0.060103
      dyz     :     0.060142
      dx2y2   :     0.034560
      dxy     :     0.057080
      f0      :     0.004539  f :     0.027917
      f+1     :     0.004508
      f-1     :     0.006972
      f+2     :     0.002898
      f-2     :     0.003886
      f+3     :     0.002789
      f-3     :     0.002323

  6 C s       :     3.150882  s :     3.150882
      pz      :     0.577396  p :     2.205054
      px      :     0.912858
      py      :     0.714800
      dz2     :     0.078381  d :     0.284854
      dxz     :     0.061305
      dyz     :     0.053694
      dx2y2   :     0.033338
      dxy     :     0.058136
      f0      :     0.006064  f :     0.028063
      f+1     :     0.003983
      f-1     :     0.004696
      f+2     :     0.004023
      f-2     :     0.005203
      f+3     :     0.002099
      f-3     :     0.001995

  7 C s       :     3.150583  s :     3.150583
      pz      :     0.584981  p :     2.222920
      px      :     0.924344
      py      :     0.713595
      dz2     :     0.075116  d :     0.285319
      dxz     :     0.061029
      dyz     :     0.057661
      dx2y2   :     0.033219
      dxy     :     0.058293
      f0      :     0.005287  f :     0.028084
      f+1     :     0.004173
      f-1     :     0.005963
      f+2     :     0.003437
      f-2     :     0.004672
      f+3     :     0.002412
      f-3     :     0.002140

  8 C s       :     3.129843  s :     3.129843
      pz      :     0.614303  p :     2.240942
      px      :     0.930005
      py      :     0.696635
      dz2     :     0.059538  d :     0.279122
      dxz     :     0.059557
      dyz     :     0.068912
      dx2y2   :     0.034096
      dxy     :     0.057018
      f0      :     0.003835  f :     0.028097
      f+1     :     0.004958
      f-1     :     0.008265
      f+2     :     0.002277
      f-2     :     0.002584
      f+3     :     0.003595
      f-3     :     0.002583

  9 C s       :     3.024199  s :     3.024199
      pz      :     0.648490  p :     2.114048
      px      :     0.804969
      py      :     0.660588
      dz2     :     0.065367  d :     0.344877
      dxz     :     0.067623
      dyz     :     0.083467
      dx2y2   :     0.063067
      dxy     :     0.065353
      f0      :     0.004753  f :     0.040414
      f+1     :     0.007739
      f-1     :     0.009345
      f+2     :     0.004145
      f-2     :     0.003334
      f+3     :     0.007219
      f-3     :     0.003879

 10 F s       :     3.908566  s :     3.908566
      pz      :     1.899740  p :     5.287151
      px      :     1.908428
      py      :     1.478983
      dz2     :     0.002154  d :     0.015301
      dxz     :     0.000222
      dyz     :     0.003054
      dx2y2   :     0.006029
      dxy     :     0.003842
      f0      :     0.000053  f :     0.000664
      f+1     :     0.000013
      f-1     :     0.000132
      f+2     :     0.000092
      f-2     :     0.000009
      f+3     :     0.000157
      f-3     :     0.000207

 11 F s       :     3.909653  s :     3.909653
      pz      :     1.482682  p :     5.292837
      px      :     1.917911
      py      :     1.892244
      dz2     :     0.007593  d :     0.015000
      dxz     :     0.003571
      dyz     :     0.003292
      dx2y2   :     0.000288
      dxy     :     0.000255
      f0      :     0.000301  f :     0.000656
      f+1     :     0.000147
      f-1     :     0.000167
      f+2     :     0.000021
      f-2     :     0.000016
      f+3     :     0.000001
      f-3     :     0.000001

 12 F s       :     3.912773  s :     3.912773
      pz      :     1.844483  p :     5.253880
      px      :     1.909372
      py      :     1.500024
      dz2     :     0.002076  d :     0.016192
      dxz     :     0.000506
      dyz     :     0.004623
      dx2y2   :     0.005443
      dxy     :     0.003544
      f0      :     0.000075  f :     0.000702
      f+1     :     0.000005
      f-1     :     0.000118
      f+2     :     0.000166
      f-2     :     0.000042
      f+3     :     0.000128
      f-3     :     0.000167

 13 F s       :     3.915274  s :     3.915274
      pz      :     1.453789  p :     5.259685
      px      :     1.911290
      py      :     1.894606
      dz2     :     0.008576  d :     0.015931
      dxz     :     0.003793
      dyz     :     0.003193
      dx2y2   :     0.000201
      dxy     :     0.000168
      f0      :     0.000365  f :     0.000689
      f+1     :     0.000162
      f-1     :     0.000147
      f+2     :     0.000007
      f-2     :     0.000007
      f+3     :     0.000001
      f-3     :     0.000001

 14 F s       :     3.915169  s :     3.915169
      pz      :     1.742333  p :     5.243813
      px      :     1.904205
      py      :     1.597275
      dz2     :     0.002380  d :     0.016395
      dxz     :     0.001382
      dyz     :     0.006275
      dx2y2   :     0.003543
      dxy     :     0.002816
      f0      :     0.000079  f :     0.000706
      f+1     :     0.000009
      f-1     :     0.000163
      f+2     :     0.000201
      f-2     :     0.000099
      f+3     :     0.000075
      f-3     :     0.000080

 15 F s       :     3.914781  s :     3.914781
      pz      :     1.490079  p :     5.242593
      px      :     1.907866
      py      :     1.844648
      dz2     :     0.007345  d :     0.016461
      dxz     :     0.003496
      dyz     :     0.004526
      dx2y2   :     0.000483
      dxy     :     0.000611
      f0      :     0.000271  f :     0.000711
      f+1     :     0.000125
      f-1     :     0.000225
      f+2     :     0.000037
      f-2     :     0.000048
      f+3     :     0.000003
      f-3     :     0.000002

 16 F s       :     3.916079  s :     3.916079
      pz      :     1.621594  p :     5.237205
      px      :     1.906147
      py      :     1.709464
      dz2     :     0.003991  d :     0.016543
      dxz     :     0.002336
      dyz     :     0.006554
      dx2y2   :     0.001876
      dxy     :     0.001787
      f0      :     0.000103  f :     0.000711
      f+1     :     0.000041
      f-1     :     0.000256
      f+2     :     0.000151
      f-2     :     0.000106
      f+3     :     0.000028
      f-3     :     0.000026

 17 F s       :     3.915994  s :     3.915994
      pz      :     1.579028  p :     5.236838
      px      :     1.905294
      py      :     1.752516
      dz2     :     0.004884  d :     0.016579
      dxz     :     0.002744
      dyz     :     0.006152
      dx2y2   :     0.001365
      dxy     :     0.001433
      f0      :     0.000135  f :     0.000713
      f+1     :     0.000064
      f-1     :     0.000270
      f+2     :     0.000116
      f-2     :     0.000097
      f+3     :     0.000017
      f-3     :     0.000015

 18 F s       :     3.916646  s :     3.916646
      pz      :     1.694447  p :     5.234502
      px      :     1.905807
      py      :     1.634248
      dz2     :     0.002855  d :     0.016623
      dxz     :     0.001721
      dyz     :     0.006700
      dx2y2   :     0.002932
      dxy     :     0.002415
      f0      :     0.000082  f :     0.000714
      f+1     :     0.000015
      f-1     :     0.000204
      f+2     :     0.000197
      f-2     :     0.000105
      f+3     :     0.000054
      f-3     :     0.000056

 19 F s       :     3.916724  s :     3.916724
      pz      :     1.517849  p :     5.234070
      px      :     1.902592
      py      :     1.813628
      dz2     :     0.006454  d :     0.016613
      dxz     :     0.003325
      dyz     :     0.005188
      dx2y2   :     0.000752
      dxy     :     0.000893
      f0      :     0.000212  f :     0.000713
      f+1     :     0.000106
      f-1     :     0.000252
      f+2     :     0.000062
      f-2     :     0.000070
      f+3     :     0.000006
      f-3     :     0.000005

 20 F s       :     3.916186  s :     3.916186
      pz      :     1.810425  p :     5.232197
      px      :     1.900306
      py      :     1.521465
      dz2     :     0.002093  d :     0.016545
      dxz     :     0.000760
      dyz     :     0.005367
      dx2y2   :     0.004902
      dxy     :     0.003422
      f0      :     0.000081  f :     0.000713
      f+1     :     0.000004
      f-1     :     0.000124
      f+2     :     0.000189
      f-2     :     0.000065
      f+3     :     0.000112
      f-3     :     0.000137

 21 F s       :     3.913908  s :     3.913908
      pz      :     1.448264  p :     5.231382
      px      :     1.902191
      py      :     1.880927
      dz2     :     0.008674  d :     0.016681
      dxz     :     0.003915
      dyz     :     0.003634
      dx2y2   :     0.000212
      dxy     :     0.000246
      f0      :     0.000362  f :     0.000727
      f+1     :     0.000166
      f-1     :     0.000171
      f+2     :     0.000010
      f-2     :     0.000017
      f+3     :     0.000001
      f-3     :     0.000001

 22 F s       :     3.912328  s :     3.912328
      pz      :     1.851778  p :     5.225463
      px      :     1.891904
      py      :     1.481780
      dz2     :     0.002238  d :     0.016646
      dxz     :     0.000400
      dyz     :     0.004542
      dx2y2   :     0.005968
      dxy     :     0.003497
      f0      :     0.000079  f :     0.000757
      f+1     :     0.000007
      f-1     :     0.000136
      f+2     :     0.000162
      f-2     :     0.000035
      f+3     :     0.000138
      f-3     :     0.000201

 23 F s       :     3.911319  s :     3.911319
      pz      :     1.831092  p :     5.223779
      px      :     1.615748
      py      :     1.776938
      dz2     :     0.002212  d :     0.016702
      dxz     :     0.003737
      dyz     :     0.001983
      dx2y2   :     0.003631
      dxy     :     0.005140
      f0      :     0.000085  f :     0.000767
      f+1     :     0.000095
      f-1     :     0.000044
      f+2     :     0.000069
      f-2     :     0.000172
      f+3     :     0.000128
      f-3     :     0.000173

 24 F s       :     3.910896  s :     3.910896
      pz      :     1.442444  p :     5.224329
      px      :     1.892089
      py      :     1.889796
      dz2     :     0.009211  d :     0.016798
      dxz     :     0.003797
      dyz     :     0.003462
      dx2y2   :     0.000179
      dxy     :     0.000150
      f0      :     0.000407  f :     0.000770
      f+1     :     0.000175
      f-1     :     0.000168
      f+2     :     0.000010
      f-2     :     0.000007
      f+3     :     0.000001
      f-3     :     0.000001



                     *******************************
                     * LOEWDIN POPULATION ANALYSIS *
                     *******************************

----------------------
LOEWDIN ATOMIC CHARGES
----------------------
   0 C :   -0.693346
   1 O :   -0.049887
   2 O :   -0.056632
   3 C :   -0.436639
   4 C :   -0.453229
   5 C :   -0.454343
   6 C :   -0.455410
   7 C :   -0.456828
   8 C :   -0.463243
   9 C :   -0.664220
  10 F :    0.164168
  11 F :    0.155275
  12 F :    0.209430
  13 F :    0.202408
  14 F :    0.215801
  15 F :    0.217708
  16 F :    0.221907
  17 F :    0.222994
  18 F :    0.224622
  19 F :    0.224001
  20 F :    0.223385
  21 F :    0.224559
  22 F :    0.225163
  23 F :    0.225677
  24 F :    0.226677

-------------------------------
LOEWDIN REDUCED ORBITAL CHARGES
-------------------------------
  0 C s       :     2.775068  s :     2.775068
      pz      :     0.855759  p :     2.739480
      px      :     0.891999
      py      :     0.991722
      dz2     :     0.128989  d :     1.026680
      dxz     :     0.107904
      dyz     :     0.248215
      dx2y2   :     0.271883
      dxy     :     0.269689
      f0      :     0.015799  f :     0.152118
      f+1     :     0.010730
      f-1     :     0.017048
      f+2     :     0.029085
      f-2     :     0.016815
      f+3     :     0.030444
      f-3     :     0.032196

  1 O s       :     3.422337  s :     3.422337
      pz      :     1.453617  p :     4.560152
      px      :     1.537623
      py      :     1.568912
      dz2     :     0.008796  d :     0.061817
      dxz     :     0.010666
      dyz     :     0.016044
      dx2y2   :     0.011956
      dxy     :     0.014355
      f0      :     0.000482  f :     0.005580
      f+1     :     0.000355
      f-1     :     0.000825
      f+2     :     0.000933
      f-2     :     0.001381
      f+3     :     0.000836
      f-3     :     0.000767

  2 O s       :     3.421871  s :     3.421871
      pz      :     1.508687  p :     4.567310
      px      :     1.572872
      py      :     1.485752
      dz2     :     0.008102  d :     0.061913
      dxz     :     0.001103
      dyz     :     0.014903
      dx2y2   :     0.020931
      dxy     :     0.016874
      f0      :     0.000506  f :     0.005538
      f+1     :     0.000107
      f-1     :     0.000966
      f+2     :     0.000858
      f-2     :     0.000215
      f+3     :     0.001451
      f-3     :     0.001436

  3 C s       :     2.786222  s :     2.786222
      pz      :     0.794896  p :     2.604781
      px      :     1.036779
      py      :     0.773106
      dz2     :     0.207585  d :     0.875929
      dxz     :     0.155343
      dyz     :     0.180507
      dx2y2   :     0.173303
      dxy     :     0.159190
      f0      :     0.036104  f :     0.169707
      f+1     :     0.024534
      f-1     :     0.034398
      f+2     :     0.018513
      f-2     :     0.010495
      f+3     :     0.024790
      f-3     :     0.020873

  4 C s       :     2.764488  s :     2.764488
      pz      :     0.767291  p :     2.601622
      px      :     1.017133
      py      :     0.817197
      dz2     :     0.234108  d :     0.910412
      dxz     :     0.146864
      dyz     :     0.196535
      dx2y2   :     0.159064
      dxy     :     0.173842
      f0      :     0.033513  f :     0.176707
      f+1     :     0.028370
      f-1     :     0.041408
      f+2     :     0.019875
      f-2     :     0.013277
      f+3     :     0.022189
      f-3     :     0.018075

  5 C s       :     2.762892  s :     2.762892
      pz      :     0.747118  p :     2.600572
      px      :     1.009037
      py      :     0.844417
      dz2     :     0.239893  d :     0.912738
      dxz     :     0.140736
      dyz     :     0.220784
      dx2y2   :     0.124234
      dxy     :     0.187090
      f0      :     0.031731  f :     0.178141
      f+1     :     0.026811
      f-1     :     0.042288
      f+2     :     0.026068
      f-2     :     0.022319
      f+3     :     0.015143
      f-3     :     0.013781

  6 C s       :     2.761645  s :     2.761645
      pz      :     0.737047  p :     2.600420
      px      :     1.007316
      py      :     0.856058
      dz2     :     0.240981  d :     0.914671
      dxz     :     0.135799
      dyz     :     0.235762
      dx2y2   :     0.110007
      dxy     :     0.192122
      f0      :     0.032883  f :     0.178673
      f+1     :     0.024848
      f-1     :     0.038773
      f+2     :     0.031398
      f-2     :     0.028209
      f+3     :     0.011493
      f-3     :     0.011070

  7 C s       :     2.761272  s :     2.761272
      pz      :     0.742917  p :     2.600320
      px      :     1.007280
      py      :     0.850122
      dz2     :     0.240370  d :     0.916343
      dxz     :     0.138906
      dyz     :     0.230063
      dx2y2   :     0.115991
      dxy     :     0.191013
      f0      :     0.032243  f :     0.178893
      f+1     :     0.025643
      f-1     :     0.040823
      f+2     :     0.028902
      f-2     :     0.025823
      f+3     :     0.013218
      f-3     :     0.012241

  8 C s       :     2.764917  s :     2.764917
      pz      :     0.765836  p :     2.604297
      px      :     1.010175
      py      :     0.828286
      dz2     :     0.235527  d :     0.914986
      dxz     :     0.151121
      dyz     :     0.207676
      dx2y2   :     0.137502
      dxy     :     0.183159
      f0      :     0.032470  f :     0.179043
      f+1     :     0.028496
      f-1     :     0.043853
      f+2     :     0.021924
      f-2     :     0.016387
      f+3     :     0.019307
      f-3     :     0.016605

  9 C s       :     2.758843  s :     2.758843
      pz      :     0.797103  p :     2.510912
      px      :     0.907776
      py      :     0.806033
      dz2     :     0.270807  d :     1.137979
      dxz     :     0.196667
      dyz     :     0.226709
      dx2y2   :     0.225200
      dxy     :     0.218596
      f0      :     0.038764  f :     0.256486
      f+1     :     0.041799
      f-1     :     0.050643
      f+2     :     0.030340
      f-2     :     0.027280
      f+3     :     0.038431
      f-3     :     0.029229

 10 F s       :     3.604905  s :     3.604905
      pz      :     1.827188  p :     5.200106
      px      :     1.833772
      py      :     1.539146
      dz2     :     0.003983  d :     0.029383
      dxz     :     0.000362
      dyz     :     0.005213
      dx2y2   :     0.011508
      dxy     :     0.008317
      f0      :     0.000114  f :     0.001438
      f+1     :     0.000032
      f-1     :     0.000256
      f+2     :     0.000199
      f-2     :     0.000018
      f+3     :     0.000420
      f-3     :     0.000398

 11 F s       :     3.608669  s :     3.608669
      pz      :     1.540111  p :     5.205601
      px      :     1.841306
      py      :     1.824184
      dz2     :     0.014504  d :     0.029041
      dxz     :     0.007979
      dyz     :     0.005572
      dx2y2   :     0.000485
      dxy     :     0.000501
      f0      :     0.000581  f :     0.001414
      f+1     :     0.000407
      f-1     :     0.000330
      f+2     :     0.000053
      f-2     :     0.000038
      f+3     :     0.000002
      f-3     :     0.000002

 12 F s       :     3.593496  s :     3.593496
      pz      :     1.786652  p :     5.164957
      px      :     1.825275
      py      :     1.553031
      dz2     :     0.003874  d :     0.030587
      dxz     :     0.001031
      dyz     :     0.007939
      dx2y2   :     0.010392
      dxy     :     0.007351
      f0      :     0.000137  f :     0.001529
      f+1     :     0.000013
      f-1     :     0.000281
      f+2     :     0.000319
      f-2     :     0.000105
      f+3     :     0.000352
      f-3     :     0.000322

 13 F s       :     3.596411  s :     3.596411
      pz      :     1.525047  p :     5.169586
      px      :     1.826653
      py      :     1.817886
      dz2     :     0.016216  d :     0.030098
      dxz     :     0.008008
      dyz     :     0.005389
      dx2y2   :     0.000250
      dxy     :     0.000235
      f0      :     0.000690  f :     0.001497
      f+1     :     0.000444
      f-1     :     0.000335
      f+2     :     0.000007
      f-2     :     0.000016
      f+3     :     0.000002
      f-3     :     0.000002

 14 F s       :     3.592721  s :     3.592721
      pz      :     1.720963  p :     5.158985
      px      :     1.821370
      py      :     1.616652
      dz2     :     0.004061  d :     0.030946
      dxz     :     0.002891
      dyz     :     0.011646
      dx2y2   :     0.006700
      dxy     :     0.005648
      f0      :     0.000170  f :     0.001547
      f+1     :     0.000018
      f-1     :     0.000345
      f+2     :     0.000392
      f-2     :     0.000257
      f+3     :     0.000205
      f-3     :     0.000159

 15 F s       :     3.591943  s :     3.591943
      pz      :     1.553515  p :     5.157757
      px      :     1.823863
      py      :     1.780379
      dz2     :     0.013531  d :     0.031036
      dxz     :     0.007306
      dyz     :     0.008408
      dx2y2   :     0.000675
      dxy     :     0.001117
      f0      :     0.000541  f :     0.001555
      f+1     :     0.000333
      f-1     :     0.000470
      f+2     :     0.000066
      f-2     :     0.000132
      f+3     :     0.000008
      f-3     :     0.000004

 16 F s       :     3.591521  s :     3.591521
      pz      :     1.641826  p :     5.153830
      px      :     1.821904
      py      :     1.690100
      dz2     :     0.006843  d :     0.031182
      dxz     :     0.004890
      dyz     :     0.012626
      dx2y2   :     0.003311
      dxy     :     0.003511
      f0      :     0.000248  f :     0.001560
      f+1     :     0.000103
      f-1     :     0.000490
      f+2     :     0.000301
      f-2     :     0.000288
      f+3     :     0.000082
      f-3     :     0.000048

 17 F s       :     3.591355  s :     3.591355
      pz      :     1.613635  p :     5.152878
      px      :     1.820993
      py      :     1.718250
      dz2     :     0.008547  d :     0.031210
      dxz     :     0.005719
      dyz     :     0.011857
      dx2y2   :     0.002323
      dxy     :     0.002763
      f0      :     0.000309  f :     0.001563
      f+1     :     0.000162
      f-1     :     0.000518
      f+2     :     0.000233
      f-2     :     0.000265
      f+3     :     0.000049
      f-3     :     0.000027

 18 F s       :     3.591352  s :     3.591352
      pz      :     1.689640  p :     5.151203
      px      :     1.820946
      py      :     1.640617
      dz2     :     0.004788  d :     0.031256
      dxz     :     0.003574
      dyz     :     0.012700
      dx2y2   :     0.005382
      dxy     :     0.004811
      f0      :     0.000191  f :     0.001567
      f+1     :     0.000036
      f-1     :     0.000408
      f+2     :     0.000387
      f-2     :     0.000284
      f+3     :     0.000154
      f-3     :     0.000108

 19 F s       :     3.591694  s :     3.591694
      pz      :     1.573022  p :     5.151492
      px      :     1.819503
      py      :     1.758967
      dz2     :     0.011738  d :     0.031249
      dxz     :     0.006871
      dyz     :     0.009823
      dx2y2   :     0.001156
      dxy     :     0.001660
      f0      :     0.000447  f :     0.001565
      f+1     :     0.000273
      f-1     :     0.000506
      f+2     :     0.000122
      f-2     :     0.000191
      f+3     :     0.000017
      f-3     :     0.000009

 20 F s       :     3.592597  s :     3.592597
      pz      :     1.764709  p :     5.151312
      px      :     1.819231
      py      :     1.567372
      dz2     :     0.003739  d :     0.031140
      dxz     :     0.001526
      dyz     :     0.009529
      dx2y2   :     0.009373
      dxy     :     0.006973
      f0      :     0.000152  f :     0.001566
      f+1     :     0.000008
      f-1     :     0.000294
      f+2     :     0.000367
      f-2     :     0.000163
      f+3     :     0.000313
      f-3     :     0.000269

 21 F s       :     3.591682  s :     3.591682
      pz      :     1.524683  p :     5.150777
      px      :     1.821362
      py      :     1.804732
      dz2     :     0.016418  d :     0.031391
      dxz     :     0.008066
      dyz     :     0.006243
      dx2y2   :     0.000282
      dxy     :     0.000380
      f0      :     0.000702  f :     0.001591
      f+1     :     0.000442
      f-1     :     0.000385
      f+2     :     0.000012
      f-2     :     0.000046
      f+3     :     0.000002
      f-3     :     0.000002

 22 F s       :     3.594862  s :     3.594862
      pz      :     1.788949  p :     5.147501
      px      :     1.808549
      py      :     1.550002
      dz2     :     0.004215  d :     0.030831
      dxz     :     0.000584
      dyz     :     0.007924
      dx2y2   :     0.011621
      dxy     :     0.006487
      f0      :     0.000154  f :     0.001644
      f+1     :     0.000017
[...]
 11:     67.26   0.000096    0.49  0.000446  ( 0.002154 -0.020998  0.000123)
 12:     70.24   0.000091    0.46  0.000404  (-0.005990  0.018139 -0.006269)
 13:     75.54   0.000470    2.38  0.001943  (-0.016974  0.025737 -0.031508)
 14:    118.52   0.000894    4.52  0.002353  (-0.039910  0.006261 -0.026848)
 15:    133.69   0.000314    1.59  0.000732  ( 0.025062  0.003107 -0.009726)
 16:    163.35   0.000476    2.41  0.000910  (-0.023938  0.013287 -0.012667)
 17:    191.53   0.003060   15.47  0.004986  ( 0.001262 -0.000241 -0.070600)
 18:    203.17   0.000285    1.44  0.000437  ( 0.010738  0.007771  0.016171)
 19:    205.40   0.000061    0.31  0.000093  ( 0.008124 -0.002744  0.004372)
 20:    212.41   0.000593    2.99  0.000871  ( 0.000288  0.029403 -0.002454)
 21:    234.59   0.000049    0.25  0.000065  (-0.001576  0.002984  0.007333)
 22:    246.92   0.000015    0.08  0.000019  (-0.003966 -0.000535 -0.001857)
 23:    255.05   0.000151    0.76  0.000185  (-0.006280  0.002731  0.011760)
 24:    260.06   0.000006    0.03  0.000007  (-0.001600  0.000359  0.002003)
 25:    264.61   0.000224    1.13  0.000264  ( 0.006585 -0.001673  0.014755)
 26:    287.00   0.001290    6.52  0.001403  (-0.035418  0.011536  0.003908)
 27:    303.51   0.000048    0.24  0.000049  ( 0.002190 -0.000035 -0.006639)
 28:    312.49   0.000145    0.73  0.000145  (-0.006452  0.010091  0.001041)
 29:    334.10   0.000123    0.62  0.000115  ( 0.008493 -0.003067  0.005800)
 30:    345.61   0.000518    2.62  0.000468  (-0.013882  0.001243 -0.016535)
 31:    359.73   0.000155    0.78  0.000134  (-0.005683  0.000010 -0.010098)
 32:    363.40   0.000021    0.10  0.000018  ( 0.004016  0.000764 -0.001016)
 33:    369.11   0.000029    0.15  0.000025  (-0.004332  0.001889  0.001608)
 34:    370.41   0.000518    2.62  0.000436  (-0.020784  0.000247 -0.002049)
 35:    377.14   0.000084    0.42  0.000069  ( 0.008331 -0.000237  0.000005)
 36:    409.51   0.000162    0.82  0.000123  (-0.006242 -0.009090  0.001283)
 37:    460.02   0.000620    3.13  0.000421  ( 0.012687 -0.006025  0.014947)
 38:    502.96   0.006729   34.00  0.004175  ( 0.064378 -0.004730  0.002822)
 39:    524.35   0.007388   37.34  0.004397  ( 0.059266 -0.028433 -0.008730)
 40:    537.58   0.006459   32.64  0.003749  (-0.054281  0.017344 -0.022405)
 41:    554.37   0.010765   54.40  0.006060  ( 0.061330  0.047478 -0.006651)
 42:    555.68   0.005330   26.94  0.002994  (-0.052764  0.007301 -0.012498)
 43:    576.18   0.001246    6.30  0.000675  (-0.008141  0.007640  0.023460)
 44:    594.16   0.003340   16.88  0.001754  (-0.041344  0.002402 -0.006268)
 45:    611.44   0.000244    1.23  0.000125  ( 0.002890 -0.010463  0.002598)
 46:    641.95   0.027892  140.96  0.013559  (-0.115578 -0.007211 -0.012199)
 47:    658.94   0.023939  120.98  0.011337  ( 0.106058 -0.001543 -0.009283)
 48:    683.95   0.000096    0.49  0.000044  (-0.005518 -0.002913  0.002258)
 49:    718.99   0.000375    1.90  0.000163  (-0.008451  0.002790  0.009149)
 50:    727.15   0.003380   17.08  0.001451  ( 0.037770 -0.004650  0.001523)
 51:    768.84   0.000828    4.19  0.000336  ( 0.007008 -0.013432 -0.010331)
 52:    792.91   0.020523  103.71  0.008077  ( 0.064641  0.030457 -0.054507)
 53:    870.71   0.003687   18.63  0.001322  ( 0.036073 -0.001613 -0.004200)
 54:    998.06   0.009710   49.07  0.003036  (-0.050600  0.010825 -0.018932)
 55:   1084.36   0.051266  259.08  0.014754  ( 0.023122  0.089736  0.078526)
 56:   1089.83   0.017941   90.67  0.005137  (-0.029081 -0.019068  0.062674)
 57:   1112.13   0.032821  165.86  0.009210  ( 0.019308 -0.042605  0.083795)
 58:   1116.25   0.002894   14.62  0.000809  (-0.010635  0.021137 -0.015782)
 59:   1127.43   0.030263  152.93  0.008376  (-0.024043 -0.083422  0.028968)
 60:   1134.95   0.130647  660.24  0.035922  (-0.007237 -0.179766 -0.059618)
 61:   1146.98   0.042149  213.01  0.011468  (-0.015258  0.016326 -0.104730)
 62:   1147.19   0.030636  154.82  0.008334  ( 0.008690  0.057197  0.070617)
 63:   1155.06   0.124387  628.60  0.033606  (-0.003919  0.041569 -0.178500)
 64:   1160.76   0.074586  376.93  0.020052  ( 0.041916 -0.131193 -0.032916)
 65:   1169.75   0.068908  348.23  0.018383  (-0.024119 -0.017872  0.132219)
 66:   1183.73   0.049881  252.08  0.013150  ( 0.010591  0.056973 -0.098954)
 67:   1194.03   0.007287   36.83  0.001905  (-0.003701  0.014364  0.041043)
 68:   1217.36   0.009902   50.04  0.002538  (-0.037430  0.006318  0.033127)
 69:   1248.33   0.005308   26.82  0.001327  ( 0.021997 -0.021986 -0.018965)
 70:   1265.20   0.003286   16.60  0.000810  (-0.019890  0.016072  0.012509)
 71:   1288.13   0.006686   33.79  0.001620  ( 0.025102 -0.024220  0.020073)
 72:   1341.51   0.045915  232.03  0.010681  (-0.100552 -0.019798  0.013348)
 73:   1375.03   0.025510  128.92  0.005789  (-0.068818 -0.019222  0.026154)
 74:   1731.18   0.161997  818.66  0.029202  (-0.029180  0.154276  0.067447)

* The epsilon (eps) is given for a Dirac delta lineshape.
** The dipole moment derivative (T) already includes vibrational overlap.

The first frequency considered to be a vibration is 6
The total number of vibrations considered is 69


--------------------------
THERMOCHEMISTRY AT 298.15K
--------------------------

Temperature         ...   298.15 K
Pressure            ...     1.00 atm
Total Mass          ...   413.06 AMU
Quasi RRHO          ...     True
Cut-Off Frequency   ...     1.00 cm^-1

Throughout the following assumptions are being made:
  (1) The electronic state is orbitally nondegenerate
  (2) There are no thermally accessible electronically excited states
  (3) Hindered rotations indicated by low frequency modes are not
      treated as such but are treated as vibrations and this may
      cause some error
  (4) All equations used are the standard statistical mechanics
      equations for an ideal gas
  (5) All vibrations are strictly harmonic

freq.      26.83  E(vib)   ...       0.55 
freq.      32.56  E(vib)   ...       0.55 
freq.      39.90  E(vib)   ...       0.54 
freq.      47.70  E(vib)   ...       0.53 
freq.      55.21  E(vib)   ...       0.52 
freq.      67.26  E(vib)   ...       0.50 
freq.      70.24  E(vib)   ...       0.50 
freq.      75.54  E(vib)   ...       0.49 
freq.     118.52  E(vib)   ...       0.44 
freq.     133.69  E(vib)   ...       0.42 
freq.     163.35  E(vib)   ...       0.39 
freq.     191.53  E(vib)   ...       0.36 
freq.     203.17  E(vib)   ...       0.35 
freq.     205.40  E(vib)   ...       0.35 
freq.     212.41  E(vib)   ...       0.34 
freq.     234.59  E(vib)   ...       0.32 
freq.     246.92  E(vib)   ...       0.31 
freq.     255.05  E(vib)   ...       0.30 
freq.     260.06  E(vib)   ...       0.30 
freq.     264.61  E(vib)   ...       0.29 
freq.     287.00  E(vib)   ...       0.27 
freq.     303.51  E(vib)   ...       0.26 
freq.     312.49  E(vib)   ...       0.25 
freq.     334.10  E(vib)   ...       0.24 
freq.     345.61  E(vib)   ...       0.23 
freq.     359.73  E(vib)   ...       0.22 
freq.     363.40  E(vib)   ...       0.22 
freq.     369.11  E(vib)   ...       0.21 
freq.     370.41  E(vib)   ...       0.21 
freq.     377.14  E(vib)   ...       0.21 
freq.     409.51  E(vib)   ...       0.19 
freq.     460.02  E(vib)   ...       0.16 
freq.     502.96  E(vib)   ...       0.14 
freq.     524.35  E(vib)   ...       0.13 
freq.     537.58  E(vib)   ...       0.12 
freq.     554.37  E(vib)   ...       0.12 
freq.     555.68  E(vib)   ...       0.12 
freq.     576.18  E(vib)   ...       0.11 
freq.     594.16  E(vib)   ...       0.10 
freq.     611.44  E(vib)   ...       0.10 
freq.     641.95  E(vib)   ...       0.09 
freq.     658.94  E(vib)   ...       0.08 
freq.     683.95  E(vib)   ...       0.07 
freq.     718.99  E(vib)   ...       0.07 
freq.     727.15  E(vib)   ...       0.06 
freq.     768.84  E(vib)   ...       0.06 
freq.     792.91  E(vib)   ...       0.05 
freq.     870.71  E(vib)   ...       0.04 
freq.     998.06  E(vib)   ...       0.02 
freq.    1084.36  E(vib)   ...       0.02 
freq.    1089.83  E(vib)   ...       0.02 
freq.    1112.13  E(vib)   ...       0.01 
freq.    1116.25  E(vib)   ...       0.01 
freq.    1127.43  E(vib)   ...       0.01 
freq.    1134.95  E(vib)   ...       0.01 
freq.    1146.98  E(vib)   ...       0.01 
freq.    1147.19  E(vib)   ...       0.01 
freq.    1155.06  E(vib)   ...       0.01 
freq.    1160.76  E(vib)   ...       0.01 
freq.    1169.75  E(vib)   ...       0.01 
freq.    1183.73  E(vib)   ...       0.01 
freq.    1194.03  E(vib)   ...       0.01 
freq.    1217.36  E(vib)   ...       0.01 
freq.    1248.33  E(vib)   ...       0.01 
freq.    1265.20  E(vib)   ...       0.01 
freq.    1288.13  E(vib)   ...       0.01 
freq.    1341.51  E(vib)   ...       0.01 
freq.    1375.03  E(vib)   ...       0.01 
freq.    1731.18  E(vib)   ...       0.00 

------------
INNER ENERGY
------------

The inner energy is: U= E(el) + E(ZPE) + E(vib) + E(rot) + E(trans)
    E(el)   - is the total energy from the electronic structure calculation
              = E(kin-el) + E(nuc-el) + E(el-el) + E(nuc-nuc)
    E(ZPE)  - the the zero temperature vibrational energy from the frequency calculation
    E(vib)  - the the finite temperature correction to E(ZPE) due to population
              of excited vibrational states
    E(rot)  - is the rotational thermal energy
    E(trans)- is the translational thermal energy

Summary of contributions to the inner energy U:
Electronic energy                ...  -1953.19383013 Eh
Zero point energy                ...      0.09751467 Eh      61.19 kcal/mol
Thermal vibrational correction   ...      0.02025680 Eh      12.71 kcal/mol
Thermal rotational correction    ...      0.00141627 Eh       0.89 kcal/mol
Thermal translational correction ...      0.00141627 Eh       0.89 kcal/mol
-----------------------------------------------------------------------
Total thermal energy                  -1953.07322612 Eh


Summary of corrections to the electronic energy:
(perhaps to be used in another calculation)
Total thermal correction                  0.02308934 Eh      14.49 kcal/mol
Non-thermal (ZPE) correction              0.09751467 Eh      61.19 kcal/mol
-----------------------------------------------------------------------
Total correction                          0.12060401 Eh      75.68 kcal/mol


--------
ENTHALPY
--------

The enthalpy is H = U + kB*T
                kB is Boltzmann's constant
Total thermal energy              ...  -1953.07322612 Eh 
Thermal Enthalpy correction       ...      0.00094421 Eh       0.59 kcal/mol
-----------------------------------------------------------------------
Total Enthalpy                    ...  -1953.07228191 Eh


Note: Only C1 symmetry has been detected, increase convergence thresholds 
      if your molecule has a higher symmetry. Symmetry factor of 1.0 is   
      used for the rotational entropy correction. 
 

Note: Rotational entropy computed according to Herzberg 
Infrared and Raman Spectra, Chapter V,1, Van Nostrand Reinhold, 1945 
Point Group:  C1, Symmetry Number:   1  
Rotational constants in cm-1:     0.021283     0.003719     0.003666 

Vibrational entropy computed according to the QRRHO of S. Grimme
Chem.Eur.J. 2012 18 9955 using a reference frequency of 100.0 cm-1


-------
ENTROPY
-------

The entropy contributions are T*S = T*(S(el)+S(vib)+S(rot)+S(trans))
     S(el)   - electronic entropy
     S(vib)  - vibrational entropy
     S(rot)  - rotational entropy
     S(trans)- translational entropy
The entropies will be listed as multiplied by the temperature to get
units of energy

Electronic entropy                ...      0.00000000 Eh      0.00 kcal/mol
Vibrational entropy               ...      0.03609342 Eh     22.65 kcal/mol
Rotational entropy                ...      0.01661708 Eh     10.43 kcal/mol
Translational entropy             ...      0.02088010 Eh     13.10 kcal/mol
-----------------------------------------------------------------------
Final entropy term                ...      0.07359060 Eh     46.18 kcal/mol

In case the symmetry of your molecule has not been determined correctly
or in case you have a reason to use a different symmetry number we print 
out the resulting rotational entropy values for sn=1,12:

 non-linear molecules -----------------------------------
|  sn= 1 | S(rot)=       0.01661708 Eh     10.43 kcal/mol|
|  sn= 2 | S(rot)=       0.01596263 Eh     10.02 kcal/mol|
|  sn= 3 | S(rot)=       0.01557979 Eh      9.78 kcal/mol|
|  sn= 4 | S(rot)=       0.01530817 Eh      9.61 kcal/mol|
|  sn= 5 | S(rot)=       0.01509748 Eh      9.47 kcal/mol|
|  sn= 6 | S(rot)=       0.01492534 Eh      9.37 kcal/mol|
|  sn= 7 | S(rot)=       0.01477979 Eh      9.27 kcal/mol|
|  sn= 8 | S(rot)=       0.01465371 Eh      9.20 kcal/mol|
|  sn= 9 | S(rot)=       0.01454250 Eh      9.13 kcal/mol|
|  sn=10 | S(rot)=       0.01444303 Eh      9.06 kcal/mol|
|  sn=11 | S(rot)=       0.01435304 Eh      9.01 kcal/mol|
|  sn=12 | S(rot)=       0.01427088 Eh      8.96 kcal/mol|
 linear molecules ---------------------------------------
|  Dinfh | S(rot)=       0.01062146 Eh      6.67 kcal/mol|
|  Cinfv | S(rot)=       0.01127591 Eh      7.08 kcal/mol|
 --------------------------------------------------------


-------------------
GIBBS FREE ENERGY
-------------------

The Gibbs free energy is G = H - T*S

Total enthalpy                    ...  -1953.07228191 Eh 
Total entropy correction          ...     -0.07359060 Eh    -46.18 kcal/mol
-----------------------------------------------------------------------
Final Gibbs free energy         ...  -1953.14587252 Eh

For completeness - the Gibbs free energy minus the electronic energy
G-E(el)                           ...      0.04795761 Eh     30.09 kcal/mol


Maximum memory used throughout the entire PROP-calculation: 325.0 MB

--------------------------------
SUGGESTED CITATIONS FOR THIS RUN
--------------------------------

Below you find a list of papers that are relevant to this ORCA run
We neither can nor want to force you to cite these papers, but we appreciate if you do
You receive ORCA, which is the product of decades of hard work by many enthusiastic individuals, for free
The only thing we kindly ask in return is that you cite our papers,
We deeply appreciate it, if you show your appreciation for ORCA by not just citing the generic ORCA reference.

Please note that relegating all ORCA citations to the supporting information does *not* help us.
SI sections are not indexed - citations you put there will not count into any citation statistics
But we need these citations in order to attract the funding resources that allow us to do what we are doing

Therefore, if you are a happy ORCA user, please consider citing a few of the papers listed below in the main body of your paper

In addition to the list printed below, the program has created the file rf_mecn_freq_B3L_D_B.bibtex that contains the list in bibtex format
You can import this file easily into all common literature databanks and citation aid programs


List of essential papers. We consider these as the minimum necessary citations

  1. Neese,F.
     Software update: the ORCA program system, version 5.0
     WIRES Comput. Molec. Sci., 2022 12(1)e1606
     doi.org/10.1002/wcms.1606

List of papers to cite with high priority. The work reported in these papers was absolutely
necessary for this run to complete.
Our perspective: the developers of density functionals and basis sets usually get cited in chemistry papers
Good! But without the algorithms to do something with them, the functionals or basis sets would not do anything.
Hence, in our opinion, the algorithm design and method developments papers are equally worthy of getting cited

  1. Neese,F.
     An improvement of the resolution of the identity approximation for the formation of the Coulomb matrix
     J. Comp. Chem., 2003 24(14)1740-1747
     doi.org/10.1002/jcc.10318
  2. Neese,F.; Wennmohs,F.; Hansen,A.; Becker,U.
     Efficient, approximate and parallel Hartree-Fock and hybrid DFT calculations. A 'chain-of-spheres' algorithm for the Hartree-Fock exchange
     Chem. Phys., 2009 356(1-3)98-109
     doi.org/10.1016/j.chemphys.2008.10.036
  3. Bykov,D.; Petrenko,T.; Izsak,R.; Kossmann,S.; Becker,U.; Valeev,E.; Neese,F.
     Efficient implementation of the analytic second derivatives of Hartree-Fock and hybrid DFT energies: a detailed analysis of different approximations
     Molec. Phys., 2015 113 1961-1977
     doi.org/10.1080/00268976.2015.1025114
  4. Garcia-Rates,M.; Neese,F.
     Efficient implementation of the analytical second derivatives of hartree-fock and hybrid DFT energies within the framework of the conductor-like polarizable continuum model
     J. Comput. Chem., 2019 40 1816-1828
     doi.org/10.1002/jcc.25833
  5. Garcia-Rates,M.; Neese,F.
     Effect of the Solute Cavity on the Solvation Energy and its Derivatives within the Framework of the Gaussian Charge Scheme
     J. Comput. Chem., 2020 41 922-939
     doi.org/10.1002/jcc.26139
  6. Helmich-Paris,B.; de Souza,B.; Neese,F.; Izsák,R.
     An improved chain of spheres for exchange algorithm
     J. Chem. Phys., 2021 155 104109
     doi.org/doi: 10.1063/5.0058766.
  7. Neese,F.
     The SHARK Integral Generation and Digestion System
     J. Comp. Chem., 2022  1-16
     doi.org/10.1002/jcc.26942
  8. Grimme,S.; Antony,J.; Ehrlich,S.; Krieg,H.
     A consistent and accurate ab initio parametrization of density functional dispersion correction (DFT-D) for the 94 elements H-Pu
     J. Chem. Phys., 2010 132 154104
     doi.org/10.1063/1.3382344
  9. Grimme,S.; Ehrlich,S.; Goerigk,L.
     Effect of the damping function in dispersion corrected density functional theory
     J. Comput. Chem., 2011 32(7)1456-1465
     doi.org/10.1002/jcc.21759

List of suggested additional citations. These are papers that are important in the 'surrounding' of 
of this run, or papers that preceded the highly important papers. If you like your results we are grateful for a citation.

  1. Izsak,R.; Neese,F.
     An overlap fitted chain of spheres exchange method
     J. Chem. Phys., 2011 135 144105
     doi.org/10.1063/1.3646921
  2. Izsak,R.; Hansen,A.; Neese,F.
     The resolution of identity and chain of spheres approximations for the LPNO-CCSD singles Fock term
     Molec. Phys., 2012 110 2413-2417
     doi.org/10.1080/00268976.2012.687466
  3. Neese,F.
     The ORCA program system
     WIRES Comput. Molec. Sci., 2012 2(1)73-78
     doi.org/10.1002/wcms.81
  4. Izsak,R.; Neese,F.; Klopper,W.
     Robust fitting techniques in the chain of spheres approximation to the Fock exchange: The role of the complementary space
     J. Chem. Phys., 2013 139 
     doi.org/10.1063/1.4819264
  5. Neese,F.
     Software update: the ORCA program system, version 4.0
     WIRES Comput. Molec. Sci., 2018 8(1)1-6
     doi.org/10.1002/wcms.1327
  6. Neese,F.; Wennmohs,F.; Becker,U.; Riplinger,C.
     The ORCA quantum chemistry program package
     J. Chem. Phys., 2020 152 Art. No. L224108
     doi.org/10.1063/5.0004608

List of optional additional citations

  1. Neese,F.
     Approximate second-order SCF convergence for spin unrestricted wavefunctions
     Chem. Phys. Lett., 2000 325(1-3)93-98
     doi.org/10.1016/s0009-2614(00)00662-x

Timings for individual modules:

Sum of individual times          ...      864.554 sec (=  14.409 min)
Startup calculation              ...        4.236 sec (=   0.071 min)   0.5 %
SCF iterations                   ...       88.255 sec (=   1.471 min)  10.2 %
Property integrals               ...      178.606 sec (=   2.977 min)  20.7 %
SCF Response                     ...      331.869 sec (=   5.531 min)  38.4 %
Property calculations            ...      261.590 sec (=   4.360 min)  30.3 %
                             ****ORCA TERMINATED NORMALLY****
TOTAL RUN TIME: 0 days 0 hours 14 minutes 25 seconds 473 msec
