
                                 *****************
                                 * O   R   C   A *
                                 *****************

                                            #,                                       
                                            ###                                      
                                            ####                                     
                                            #####                                    
                                            ######                                   
                                           ########,                                 
                                     ,,################,,,,,                         
                               ,,#################################,,                 
                          ,,##########################################,,             
                       ,#########################################, ''#####,          
                    ,#############################################,,   '####,        
                  ,##################################################,,,,####,       
                ,###########''''           ''''###############################       
              ,#####''   ,,,,##########,,,,          '''####'''          '####       
            ,##' ,,,,###########################,,,                        '##       
           ' ,,###''''                  '''############,,,                           
         ,,##''                                '''############,,,,        ,,,,,,###''
      ,#''                                            '''#######################'''  
     '                                                          ''''####''''         
             ,#######,   #######,   ,#######,      ##                                
            ,#'     '#,  ##    ##  ,#'     '#,    #''#        ,####,   ,####,        
            ##       ##  ##   ,#'  ##            #'  '#       #'       #'  '#        
            ##       ##  #######   ##           ,######,      #####,   #    #        
            '#,     ,#'  ##    ##  '#,     ,#' ,#      #,     #,   #   #,  ,#        
             '#######'   ##     ##  '#######'  #'      '#     '####' # '####'        



                #########################################################
                #                        -***-                          #
                #          Department of theory and spectroscopy        #
                #                                                       #
                #                      Frank Neese                      #
                #                                                       #
                #     Directorship, Architecture, Infrastructure        #
                #                    SHARK, DRIVERS                     #
                #        Core code/Algorithms in most modules           #
                #                                                       #
                #        Max Planck Institute fuer Kohlenforschung      #
                #                Kaiser Wilhelm Platz 1                 #
                #                 D-45470 Muelheim/Ruhr                 #
                #                      Germany                          #
                #                                                       #
                #                  All rights reserved                  #
                #                        -***-                          #
                #########################################################


                         Program Version 6.0.1  -  RELEASE   -


 With contributions from (in alphabetic order):
[Max-Planck-Institut fuer Kohlenforschung]                               
  Daniel Aravena         : Magnetic Suceptibility                        
  Michael Atanasov       : Ab Initio Ligand Field Theory (pilot matlab implementation)
  Alexander A. Auer      : GIAO ZORA, VPT2 properties, NMR spectrum      
  Ute Becker             : All parallelization in ORCA, NUMFREQ, NUMCALC 
  Giovanni Bistoni       : ED, misc. LED, open-shell LED, HFLD           
  Martin Brehm           : Molecular dynamics                            
  Dmytro Bykov           : pre 5.0 version of the SCF Hessian            
  Marcos Casanova-Páez   : Triplet and SCS-CIS(D). UHF-(DLPNO)-IP/EA/STEOM-CCSD. UHF-CVS-IP/STEOM-CCSD   
  Vijay G. Chilkuri      : MRCI spin determinant printing, contributions to CSF-ICE 
  Pauline Colinet        : FMM embedding                                 
  Dipayan Datta          : RHF DLPNO-CCSD density                        
  Achintya Kumar Dutta   : EOM-CC, STEOM-CC                              
  Nicolas Foglia         : Exact transition moments, OPA infrastructure, MCD improvements    
  Dmitry Ganyushin       : Spin-Orbit,Spin-Spin,Magnetic field MRCI      
  Miquel Garcia-Rates    : C-PCM and meta-GGA Hessian, CCSD/C-PCM, Gaussian charge scheme 
  Tiago L. C. Gouveia    : GS-ROHF, GS-ROCIS                             
  Yang Guo               : DLPNO-NEVPT2, F12-NEVPT2, CIM, IAO-localization        
  Andreas Hansen         : Spin unrestricted coupled pair/coupled cluster methods 
  Ingolf Harden          : AUTO-CI MPn and infrastructure                
  Benjamin Helmich-Paris : MC-RPA, TRAH-(SCF,CASSCF), AVAS, COSX integrals, SCF dyn. polar. 
  Lee Huntington         : MR-EOM, pCC                                   
  Robert Izsak           : Overlap fitted RIJCOSX, COSX-SCS-MP3, EOM     
  Riya Kayal             : Wick's Theorem for AUTO-CI, AUTO-CI UHF-CCSDT 
  Emily Kempfer          : AUTO-CI, RHF CISDT and CCSDT                  
  Christian Kollmar      : KDIIS, OOCD, Brueckner-CCSD(T), CCSD density, CASPT2, CASPT2-K, improved NEVPT2 
  Axel Koslowski         : Symmetry handling                             
  Simone Kossmann        : meta-GGA functionals, TD-DFT gradient, OOMP2, (MP2 Hessian; deprecated post 5.0) 
  Lucas Lang             : DCDCAS                                        
  Marvin Lechner         : AUTO-CI (C++ implementation), FIC-MRCC        
  Spencer Leger          : CASSCF response                               
  Dagmar Lenk            : GEPOL surface, SMD, ORCA-2-JSON               
  Dimitrios Liakos       : Extrapolation schemes; Compound Job, initial MDCI parallelization 
  Dimitrios Manganas     : Further ROCIS development; embedding schemes. LFT, Crystal Embedding 
  Dimitrios Pantazis     : SARC Basis sets                               
  Anastasios Papadopoulos: AUTO-CI, single reference methods and gradients 
  Taras Petrenko         : pre 6.0 DFT Hessian and TD-DFT gradient, (ASA, deprecated), ECA, 1-Electron XAS/XES, NRVS 
  Peter Pinski           : DLPNO-MP2, DLPNO-MP2 Gradient                 
  Christoph Reimann      : Effective Core Potentials                     
  Marius Retegan         : Local ZFS, SOC                                
  Christoph Riplinger    : Optimizer, TS searches, QM/MM, DLPNO-CCSD(T), (RO)-DLPNO pert. Triples 
  Michael Roemelt        : Original ROCIS implementation                 
  Masaaki Saitow         : Open-shell DLPNO-CCSD energy and density      
  Barbara Sandhoefer     : DKH picture change effects                    
  Kantharuban Sivalingam : CASSCF convergence/infrastructure, NEVPT2 and variants, FIC-MRCI 
  Bernardo de Souza      : ESD, SOC TD-DFT                               
  Georgi L. Stoychev     : AutoAux, RI-MP2 NMR, DLPNO-MP2 response, X2C  
  Van Anh Tran           : RI-MP2 g-tensors                              
  Willem Van den Heuvel  : Paramagnetic NMR                              
  Zikuan Wang            : NOTCH, Electric field optimization            
  Frank Wennmohs         : Technical directorship and infrastructure     
  Hang Xu                : AUTO-CI-Response properties                   
                                                                         
[FACCTs GmbH]                                                            
  Markus Bursch, Miquel Garcia-Rates, Christoph Riplinger, Bernardo de Souza, Georgi L. Stoychev 
                                                                 
  APM, Basis sets (HGBS, AHGBS, def-TZVP (Ac-Lr), def2-XVPD (La-Lu)), CI-OPT, improved COSX, DLPNO-Multilevel,           
  DOCKER, DRACO, updates on ESD, GOAT, IRC, LR-CPCM, MBIS, meta-GGA TD-DFT gradient, ML-optimized integration grids, 
  MM, NACMEs, nearIR, NEB, NEB-TS, NL-DFT gradient (VV10), 2- and 3-layer-ONIOM, interface openCOSMO-RS, QMMM,   
  Crystal-QMMM, SF, symmetry and pop. for TD-DFT, r2SCAN hybrids, SOLVATOR                                   
                                                                         
[Other institutions]                                                     
  V. Asgeirsson          : NEB                                           
  Christoph Bannwarth    : sTDA-DFT, sTD-DFT, PBEh-3c, B97-3c, D3        
  Sebastian Ehlert       : rSCAN, r2SCAN, r2SCAN-3c, D4, dhf basis sets  
  Marvin Friede          : D4 for Fr, Ra, Ac-Lr                          
  Lars Goerigk           : TD-DFT with DH, B97 family of functionals     
  Stefan Grimme          : VdW corrections, initial TS optimization, DFT functionals, gCP, sTDA/sTD-DF 
  Waldemar Hujo          : DFT-NL                                        
  H. Jonsson             : NEB                                           
  Holger Kruse           : gCP                                           
  Marcel Mueller         : wB97X-3c, vDZP basis set                      
  Hagen Neugebauer       : wr2SCAN                                       
  Tobias Risthaus        : range-separated hybrid DFT                    
  Lukas Wittmann         : regularized MP2, r2SCAN double-hybrids, wr2SCAN        
                                                                         
We gratefully acknowledge several colleagues who have allowed us to      
interface, adapt or use parts of their codes:                            
  Ed Valeev, F. Pavosevic, A. Kumar             : LibInt (2-el integral package), F12 methods 
  Garnet Chan, S. Sharma, J. Yang, R. Olivares  : DMRG                   
  Ulf Ekstrom                                   : XCFun DFT Library      
  Mihaly Kallay                                 : mrcc  (arbitrary order and MRCC methods)
  Frank Weinhold                                : gennbo (NPA and NBO analysis)           
  Simon Mueller                                 : openCOSMO-RS                            
  Christopher J. Cramer and Donald G. Truhlar   : smd solvation model                     
  S Lehtola, MJT Oliveira, MAL Marques          : LibXC Library                           
  Liviu Ungur et al                             : ANISO software                          


 Your calculation uses the libint2 library for the computation of 2-el integrals
 For citations please refer to: http://libint.valeyev.net

 Your ORCA version has been built with support for libXC version: 6.2.2
 For citations please refer to: https://libxc.gitlab.io

 This ORCA versions uses:
   CBLAS   interface :  Fast vector & matrix operations
   LAPACKE interface :  Fast linear algebra routines
   SCALAPACK package :  Parallel linear algebra routines
   Shared memory     :  Shared parallel matrices
   BLAS/LAPACK       :  OpenBLAS 0.3.27  USE64BITINT DYNAMIC_ARCH NO_AFFINITY SkylakeX SINGLE_THREADED
        Core in use  :  SkylakeX
   Copyright (c) 2011-2014, The OpenBLAS Project


NOTE: MaxCore=8000 MB was set to SCF,MP2,MDCI,CIPSI,MRCI and CIS
      => If you want to overwrite this, your respective input block should be placed after the MaxCore statement
Your calculation utilizes the atom-pairwise dispersion correction
with the Becke-Johnson damping scheme (D3BJ)


Your calculation utilizes the SMD solvation module
Please cite in your paper:
A.V. Marenich, C.J. Cramer, D.G. Truhlar J. Phys. Chem. B, 113, (2009), 6378 

Warning: RI is on but no J-basis has been assigned. Assigning Def2/J (nothing to worry about!)
================================================================================

----- Orbital basis set information -----
Your calculation utilizes the basis: def2-TZVP
   F. Weigend and R. Ahlrichs, Phys. Chem. Chem. Phys. 7, 3297 (2005).

----- AuxJ basis set information -----
Your calculation utilizes the auxiliary basis: def2/J
   F. Weigend, Phys. Chem. Chem. Phys. 8, 1057 (2006).

================================================================================
                                        WARNINGS
                       Please study these warnings very carefully!
================================================================================



WARNING: SCAN, rSCAN, or r2SCAN functional requested.
  ===> : libXC variant has now been activated.



WARNING: your system is open-shell and RHF/RKS was chosen
  ===> : WILL SWITCH to UHF/UKS


================================================================================
                                       INPUT FILE
================================================================================
NAME = rf_mecn_freq_r2s_C6_P_B.inp
|  1> !r2scanh def2-TZVP freq d3 TightSCF SlowConv defgrid2
|  2>  
|  3> %pal
|  4> nprocs 20
|  5> end
|  6>  
|  7> %scf
|  8> MaxIter 1500
|  9> end
| 10>  
| 11> %maxcore 8000
| 12>  
| 13> !CPCM
| 14> %cpcm smd true
| 15> SMDsolvent "ACETONITRILE"
| 16> end
| 17>  
| 18> * xyz 0 2
| 19> 6        4.636299000     -0.313458000      0.075709000
| 20> 8        5.027443000     -1.232081000     -0.785503000
| 21> 8        5.257718000      0.629238000      0.467919000
| 22> 6        3.187507000     -0.573006000      0.547267000
| 23> 6        2.178704000      0.241611000     -0.307429000
| 24> 6        0.698689000     -0.204250000     -0.127512000
| 25> 6       -0.349256000      0.856773000     -0.575380000
| 26> 6       -1.731527000      0.297783000     -0.684271000
| 27> 6       -2.826244000      0.516795000      0.301655000
| 28> 6       -3.995320000     -0.489383000      0.157184000
| 29> 9        2.870037000     -1.877516000      0.458808000
| 30> 9        3.082210000     -0.188590000      1.827406000
| 31> 9        2.304000000      1.537453000      0.017602000
| 32> 9        2.511703000      0.091542000     -1.601572000
| 33> 9        0.498364000     -1.312432000     -0.860422000
| 34> 9        0.467618000     -0.493145000      1.162549000
| 35> 9       -0.351777000      1.864897000      0.315147000
| 36> 9        0.039047000      1.328251000     -1.780373000
| 37> 9       -2.020682000     -0.329650000     -1.803818000
| 38> 9       -3.359614000      1.760553000      0.193639000
| 39> 9       -2.340758000      0.402929000      1.555714000
| 40> 9       -3.538607000     -1.735564000      0.222330000
| 41> 9       -4.858695000     -0.296368000      1.146446000
| 42> 9       -4.626179000     -0.317404000     -0.998103000
| 43> 1        5.935640000     -1.028007000     -1.076694000
| 44> *
| 45> 
| 46>                          ****END OF INPUT****
================================================================================

                       ****************************
                       * Single Point Calculation *
                       ****************************

---------------------------------
CARTESIAN COORDINATES (ANGSTROEM)
---------------------------------
  C      4.636299   -0.313458    0.075709
  O      5.027443   -1.232081   -0.785503
  O      5.257718    0.629238    0.467919
  C      3.187507   -0.573006    0.547267
  C      2.178704    0.241611   -0.307429
  C      0.698689   -0.204250   -0.127512
  C     -0.349256    0.856773   -0.575380
  C     -1.731527    0.297783   -0.684271
  C     -2.826244    0.516795    0.301655
  C     -3.995320   -0.489383    0.157184
  F      2.870037   -1.877516    0.458808
  F      3.082210   -0.188590    1.827406
  F      2.304000    1.537453    0.017602
  F      2.511703    0.091542   -1.601572
  F      0.498364   -1.312432   -0.860422
  F      0.467618   -0.493145    1.162549
  F     -0.351777    1.864897    0.315147
  F      0.039047    1.328251   -1.780373
  F     -2.020682   -0.329650   -1.803818
  F     -3.359614    1.760553    0.193639
  F     -2.340758    0.402929    1.555714
  F     -3.538607   -1.735564    0.222330
  F     -4.858695   -0.296368    1.146446
  F     -4.626179   -0.317404   -0.998103
  H      5.935640   -1.028007   -1.076694

----------------------------
CARTESIAN COORDINATES (A.U.)
----------------------------
  NO LB      ZA    FRAG     MASS         X           Y           Z
   0 C     6.0000    0    12.011    8.761335   -0.592350    0.143069
   1 O     8.0000    0    15.999    9.500490   -2.328296   -1.484386
   2 O     8.0000    0    15.999    9.935647    1.189087    0.884239
   3 C     6.0000    0    12.011    6.023515   -1.082824    1.034185
   4 C     6.0000    0    12.011    4.117154    0.456579   -0.580957
   5 C     6.0000    0    12.011    1.320331   -0.385977   -0.240963
   6 C     6.0000    0    12.011   -0.659998    1.619066   -1.087311
   7 C     6.0000    0    12.011   -3.272112    0.562728   -1.293085
   8 C     6.0000    0    12.011   -5.340827    0.976601    0.570045
   9 C     6.0000    0    12.011   -7.550061   -0.924800    0.297035
  10 F     9.0000    0    18.998    5.423584   -3.547991    0.867021
  11 F     9.0000    0    18.998    5.824533   -0.356383    3.453297
  12 F     9.0000    0    18.998    4.353929    2.905365    0.033263
  13 F     9.0000    0    18.998    4.746431    0.172989   -3.026532
  14 F     9.0000    0    18.998    0.941771   -2.480137   -1.625962
  15 F     9.0000    0    18.998    0.883670   -0.931909    2.196899
  16 F     9.0000    0    18.998   -0.664762    3.524145    0.595542
  17 F     9.0000    0    18.998    0.073788    2.510031   -3.364417
  18 F     9.0000    0    18.998   -3.818536   -0.622948   -3.408722
  19 F     9.0000    0    18.998   -6.348750    3.326963    0.365925
  20 F     9.0000    0    18.998   -4.423392    0.761425    2.939873
  21 F     9.0000    0    18.998   -6.686998   -3.279741    0.420143
  22 F     9.0000    0    18.998   -9.181603   -0.560054    2.166469
  23 F     9.0000    0    18.998   -8.742211   -0.599807   -1.886141
  24 H     1.0000    0     1.008   11.216734   -1.942652   -2.034657

--------------------------------
INTERNAL COORDINATES (ANGSTROEM)
--------------------------------
 C      0   0   0     0.000000000000     0.00000000     0.00000000
 O      1   0   0     1.318540084263     0.00000000     0.00000000
 O      1   2   0     1.195268173289   127.55869593     0.00000000
 C      1   2   3     1.545551801439   111.12240865   178.96799764
 C      4   1   2     1.552993754628   110.66563155   265.30062480
 C      5   4   1     1.556151200377   113.82120155   166.52537585
 C      6   5   4     1.557094818878   114.30509388   160.65861676
 C      7   6   5     1.494991701456   112.85703564   166.97480246
 C      8   7   6     1.489436686707   125.19598017   103.87479342
 C      9   8   7     1.549194865503   113.41662900   196.68317182
 F      4   1   2     1.345495646846   111.34212901    26.20107951
 F      4   1   2     1.340753138570   108.46848592   145.88603351
 F      5   4   1     1.341846014840   108.21578118   288.77960916
 F      5   4   1     1.344698904295   108.07492730    46.12186621
 F      6   5   4     1.343634816030   108.36321043   280.80863367
 F      6   5   4     1.342054958557   109.66783517    39.36079674
 F      7   6   5     1.345124043554   108.75565410   288.14501290
 F      7   6   5     1.350954793597   107.51292387    46.31105524
 F      8   7   6     1.315548656920   116.33005047   277.27430912
 F      9   8   7     1.357602657525   111.76527851    75.71772068
 F      9   8   7     1.349565151311   109.77295618   317.14400408
 F     10   9   8     1.328833266609   110.19103327    54.89975260
 F     10   9   8     1.327143732040   109.08414878   174.36453296
 F     10   9   8     1.327496857507   110.83250035   294.01750533
 H      2   1   3     0.975325682409   108.99355962   359.80076031

---------------------------
INTERNAL COORDINATES (A.U.)
---------------------------
 C      0   0   0     0.000000000000     0.00000000     0.00000000
 O      1   0   0     2.491679655855     0.00000000     0.00000000
 O      1   2   0     2.258729504108   127.55869593     0.00000000
 C      1   2   3     2.920669630509   111.12240865   178.96799764
 C      4   1   2     2.934732883937   110.66563155   265.30062480
 C      5   4   1     2.940699591685   113.82120155   166.52537585
 C      6   5   4     2.942482772228   114.30509388   160.65861676
 C      7   6   5     2.825124888237   112.85703564   166.97480246
 C      8   7   6     2.814627431691   125.19598017   103.87479342
 C      9   8   7     2.927554023878   113.41662900   196.68317182
 F      4   1   2     2.542618286922   111.34212901    26.20107951
 F      4   1   2     2.533656245093   108.46848592   145.88603351
 F      5   4   1     2.535721481941   108.21578118   288.77960916
 F      5   4   1     2.541112661701   108.07492730    46.12186621
 F      6   5   4     2.539101826299   108.36321043   280.80863367
 F      6   5   4     2.536116328343   109.66783517    39.36079674
 F      7   6   5     2.541916058469   108.75565410   288.14501290
 F      7   6   5     2.552934579206   107.51292387    46.31105524
 F      8   7   6     2.486026677426   116.33005047   277.27430912
 F      9   8   7     2.565497221407   111.76527851    75.71772068
 F      9   8   7     2.550308535862   109.77295618   317.14400408
 F     10   9   8     2.511130951534   110.19103327    54.89975260
 F     10   9   8     2.507938193906   109.08414878   174.36453296
 F     10   9   8     2.508605504329   110.83250035   294.01750533
 H      2   1   3     1.843098431132   108.99355962   359.80076031

---------------------
BASIS SET INFORMATION
---------------------
There are 4 groups of distinct atoms

 Group   1 Type C   : 11s6p2d1f contracted to 5s3p2d1f pattern {62111/411/11/1}
 Group   2 Type O   : 11s6p2d1f contracted to 5s3p2d1f pattern {62111/411/11/1}
 Group   3 Type F   : 11s6p2d1f contracted to 5s3p2d1f pattern {62111/411/11/1}
 Group   4 Type H   : 5s1p contracted to 3s1p pattern {311/1}

Atom   0C    basis set group =>   1
Atom   1O    basis set group =>   2
Atom   2O    basis set group =>   2
Atom   3C    basis set group =>   1
Atom   4C    basis set group =>   1
Atom   5C    basis set group =>   1
Atom   6C    basis set group =>   1
Atom   7C    basis set group =>   1
Atom   8C    basis set group =>   1
Atom   9C    basis set group =>   1
Atom  10F    basis set group =>   3
Atom  11F    basis set group =>   3
Atom  12F    basis set group =>   3
Atom  13F    basis set group =>   3
Atom  14F    basis set group =>   3
Atom  15F    basis set group =>   3
Atom  16F    basis set group =>   3
Atom  17F    basis set group =>   3
Atom  18F    basis set group =>   3
Atom  19F    basis set group =>   3
Atom  20F    basis set group =>   3
Atom  21F    basis set group =>   3
Atom  22F    basis set group =>   3
Atom  23F    basis set group =>   3
Atom  24H    basis set group =>   4
---------------------------------
AUXILIARY/J BASIS SET INFORMATION
---------------------------------
There are 4 groups of distinct atoms

 Group   1 Type C   : 12s5p4d2f1g contracted to 6s4p3d1f1g pattern {711111/2111/211/2/1}
 Group   2 Type O   : 12s5p4d2f1g contracted to 6s4p3d1f1g pattern {711111/2111/211/2/1}
 Group   3 Type F   : 12s5p4d2f1g contracted to 6s4p3d1f1g pattern {711111/2111/211/2/1}
 Group   4 Type H   : 5s2p1d contracted to 3s1p1d pattern {311/2/1}

Atom   0C    basis set group =>   1
Atom   1O    basis set group =>   2
Atom   2O    basis set group =>   2
Atom   3C    basis set group =>   1
Atom   4C    basis set group =>   1
Atom   5C    basis set group =>   1
Atom   6C    basis set group =>   1
Atom   7C    basis set group =>   1
Atom   8C    basis set group =>   1
Atom   9C    basis set group =>   1
Atom  10F    basis set group =>   3
Atom  11F    basis set group =>   3
Atom  12F    basis set group =>   3
Atom  13F    basis set group =>   3
Atom  14F    basis set group =>   3
Atom  15F    basis set group =>   3
Atom  16F    basis set group =>   3
Atom  17F    basis set group =>   3
Atom  18F    basis set group =>   3
Atom  19F    basis set group =>   3
Atom  20F    basis set group =>   3
Atom  21F    basis set group =>   3
Atom  22F    basis set group =>   3
Atom  23F    basis set group =>   3
Atom  24H    basis set group =>   4


           ************************************************************
           *        Program running with 20 parallel MPI-processes    *
           *              working on a common directory               *
           ************************************************************
------------------------------------------------------------------------------
                             ORCA STARTUP CALCULATIONS
                           -- RI-GTO INTEGRALS CHOSEN --
------------------------------------------------------------------------------
------------------------------------------------------------------------------
                   ___                                                        
                  /   \      - P O W E R E D   B Y -                         
                 /     \                                                     
                 |  |  |   _    _      __       _____    __    __             
                 |  |  |  | |  | |    /  \     |  _  \  |  |  /  |          
                  \  \/   | |  | |   /    \    | | | |  |  | /  /          
                 / \  \   | |__| |  /  /\  \   | |_| |  |  |/  /          
                |  |  |   |  __  | /  /__\  \  |    /   |      \           
                |  |  |   | |  | | |   __   |  |    \   |  |\   \          
                \     /   | |  | | |  |  |  |  | |\  \  |  | \   \       
                 \___/    |_|  |_| |__|  |__|  |_| \__\ |__|  \__/        
                                                                              
                      - O R C A' S   B I G   F R I E N D -                    
                                      &                                       
                       - I N T E G R A L  F E E D E R -                       
                                                                              
 v1 FN, 2020, v2 2021, v3 2022-2024                                           
------------------------------------------------------------------------------


----------------------
SHARK INTEGRAL PACKAGE
----------------------

Number of atoms                             ...     25
Number of basis functions                   ...    750
Number of shells                            ...    268
Maximum angular momentum                    ...      3
Integral batch strategy                     ... SHARK/LIBINT Hybrid
RI-J (if used) integral strategy            ... SPLIT-RIJ (Revised 2003 algorithm where possible)
Printlevel                                  ...      1
Contraction scheme used                     ... SEGMENTED contraction
Prescreening option                         ... SCHWARTZ
   Thresh                                   ... 2.500e-11
   Tcut                                     ... 2.500e-12
   Tpresel                                  ... 2.500e-12 
Coulomb Range Separation                    ... NOT USED
Exchange Range Separation                   ... NOT USED
Multipole approximations                    ... NOT USED
Finite Nucleus Model                        ... NOT USED
CABS basis                                  ... NOT available
Auxiliary Coulomb fitting basis             ... AVAILABLE
   # of basis functions in Aux-J            ...   1187
   # of shells in Aux-J                     ...    365
   Maximum angular momentum in Aux-J        ...      4
Auxiliary J/K fitting basis                 ... NOT available
Auxiliary Correlation fitting basis         ... NOT available
Auxiliary 'external' fitting basis          ... NOT available

Checking pre-screening integrals            ... done (  0.0 sec) Dimension = 268
Check shell pair data                       ... done (  0.0 sec)
Shell pair information
Shell pair cut-off parameter TPreSel        ...   2.5e-12
Total number of shell pairs                 ...     36046
Shell pairs after pre-screening             ...     22538
Total number of primitive shell pairs       ...    118872
Primitive shell pairs kept                  ...     47846
          la=0 lb=0:   4280 shell pairs
          la=1 lb=0:   6171 shell pairs
          la=1 lb=1:   2119 shell pairs
          la=2 lb=0:   3349 shell pairs
          la=2 lb=1:   2429 shell pairs
          la=2 lb=2:    685 shell pairs
          la=3 lb=0:   1538 shell pairs
          la=3 lb=1:   1182 shell pairs
          la=3 lb=2:    631 shell pairs
          la=3 lb=3:    154 shell pairs

Calculating one electron integrals          ... done (  0.0 sec)
Calculating RI/J V-Matrix + Cholesky decomp.... done (  0.1 sec)
Calculating Nuclear repulsion               ... done (  0.0 sec) ENN=   2668.067520405177 Eh

Diagonalization of the overlap matrix:
Smallest eigenvalue                        ... 6.396e-05
Time for diagonalization                   ...    0.099 sec
Threshold for overlap eigenvalues          ... 1.000e-07
Number of eigenvalues below threshold      ... 0
Time for construction of square roots      ...    0.044 sec
Total time needed                          ...    0.148 sec

-------------------
DFT GRID GENERATION
-------------------

General Integration Accuracy     IntAcc      ... 4.388
Radial Grid Type                 RadialGrid  ... OptM3 with GC (2021)
Angular Grid (max. ang.)         AngularGrid ... 4 (Lebedev-302)
Angular grid pruning method      GridPruning ... 4 (adaptive)
Weight generation scheme         WeightScheme... mBecke (2022)
Basis function cutoff            BFCut       ... 1.0000e-11
Integration weight cutoff        WCut        ... 1.0000e-14
Partially contracted basis set               ... off
Rotationally invariant grid construction     ... off
Angular grids for H and He will be reduced by one unit

Total number of grid points                  ...   148663
Total number of batches                      ...     2336
Average number of points per batch           ...       63
Average number of grid points per atom       ...     5947

--------------------
COSX GRID GENERATION
--------------------

GRIDX 1
-------
General Integration Accuracy     IntAcc      ... 3.816
Radial Grid Type                 RadialGrid  ... OptM3 with GC (2021)
Angular Grid (max. ang.)         AngularGrid ... 1 (Lebedev-50)
Angular grid pruning method      GridPruning ... 4 (adaptive)
Weight generation scheme         WeightScheme... mBecke (2022)
Basis function cutoff            BFCut       ... 1.0000e-11
Integration weight cutoff        WCut        ... 1.0000e-14
Partially contracted basis set               ... on
Rotationally invariant grid construction     ... off
Angular grids for H and He will be reduced by one unit

Total number of grid points                  ...    18690
Total number of batches                      ...      157
Average number of points per batch           ...      119
Average number of grid points per atom       ...      748
UseSFitting                                  ... on

GRIDX 2
-------
General Integration Accuracy     IntAcc      ... 4.020
Radial Grid Type                 RadialGrid  ... OptM3 with GC (2021)
Angular Grid (max. ang.)         AngularGrid ... 2 (Lebedev-110)
Angular grid pruning method      GridPruning ... 4 (adaptive)
Weight generation scheme         WeightScheme... mBecke (2022)
Basis function cutoff            BFCut       ... 1.0000e-11
Integration weight cutoff        WCut        ... 1.0000e-14
Partially contracted basis set               ... on
Rotationally invariant grid construction     ... off
Angular grids for H and He will be reduced by one unit

Total number of grid points                  ...    44050
Total number of batches                      ...      355
Average number of points per batch           ...      124
Average number of grid points per atom       ...     1762
UseSFitting                                  ... on

GRIDX 3
-------
General Integration Accuracy     IntAcc      ... 4.338
Radial Grid Type                 RadialGrid  ... OptM3 with GC (2021)
Angular Grid (max. ang.)         AngularGrid ... 3 (Lebedev-194)
Angular grid pruning method      GridPruning ... 4 (adaptive)
Weight generation scheme         WeightScheme... mBecke (2022)
Basis function cutoff            BFCut       ... 1.0000e-11
Integration weight cutoff        WCut        ... 1.0000e-14
Partially contracted basis set               ... on
Rotationally invariant grid construction     ... off
Angular grids for H and He will be reduced by one unit

Total number of grid points                  ...    97541
Total number of batches                      ...      773
Average number of points per batch           ...      126
Average number of grid points per atom       ...     3902
UseSFitting                                  ... on
Initializing property integral containers    ... done (  0.0 sec)

SHARK setup successfully completed in   3.1 seconds

Maximum memory used throughout the entire STARTUP-calculation: 57.6 MB


           ************************************************************
           *        Program running with 20 parallel MPI-processes    *
           *              working on a common directory               *
           ************************************************************
-------------------------------------------------------------------------------
                                 ORCA GUESS
                   Start orbitals & Density for SCF / CASSCF
-------------------------------------------------------------------------------

------------
SCF SETTINGS
------------
Hamiltonian:
 Density Functional     Method          .... DFT(GTOs)
  Functional kind                       .... Exchange
  Functional name                       .... Re-regularized SCAN exchange by Furness et al
  Functional family                     .... MGGA
  Functional refs                              
    [ 0] J. W. Furness, A. D. Kaplan, J. Ning, J. P. Perdew, and J. Sun.,  J. Phys. Chem. Lett. 11, 8208-8215 (2020), doi: 10.1021/acs.jpclett.0c02405
    [ 1] J. W. Furness, A. D. Kaplan, J. Ning, J. P. Perdew, and J. Sun.,  J. Phys. Chem. Lett. 11, 9248-9248 (2020), doi: 10.1021/acs.jpclett.0c03077
  Functional external parameters        .... 6
    Parameter  0 _c1        =  6.670000e-01 : c1 parameter        
    Parameter  1 _c2        =  8.000000e-01 : c2 parameter        
    Parameter  2 _d         =  1.240000e+00 : d parameter         
    Parameter  3 _k1        =  6.500000e-02 : k1 parameter        
    Parameter  4 _eta       =  1.000000e-03 : eta parameter       
    Parameter  5 _dp2       =  3.610000e-01 : dp2 parameter       
  Functional kind                       .... Correlation
  Functional name                       .... Re-regularized SCAN correlation by Furness et al
  Functional family                     .... MGGA
  Functional refs                              
    [ 0] J. W. Furness, A. D. Kaplan, J. Ning, J. P. Perdew, and J. Sun.,  J. Phys. Chem. Lett. 11, 8208-8215 (2020), doi: 10.1021/acs.jpclett.0c02405
    [ 1] J. W. Furness, A. D. Kaplan, J. Ning, J. P. Perdew, and J. Sun.,  J. Phys. Chem. Lett. 11, 9248-9248 (2020), doi: 10.1021/acs.jpclett.0c03077
  Functional external parameters        .... 1
    Parameter  0 _eta       =  1.000000e-03 : Regularization parameter
 Gradients option       PostSCFGGA      .... off
 Hybrid DFT is turned on
   Fraction HF Exchange ScalHFX         ....  0.100000
   Scaling of DF-GGA-X  ScalDFX         ....  0.900000
   Scaling of DF-GGA-C  ScalDFC         ....  1.000000
   Scaling of DF-LDA-C  ScalLDAC        ....  1.000000
   Perturbative correction              ....  0.000000
   NL short-range parameter             .... 11.900000
 RI-approximation to the Coulomb term is turned on
   Number of AuxJ basis functions       .... 1187
   RIJ-COSX (HFX calculated with COS-X)).... on


General Settings:
 Integral files         IntName         .... rf_mecn_freq_r2s_C6_P_B
 Hartree-Fock type      HFTyp           .... UHF
 Total Charge           Charge          ....    0
 Multiplicity           Mult            ....    2
 Number of Electrons    NEL             ....  191
 Basis Dimension        Dim             ....  750
 Nuclear Repulsion      ENuc            ....   2668.0675204052 Eh

Convergence Acceleration:
 AO-DIIS                CNVDIIS         .... on
   Start iteration      DIISMaxIt       ....     0
   Startup error        DIISStart       ....  0.200000
   # of expansion vecs  DIISMaxEq       ....     5
   Bias factor          DIISBfac        ....   1.050
   Max. coefficient     DIISMaxC        ....  10.000
 MO-DIIS                CNVKDIIS        .... off
 Trust-Rad. Augm. Hess. CNVTRAH         .... auto
   Auto Start mean grad. ratio tolernc. ....  1.125000
   Auto Start start iteration           ....    50
   Auto Start num. interpolation iter.  ....    10
   Max. Number of Micro iterations      ....    24
   Max. Number of Macro iterations      .... Maxiter - #DIIS iter
   Number of Davidson start vectors     ....     2
   Converg. threshold    (grad. norm)   ....   1.000e-05
   Grad. Scal. Fac. for Micro threshold ....   0.100
   Minimum threshold for Micro iter.    ....   1.000e-02
   NR start threshold (gradient norm)   ....   1.000e-04
   Initial trust radius                 ....   0.400
   Minimum AH scaling param. (alpha)    ....   1.000
   Maximum AH scaling param. (alpha)    .... 1000.000
   Quad. conv. algorithm                .... NR
   White noise on init. David. guess    .... on
   Maximum white noise                  ....   0.010
   Pseudo random numbers                .... off
   Inactive MOs                         .... canonical
   Orbital update algorithm             .... Taylor
   Preconditioner                       .... Diag
   Full preconditioner red. dimension   ....   250
 SOSCF                  CNVSOSCF        .... on
   Start iteration      SOSCFMaxIt      ....   150
   Startup grad/error   SOSCFStart      ....  0.001000
   Hessian update       SOSCFHessUp     .... L-BFGS
 Level Shifting         CNVShift        .... on
   Level shift para.    LevelShift      ....    0.2500
   Turn off err/grad.   ShiftErr        ....    0.0000
 Zerner damping         CNVZerner       .... off
 Static damping         CNVDamp         .... on
   Fraction old density DampFac         ....    0.8500
   Max. Damping (<1)    DampMax         ....    0.9800
   Min. Damping (>=0)   DampMin         ....    0.0000
   Turn off err/grad.   DampErr         ....    0.0300

SCF Procedure:
 Maximum # iterations   MaxIter         ....  1500
 SCF integral mode      SCFMode         .... Direct
   Integral package                     .... SHARK and LIBINT hybrid scheme
 Reset frequency        DirectResetFreq ....    20
 Integral Threshold     Thresh          ....  2.500e-11 Eh
 Primitive CutOff       TCut            ....  2.500e-12 Eh

Convergence Tolerance:
 Convergence Check Mode ConvCheckMode   .... Total+1el-Energy
 Convergence forced     ConvForced      .... 0
 Energy Change          TolE            ....  1.000e-08 Eh
 1-El. energy change                    ....  1.000e-05 Eh
 Orbital Gradient       TolG            ....  1.000e-05
 Orbital Rotation angle TolX            ....  1.000e-05
 DIIS Error             TolErr          ....  5.000e-07

------------------------------
INITIAL GUESS: MODEL POTENTIAL
------------------------------
Loading Hartree-Fock densities                     ... done
Calculating cut-offs                               ... done
Initializing the effective Hamiltonian             ... done
Setting up the integral package (SHARK)            ... done
Starting the Coulomb interaction                   ... done (   0.1 sec)
Making the grid                                    ... done (   0.4 sec)
Mapping shells                                     ... done
Starting the XC term evaluation                    ... done (   0.2 sec)
  promolecular density results
     # of electrons  =    190.999705684
     EX              =   -197.619758616
     EC              =     -6.718759367
     EX+EC           =   -204.338517983
Transforming the Hamiltonian                       ... done (   0.1 sec)
Diagonalizing the Hamiltonian                      ... done (   0.1 sec)
Back transforming the eigenvectors                 ... done (   0.0 sec)
Now organizing SCF variables                       ... done
                      ------------------
                      INITIAL GUESS DONE (   1.1 sec)
                      ------------------
             **** ENERGY FILE WAS UPDATED (rf_mecn_freq_r2s_C6_P_B.en.tmp) ****
Finished Guess after   1.8 sec
Maximum memory used throughout the entire GUESS-calculation: 46.8 MB


           ************************************************************
           *        Program running with 20 parallel MPI-processes    *
           *              working on a common directory               *
           ************************************************************

-------------------------------------------------------------------------------------------
                                      ORCA LEAN-SCF
                              memory conserving SCF solver
-------------------------------------------------------------------------------------------

--------------------
CPCM SOLVATION MODEL
--------------------
CPCM parameters:
  Epsilon                                         ...      35.6880
  Refrac                                          ...       1.3442
  Rsolv                                           ...       1.3000
  Surface type                                    ... GAUSSIAN VDW
  Discretization scheme                           ... Constant charge density
    Threshold for H atoms                         ...       5.0000 (charges/Ang^2)
    Threshold for non-H atoms                     ...       5.0000 (charges/Ang^2)
  Epsilon function type                           ...         CPCM
Solvent:                                          ... ACETONITRILE
SMD-CDS solvent descriptors:
  Soln                                            ...       1.3442
  Soln25                                          ...       1.3416
  Sola                                            ...       0.0700
  Solb                                            ...       0.3200
  Solg                                            ...      41.2500
  Solc                                            ...       0.0000
  Solh                                            ...       0.0000
Radii:
  Scheme                                          ... Element-dependent radii
  Radius for C  used is    3.4960 Bohr (=   1.8500 Ang.)
  Radius for O  used is    4.0969 Bohr (=   2.1680 Ang.)
  Radius for F  used is    3.2692 Bohr (=   1.7300 Ang.)
  Radius for H  used is    2.2677 Bohr (=   1.2000 Ang.)
Calculating surface                               ...        done! (  0.0s)
Cavity surface points                             ...         2153
Cavity Volume                                     ...    2099.5094
Cavity Surface-area                               ...    1103.0283
Calculating surface distance matrix               ...        done! (  0.0s)
Performing Cholesky decomposition & store         ...        done! (  0.1s)
Overall time for CPCM initialization              ...                 0.1s

----------------------------------------D-I-I-S--------------------------------------------
Iteration    Energy (Eh)           Delta-E    RMSDP     MaxDP     DIISErr   Damp  Time(sec)
-------------------------------------------------------------------------------------------
               ***  Starting incremental Fock matrix formation  ***
    1    -1853.2059421540138828     0.00e+00  1.81e-04  1.33e-02  1.37e-01  0.850   6.8
Warning: op=1 Small HOMO/LUMO gap (   0.057) - skipping pre-diagonalization
         Will do a full diagonalization
    2    -1853.3139781247559768    -1.08e-01  1.71e-04  1.19e-02  9.31e-02  0.850   4.6
                               ***Turning on AO-DIIS***
    3    -1853.3733580608354714    -5.94e-02  8.52e-05  4.34e-03  5.46e-02  0.850   3.9
    4    -1853.4096507515519079    -3.63e-02  5.99e-05  3.97e-03  4.20e-02  0.850   3.9
    5    -1853.4357308426001509    -2.61e-02  5.11e-05  4.32e-03  3.61e-02  0.850   3.7
    6    -1853.4565683788291608    -2.08e-02  4.62e-05  4.54e-03  3.15e-02  0.850   3.8
    7    -1853.4740222246441590    -1.75e-02  4.23e-05  4.32e-03  2.69e-02  0.850   3.9
    8    -1853.4888235408220680    -1.48e-02  2.45e-04  2.51e-02  2.21e-02  0.000   3.6
    9    -1853.5659029188686873    -7.71e-02  1.78e-05  1.58e-03  3.33e-03  0.000   3.9
   10    -1853.5660715860708478    -1.69e-04  8.07e-06  8.08e-04  1.62e-03  0.000   3.4
                              *** Initializing SOSCF ***
---------------------------------------S-O-S-C-F--------------------------------------
Iteration    Energy (Eh)           Delta-E    RMSDP     MaxDP     MaxGrad    Time(sec)
--------------------------------------------------------------------------------------
   11    -1853.5661030542555636    -3.15e-05  3.85e-06  3.43e-04  5.91e-04     3.7
               *** Restarting incremental Fock matrix formation ***
   12    -1853.5661300058268353    -2.70e-05  3.02e-06  2.52e-04  1.66e-04     6.3
   13    -1853.5661301863842709    -1.81e-07  1.95e-06  1.73e-04  4.52e-04     4.1
   14    -1853.5661317229682936    -1.54e-06  1.09e-06  8.47e-05  5.75e-05     4.0
   15    -1853.5661317436820354    -2.07e-08  4.36e-07  3.82e-05  2.19e-05     3.8
   16    -1853.5661318250427030    -8.14e-08  2.08e-07  2.08e-05  4.22e-06     3.4
   17    -1853.5661318029501672     2.21e-08  1.54e-07  2.12e-05  6.39e-06     3.1
   18    -1853.5661318299785307    -2.70e-08  1.56e-07  2.08e-05  6.95e-07     2.9
                  *** Gradient check signals convergence ***

               *****************************************************
               *                     SUCCESS                       *
               *           SCF CONVERGED AFTER  18 CYCLES          *
               *****************************************************

Recomputing exchange energy using gridx3       ... done (    7.221 sec)
Old exchange energy                            :    -19.930978562 Eh
New exchange energy                            :    -19.930976759 Eh
Exchange energy change after final integration :      0.000001803 Eh
Total energy after final integration           :  -1853.566130027 Eh

SMD CDS free energy correction energy :                 3.24471     Kcal/mol
Total Energy after SMD CDS correction =             -1853.560959257 Eh
             **** ENERGY FILE WAS UPDATED (rf_mecn_freq_r2s_C6_P_B.en.tmp) ****

----------------
TOTAL SCF ENERGY
----------------

Total Energy       :      -1853.56095925723753 Eh          -50437.95792 eV

Components:
Nuclear Repulsion  :       2668.06752040517722 Eh           72601.80823 eV
Electronic Energy  :      -4521.62040480864925 Eh         -123039.54642 eV
One Electron Energy:      -7886.94087850087089 Eh         -214614.57210 eV
Two Electron Energy:       3365.32047369222119 Eh           91575.02567 eV
CPCM Dielectric    :         -0.01324742650677 Eh              -0.36048 eV
SMD CDS (Gcds)     :          0.00517076988985 Eh               0.14070 eV

Virial components:
Potential Energy   :      -3700.97318341778919 Eh         -100708.60025 eV
Kinetic Energy     :       1847.41222416055143 Eh           50270.64233 eV
Virial Ratio       :          2.00332829620605

DFT components:
N(Alpha)           :       95.999991726620 electrons
N(Beta)            :       94.999980439274 electrons
N(Total)           :      190.999972165894 electrons
E(X)               :     -180.323930268392 Eh       
E(C)               :       -6.647198876298 Eh       
E(XC)              :     -186.971129144691 Eh       

CPCM Solvation Model Properties:
Surface-charge          :         -0.00824709548820
Corrected charge        :         -0.00000000000000
Outlying charge corr.   :          0.00000375448673 Eh               0.00010 eV
Free-energy (cav+disp)  :          0.00517076988985 Eh               0.14070 eV

---------------
SCF CONVERGENCE
---------------

  Last Energy change         ...    2.7028e-08  Tolerance :   1.0000e-08
  Last MAX-Density change    ...    2.0770e-05  Tolerance :   1.0000e-07
  Last RMS-Density change    ...    1.5603e-07  Tolerance :   5.0000e-09
  Last DIIS Error            ...    5.9083e-04  Tolerance :   5.0000e-07
  Last Orbital Gradient      ...    6.9486e-07  Tolerance :   1.0000e-05
  Last Orbital Rotation      ...    3.2110e-06  Tolerance :   1.0000e-05


----------------------
UHF SPIN CONTAMINATION
----------------------

Warning: in a DFT calculation there is little theoretical justification to 
         calculate <S**2> as in Hartree-Fock theory. We will do it anyways
         but you should keep in mind that the values have only limited relevance

Expectation value of <S**2>     :     0.757040
Ideal value S*(S+1) for S=0.5   :     0.750000
Deviation                       :     0.007040

----------------
ORBITAL ENERGIES
----------------
                 SPIN UP ORBITALS
  NO   OCC          E(Eh)            E(eV) 
   0   1.0000     -24.748711      -673.4467 
   1   1.0000     -24.731955      -672.9907 
   2   1.0000     -24.731895      -672.9891 
   3   1.0000     -24.731308      -672.9731 
   4   1.0000     -24.731034      -672.9657 
   5   1.0000     -24.730919      -672.9625 
   6   1.0000     -24.730744      -672.9578 
   7   1.0000     -24.730444      -672.9496 
   8   1.0000     -24.729212      -672.9161 
   9   1.0000     -24.727415      -672.8672 
  10   1.0000     -24.725857      -672.8248 
  11   1.0000     -24.723034      -672.7479 
  12   1.0000     -24.721363      -672.7025 
  13   1.0000     -24.721113      -672.6957 
  14   1.0000     -19.196823      -522.3721 
  15   1.0000     -19.140963      -520.8521 
  16   1.0000     -10.438651      -284.0501 
  17   1.0000     -10.387465      -282.6573 
  18   1.0000     -10.384178      -282.5679 
  19   1.0000     -10.384134      -282.5667 
  20   1.0000     -10.383730      -282.5557 
  21   1.0000     -10.375262      -282.3252 
  22   1.0000     -10.326198      -280.9901 
  23   1.0000     -10.313624      -280.6480 
  24   1.0000      -1.360121       -37.0108 
  25   1.0000      -1.338767       -36.4297 
  26   1.0000      -1.322567       -35.9889 
  27   1.0000      -1.314017       -35.7562 
  28   1.0000      -1.310161       -35.6513 
  29   1.0000      -1.308389       -35.6031 
  30   1.0000      -1.304483       -35.4968 
  31   1.0000      -1.269492       -34.5446 
  32   1.0000      -1.268972       -34.5305 
  33   1.0000      -1.266426       -34.4612 
  34   1.0000      -1.259963       -34.2853 
  35   1.0000      -1.254789       -34.1445 
  36   1.0000      -1.250541       -34.0290 
  37   1.0000      -1.249887       -34.0112 
  38   1.0000      -1.152610       -31.3641 
  39   1.0000      -1.065642       -28.9976 
  40   1.0000      -0.861370       -23.4391 
  41   1.0000      -0.836477       -22.7617 
  42   1.0000      -0.808658       -22.0047 
  43   1.0000      -0.775135       -21.0925 
  44   1.0000      -0.729577       -19.8528 
  45   1.0000      -0.696478       -18.9521 
  46   1.0000      -0.669616       -18.2212 
  47   1.0000      -0.661041       -17.9878 
  48   1.0000      -0.636217       -17.3123 
  49   1.0000      -0.634367       -17.2620 
  50   1.0000      -0.631033       -17.1713 
  51   1.0000      -0.624209       -16.9856 
  52   1.0000      -0.623653       -16.9704 
  53   1.0000      -0.616333       -16.7713 
  54   1.0000      -0.603491       -16.4218 
  55   1.0000      -0.600541       -16.3416 
  56   1.0000      -0.593617       -16.1531 
  57   1.0000      -0.588962       -16.0265 
  58   1.0000      -0.583347       -15.8737 
  59   1.0000      -0.578941       -15.7538 
  60   1.0000      -0.570384       -15.5209 
  61   1.0000      -0.563224       -15.3261 
  62   1.0000      -0.527422       -14.3519 
  63   1.0000      -0.512184       -13.9372 
  64   1.0000      -0.501210       -13.6386 
  65   1.0000      -0.496233       -13.5032 
  66   1.0000      -0.493966       -13.4415 
  67   1.0000      -0.489199       -13.3118 
  68   1.0000      -0.486898       -13.2492 
  69   1.0000      -0.485887       -13.2216 
  70   1.0000      -0.482990       -13.1428 
  71   1.0000      -0.475655       -12.9432 
  72   1.0000      -0.473697       -12.8899 
  73   1.0000      -0.469552       -12.7772 
  74   1.0000      -0.464570       -12.6416 
  75   1.0000      -0.461675       -12.5628 
  76   1.0000      -0.456243       -12.4150 
  77   1.0000      -0.455498       -12.3947 
  78   1.0000      -0.451776       -12.2935 
  79   1.0000      -0.447951       -12.1894 
  80   1.0000      -0.447190       -12.1687 
  81   1.0000      -0.445472       -12.1219 
  82   1.0000      -0.438350       -11.9281 
  83   1.0000      -0.433801       -11.8043 
  84   1.0000      -0.433234       -11.7889 
  85   1.0000      -0.429977       -11.7003 
  86   1.0000      -0.428468       -11.6592 
  87   1.0000      -0.426828       -11.6146 
  88   1.0000      -0.425002       -11.5649 
  89   1.0000      -0.417067       -11.3490 
  90   1.0000      -0.395189       -10.7536 
  91   1.0000      -0.371960       -10.1215 
  92   1.0000      -0.351431        -9.5629 
  93   1.0000      -0.345420        -9.3994 
  94   1.0000      -0.304254        -8.2792 
  95   1.0000      -0.270874        -7.3709 
  96   0.0000      -0.060876        -1.6565 
  97   0.0000      -0.009708        -0.2642 
  98   0.0000       0.019609         0.5336 
  99   0.0000       0.031313         0.8521 
 100   0.0000       0.055423         1.5081 
 101   0.0000       0.065918         1.7937 
 102   0.0000       0.070370         1.9149 
 103   0.0000       0.080139         2.1807 
 104   0.0000       0.107044         2.9128 
 105   0.0000       0.124135         3.3779 
 106   0.0000       0.127419         3.4673 

                 SPIN DOWN ORBITALS
  NO   OCC          E(Eh)            E(eV) 
   0   1.0000     -24.743431      -673.3030 
   1   1.0000     -24.731939      -672.9903 
   2   1.0000     -24.731842      -672.9876 
   3   1.0000     -24.731236      -672.9711 
   4   1.0000     -24.731041      -672.9658 
   5   1.0000     -24.730887      -672.9616 
   6   1.0000     -24.730728      -672.9573 
   7   1.0000     -24.730433      -672.9493 
   8   1.0000     -24.728859      -672.9065 
   9   1.0000     -24.726512      -672.8426 
  10   1.0000     -24.725068      -672.8033 
  11   1.0000     -24.723036      -672.7480 
  12   1.0000     -24.721357      -672.7023 
  13   1.0000     -24.719183      -672.6432 
  14   1.0000     -19.196819      -522.3720 
  15   1.0000     -19.140945      -520.8516 
  16   1.0000     -10.438558      -284.0476 
  17   1.0000     -10.388573      -282.6874 
  18   1.0000     -10.385053      -282.5917 
  19   1.0000     -10.383654      -282.5536 
  20   1.0000     -10.383449      -282.5480 
  21   1.0000     -10.375210      -282.3238 
  22   1.0000     -10.326185      -280.9898 
  23   1.0000     -10.296625      -280.1854 
  24   1.0000      -1.359873       -37.0040 
  25   1.0000      -1.338301       -36.4170 
  26   1.0000      -1.321160       -35.9506 
  27   1.0000      -1.312528       -35.7157 
  28   1.0000      -1.309179       -35.6246 
  29   1.0000      -1.307496       -35.5788 
  30   1.0000      -1.296805       -35.2879 
  31   1.0000      -1.269212       -34.5370 
  32   1.0000      -1.268690       -34.5228 
  33   1.0000      -1.266303       -34.4579 
  34   1.0000      -1.259475       -34.2721 
  35   1.0000      -1.253927       -34.1211 
  36   1.0000      -1.250530       -34.0287 
  37   1.0000      -1.247142       -33.9365 
  38   1.0000      -1.152593       -31.3637 
  39   1.0000      -1.065617       -28.9969 
  40   1.0000      -0.847266       -23.0553 
  41   1.0000      -0.831219       -22.6186 
  42   1.0000      -0.807507       -21.9734 
  43   1.0000      -0.769153       -20.9297 
  44   1.0000      -0.724695       -19.7200 
  45   1.0000      -0.694707       -18.9039 
  46   1.0000      -0.664982       -18.0951 
  47   1.0000      -0.660670       -17.9777 
  48   1.0000      -0.634481       -17.2651 
  49   1.0000      -0.632685       -17.2162 
  50   1.0000      -0.627923       -17.0866 
  51   1.0000      -0.623497       -16.9662 
  52   1.0000      -0.623074       -16.9547 
  53   1.0000      -0.615604       -16.7514 
  54   1.0000      -0.602353       -16.3909 
  55   1.0000      -0.598189       -16.2775 
  56   1.0000      -0.591931       -16.1073 
  57   1.0000      -0.586706       -15.9651 
  58   1.0000      -0.579445       -15.7675 
  59   1.0000      -0.577642       -15.7184 
  60   1.0000      -0.568558       -15.4713 
  61   1.0000      -0.562959       -15.3189 
  62   1.0000      -0.512164       -13.9367 
  63   1.0000      -0.499916       -13.6034 
  64   1.0000      -0.499001       -13.5785 
  65   1.0000      -0.495846       -13.4927 
  66   1.0000      -0.492280       -13.3956 
  67   1.0000      -0.487975       -13.2785 
  68   1.0000      -0.486196       -13.2301 
  69   1.0000      -0.483947       -13.1689 
  70   1.0000      -0.482509       -13.1297 
  71   1.0000      -0.474418       -12.9096 
  72   1.0000      -0.472062       -12.8455 
  73   1.0000      -0.468762       -12.7557 
  74   1.0000      -0.463539       -12.6135 
  75   1.0000      -0.460342       -12.5266 
  76   1.0000      -0.455402       -12.3921 
  77   1.0000      -0.453782       -12.3480 
  78   1.0000      -0.449562       -12.2332 
  79   1.0000      -0.446626       -12.1533 
  80   1.0000      -0.445812       -12.1312 
  81   1.0000      -0.444519       -12.0960 
  82   1.0000      -0.437814       -11.9135 
  83   1.0000      -0.432678       -11.7738 
  84   1.0000      -0.431913       -11.7529 
  85   1.0000      -0.429255       -11.6806 
  86   1.0000      -0.428077       -11.6486 
  87   1.0000      -0.425938       -11.5904 
  88   1.0000      -0.423276       -11.5179 
  89   1.0000      -0.416134       -11.3236 
  90   1.0000      -0.393213       -10.6999 
  91   1.0000      -0.369333       -10.0501 
  92   1.0000      -0.351260        -9.5583 
  93   1.0000      -0.342850        -9.3294 
  94   1.0000      -0.303625        -8.2621 
  95   0.0000      -0.129409        -3.5214 
  96   0.0000      -0.059383        -1.6159 
  97   0.0000      -0.007345        -0.1999 
  98   0.0000       0.024290         0.6610 
  99   0.0000       0.033568         0.9134 
 100   0.0000       0.056870         1.5475 
 101   0.0000       0.073601         2.0028 
 102   0.0000       0.082963         2.2575 
 103   0.0000       0.089669         2.4400 
 104   0.0000       0.109462         2.9786 
 105   0.0000       0.128388         3.4936 
*Only the first 10 virtual orbitals were printed.

                    ********************************
                    * MULLIKEN POPULATION ANALYSIS *
                    ********************************

--------------------------------------------
MULLIKEN ATOMIC CHARGES AND SPIN POPULATIONS
--------------------------------------------
   0 C :    0.282589    0.000432
   1 O :   -0.365515    0.000080
   2 O :   -0.326613    0.000558
   3 C :    0.411389    0.001983
   4 C :    0.287768    0.004717
   5 C :    0.306422    0.028284
   6 C :    0.390864   -0.026442
   7 C :    0.107674    0.839900
   8 C :    0.361383   -0.008399
   9 C :    0.473380   -0.003247
  10 F :   -0.174519    0.000026
  11 F :   -0.170615    0.000127
  12 F :   -0.167017   -0.000113
  13 F :   -0.169780    0.000249
  14 F :   -0.169852    0.000571
  15 F :   -0.169864    0.000406
  16 F :   -0.167759    0.005607
  17 F :   -0.169610    0.015754
  18 F :   -0.142248    0.093425
  19 F :   -0.174299    0.032381
  20 F :   -0.170778    0.011788
  21 F :   -0.159511    0.000431
  22 F :   -0.154869    0.000218
  23 F :   -0.157527    0.001191
  24 H :    0.388908    0.000072
Sum of atomic charges         :   -0.0000000
Sum of atomic spin populations:    1.0000000

-----------------------------------------------------
MULLIKEN REDUCED ORBITAL CHARGES AND SPIN POPULATIONS
-----------------------------------------------------
CHARGE
  0 C s       :     3.066218  s :     3.066218
      pz      :     0.753374  p :     2.363333
      px      :     0.874353
      py      :     0.735606
      dz2     :     0.052794  d :     0.263161
      dxz     :     0.028882
      dyz     :     0.051182
      dx2y2   :     0.082985
      dxy     :     0.047318
      f0      :     0.002300  f :     0.024699
      f+1     :     0.002327
      f-1     :     0.004018
      f+2     :     0.003806
      f-2     :     0.003840
      f+3     :     0.003054
      f-3     :     0.005354

  1 O s       :     3.786552  s :     3.786552
      pz      :     1.535437  p :     4.544591
      px      :     1.429060
      py      :     1.580094
      dz2     :     0.005960  d :     0.032531
      dxz     :     0.003307
      dyz     :     0.008309
      dx2y2   :     0.009145
      dxy     :     0.005809
      f0      :     0.000263  f :     0.001841
      f+1     :     0.000195
      f-1     :     0.000332
      f+2     :     0.000398
      f-2     :     0.000312
      f+3     :     0.000193
      f-3     :     0.000149

  2 O s       :     3.827618  s :     3.827618
      pz      :     1.500186  p :     4.464637
      px      :     1.588808
      py      :     1.375643
      dz2     :     0.004461  d :     0.032275
      dxz     :     0.004206
      dyz     :     0.006920
      dx2y2   :     0.008945
      dxy     :     0.007743
      f0      :     0.000160  f :     0.002085
      f+1     :     0.000158
      f-1     :     0.000319
      f+2     :     0.000207
      f-2     :     0.000372
      f+3     :     0.000378
      f-3     :     0.000491

  3 C s       :     3.042990  s :     3.042990
      pz      :     0.666401  p :     2.232351
      px      :     0.929640
      py      :     0.636310
      dz2     :     0.047106  d :     0.285546
      dxz     :     0.057629
      dyz     :     0.077034
      dx2y2   :     0.047813
      dxy     :     0.055963
      f0      :     0.005823  f :     0.027724
      f+1     :     0.004482
      f-1     :     0.004341
      f+2     :     0.003440
      f-2     :     0.002280
      f+3     :     0.003957
      f-3     :     0.003402

  4 C s       :     3.150218  s :     3.150218
      pz      :     0.653794  p :     2.243711
      px      :     0.924986
      py      :     0.664930
      dz2     :     0.056644  d :     0.290268
      dxz     :     0.051234
      dyz     :     0.079024
      dx2y2   :     0.043297
      dxy     :     0.060069
      f0      :     0.004889  f :     0.028036
      f+1     :     0.004212
      f-1     :     0.006266
      f+2     :     0.003259
      f-2     :     0.002265
      f+3     :     0.004554
      f-3     :     0.002592

  5 C s       :     3.146622  s :     3.146622
      pz      :     0.592053  p :     2.225453
      px      :     0.922706
      py      :     0.710694
      dz2     :     0.070282  d :     0.293457
      dxz     :     0.062953
      dyz     :     0.066726
      dx2y2   :     0.041832
      dxy     :     0.051664
      f0      :     0.004116  f :     0.028046
      f+1     :     0.004491
      f-1     :     0.007568
      f+2     :     0.002845
      f-2     :     0.003560
      f+3     :     0.003079
      f-3     :     0.002386

  6 C s       :     3.055597  s :     3.055597
      pz      :     0.600084  p :     2.221911
      px      :     0.891973
      py      :     0.729854
      dz2     :     0.078603  d :     0.303868
      dxz     :     0.064478
      dyz     :     0.058455
      dx2y2   :     0.042713
      dxy     :     0.059619
      f0      :     0.005295  f :     0.027760
      f+1     :     0.003089
      f-1     :     0.005851
      f+2     :     0.003785
      f-2     :     0.004729
      f+3     :     0.002865
      f-3     :     0.002147

  7 C s       :     3.223037  s :     3.223037
      pz      :     0.703204  p :     2.493007
      px      :     0.891086
      py      :     0.898717
      dz2     :     0.039778  d :     0.158227
      dxz     :     0.046745
      dyz     :     0.023436
      dx2y2   :     0.021354
      dxy     :     0.026914
      f0      :     0.004331  f :     0.018055
      f+1     :     0.002842
      f-1     :     0.002003
      f+2     :     0.003153
      f-2     :     0.002653
      f+3     :     0.001718
      f-3     :     0.001356

  8 C s       :     3.055541  s :     3.055541
      pz      :     0.691593  p :     2.264422
      px      :     0.866078
      py      :     0.706751
      dz2     :     0.054671  d :     0.290915
      dxz     :     0.056927
      dyz     :     0.068447
      dx2y2   :     0.045968
      dxy     :     0.064903
      f0      :     0.005729  f :     0.027738
      f+1     :     0.003615
      f-1     :     0.004632
      f+2     :     0.003067
      f-2     :     0.003379
      f+3     :     0.002407
      f-3     :     0.004910

  9 C s       :     3.022090  s :     3.022090
      pz      :     0.619675  p :     2.106339
      px      :     0.762771
      py      :     0.723893
      dz2     :     0.079855  d :     0.357536
      dxz     :     0.062595
      dyz     :     0.084808
      dx2y2   :     0.060446
      dxy     :     0.069831
      f0      :     0.008732  f :     0.040655
      f+1     :     0.005248
      f-1     :     0.004843
      f+2     :     0.006349
      f-2     :     0.006512
      f+3     :     0.003448
      f-3     :     0.005523

 10 F s       :     3.928301  s :     3.928301
      pz      :     1.887635  p :     5.228606
      px      :     1.874939
      py      :     1.466032
      dz2     :     0.002320  d :     0.016901
      dxz     :     0.000297
      dyz     :     0.003397
      dx2y2   :     0.006199
      dxy     :     0.004689
      f0      :     0.000059  f :     0.000711
      f+1     :     0.000019
      f-1     :     0.000133
      f+2     :     0.000085
      f-2     :     0.000023
      f+3     :     0.000190
      f-3     :     0.000201

 11 F s       :     3.926323  s :     3.926323
      pz      :     1.472762  p :     5.226490
      px      :     1.898732
      py      :     1.854996
      dz2     :     0.007779  d :     0.017069
      dxz     :     0.003828
      dyz     :     0.004491
      dx2y2   :     0.000519
      dxy     :     0.000452
      f0      :     0.000276  f :     0.000733
      f+1     :     0.000151
      f-1     :     0.000220
      f+2     :     0.000044
      f-2     :     0.000036
      f+3     :     0.000003
      f-3     :     0.000004

 12 F s       :     3.928815  s :     3.928815
      pz      :     1.865369  p :     5.220221
      px      :     1.892800
      py      :     1.462053
      dz2     :     0.002310  d :     0.017258
      dxz     :     0.000350
      dyz     :     0.004265
      dx2y2   :     0.006283
      dxy     :     0.004050
      f0      :     0.000071  f :     0.000722
      f+1     :     0.000009
      f-1     :     0.000131
      f+2     :     0.000135
      f-2     :     0.000027
      f+3     :     0.000149
      f-3     :     0.000199

 13 F s       :     3.929365  s :     3.929365
      pz      :     1.470217  p :     5.222556
      px      :     1.868581
      py      :     1.883758
      dz2     :     0.008013  d :     0.017144
      dxz     :     0.004744
      dyz     :     0.003529
      dx2y2   :     0.000489
      dxy     :     0.000370
      f0      :     0.000289  f :     0.000715
      f+1     :     0.000205
      f-1     :     0.000148
      f+2     :     0.000039
      f-2     :     0.000029
      f+3     :     0.000003
      f-3     :     0.000003

 14 F s       :     3.929690  s :     3.929690
      pz      :     1.759134  p :     5.222260
      px      :     1.888193
      py      :     1.574934
      dz2     :     0.002366  d :     0.017182
      dxz     :     0.001387
      dyz     :     0.006099
      dx2y2   :     0.004133
      dxy     :     0.003197
      f0      :     0.000079  f :     0.000720
      f+1     :     0.000009
      f-1     :     0.000149
      f+2     :     0.000191
      f-2     :     0.000104
      f+3     :     0.000088
      f-3     :     0.000100

 15 F s       :     3.930718  s :     3.930718
      pz      :     1.474258  p :     5.221137
      px      :     1.883447
      py      :     1.863432
      dz2     :     0.007910  d :     0.017288
      dxz     :     0.004232
      dyz     :     0.004153
      dx2y2   :     0.000515
      dxy     :     0.000479
      f0      :     0.000290  f :     0.000720
      f+1     :     0.000168
      f-1     :     0.000186
      f+2     :     0.000034
      f-2     :     0.000037
      f+3     :     0.000002
      f-3     :     0.000002

 16 F s       :     3.930510  s :     3.930510
      pz      :     1.693852  p :     5.219567
      px      :     1.899433
      py      :     1.626281
      dz2     :     0.002911  d :     0.016972
      dxz     :     0.001700
      dyz     :     0.006744
      dx2y2   :     0.003154
      dxy     :     0.002463
      f0      :     0.000079  f :     0.000710
      f+1     :     0.000016
      f-1     :     0.000199
      f+2     :     0.000196
      f-2     :     0.000103
      f+3     :     0.000056
      f-3     :     0.000061

 17 F s       :     3.929009  s :     3.929009
      pz      :     1.535710  p :     5.223357
      px      :     1.861133
      py      :     1.826513
      dz2     :     0.005957  d :     0.016552
      dxz     :     0.004125
      dyz     :     0.004546
      dx2y2   :     0.000918
      dxy     :     0.001005
      f0      :     0.000176  f :     0.000692
      f+1     :     0.000155
      f-1     :     0.000189
      f+2     :     0.000067
      f-2     :     0.000088
      f+3     :     0.000007
      f-3     :     0.000009

 18 F s       :     3.932160  s :     3.932160
      pz      :     1.559913  p :     5.190414
      px      :     1.876250
      py      :     1.754252
      dz2     :     0.006108  d :     0.018893
      dxz     :     0.003897
      dyz     :     0.006026
      dx2y2   :     0.001536
      dxy     :     0.001326
      f0      :     0.000173  f :     0.000781
      f+1     :     0.000115
      f-1     :     0.000236
      f+2     :     0.000116
      f-2     :     0.000110
      f+3     :     0.000016
      f-3     :     0.000014

 19 F s       :     3.927103  s :     3.927103
      pz      :     1.890701  p :     5.230329
      px      :     1.830514
      py      :     1.509115
      dz2     :     0.002251  d :     0.016187
      dxz     :     0.000734
      dyz     :     0.002861
      dx2y2   :     0.005087
      dxy     :     0.005253
      f0      :     0.000058  f :     0.000679
      f+1     :     0.000030
      f-1     :     0.000117
      f+2     :     0.000045
      f-2     :     0.000060
      f+3     :     0.000215
      f-3     :     0.000155

 20 F s       :     3.928378  s :     3.928378
      pz      :     1.493422  p :     5.224931
      px      :     1.842788
      py      :     1.888721
      dz2     :     0.007032  d :     0.016765
      dxz     :     0.005304
      dyz     :     0.003155
      dx2y2   :     0.000628
      dxy     :     0.000646
      f0      :     0.000230  f :     0.000703
      f+1     :     0.000241
      f-1     :     0.000113
      f+2     :     0.000056
      f-2     :     0.000055
      f+3     :     0.000005
      f-3     :     0.000005

 21 F s       :     3.925076  s :     3.925076
      pz      :     1.886559  p :     5.216376
      px      :     1.840231
      py      :     1.489586
      dz2     :     0.002439  d :     0.017289
      dxz     :     0.000636
      dyz     :     0.003126
      dx2y2   :     0.005696
      dxy     :     0.005392
      f0      :     0.000065  f :     0.000769
      f+1     :     0.000030
      f-1     :     0.000137
      f+2     :     0.000059
      f-2     :     0.000057
      f+3     :     0.000241
      f-3     :     0.000180

 22 F s       :     3.922918  s :     3.922918
      pz      :     1.643450  p :     5.213764
      px      :     1.691062
      py      :     1.879252
      dz2     :     0.003886  d :     0.017406
      dxz     :     0.006915
      dyz     :     0.002321
      dx2y2   :     0.002333
      dxy     :     0.001951
      f0      :     0.000108  f :     0.000781
      f+1     :     0.000246
      f-1     :     0.000046
      f+2     :     0.000171
      f-2     :     0.000128
      f+3     :     0.000041
      f-3     :     0.000040

 23 F s       :     3.923479  s :     3.923479
      pz      :     1.550061  p :     5.215914
      px      :     1.783569
      py      :     1.882284
      dz2     :     0.005892  d :     0.017359
      dxz     :     0.006078
      dyz     :     0.003058
      dx2y2   :     0.001211
      dxy     :     0.001121
      f0      :     0.000179  f :     0.000775
      f+1     :     0.000273
      f-1     :     0.000098
      f+2     :     0.000101
      f-2     :     0.000096
      f+3     :     0.000014
      f-3     :     0.000013

 24 H s       :     0.567497  s :     0.567497
      pz      :     0.012685  p :     0.043595
      px      :     0.019946
      py      :     0.010963


SPIN
  0 C s       :     0.000296  s :     0.000296
      pz      :     0.000018  p :     0.000093
      px      :     0.000007
      py      :     0.000069
      dz2     :    -0.000010  d :     0.000040
      dxz     :     0.000015
      dyz     :     0.000022
      dx2y2   :    -0.000013
      dxy     :     0.000025
      f0      :     0.000000  f :     0.000002
      f+1     :     0.000001
      f-1     :    -0.000001
      f+2     :    -0.000001
      f-2     :     0.000001
      f+3     :    -0.000000
      f-3     :     0.000002

  1 O s       :     0.000013  s :     0.000013
      pz      :     0.000123  p :     0.000061
      px      :    -0.000021
      py      :    -0.000041
      dz2     :    -0.000000  d :     0.000005
      dxz     :     0.000004
      dyz     :     0.000000
      dx2y2   :     0.000001
      dxy     :    -0.000000
      f0      :     0.000000  f :     0.000000
      f+1     :    -0.000000
      f-1     :     0.000000
      f+2     :     0.000000
      f-2     :     0.000000
      f+3     :    -0.000000
      f-3     :     0.000000

  2 O s       :     0.000018  s :     0.000018
      pz      :     0.000511  p :     0.000541
      px      :    -0.000061
      py      :     0.000091
      dz2     :    -0.000000  d :    -0.000001
      dxz     :    -0.000000
      dyz     :    -0.000000
      dx2y2   :     0.000000
      dxy     :    -0.000000
      f0      :    -0.000000  f :    -0.000000
      f+1     :    -0.000000
      f-1     :    -0.000000
      f+2     :    -0.000000
      f-2     :    -0.000000
      f+3     :     0.000000
      f-3     :     0.000000

  3 C s       :    -0.000275  s :    -0.000275
      pz      :     0.000454  p :     0.001920
      px      :     0.000642
      py      :     0.000825
      dz2     :     0.000069  d :     0.000330
      dxz     :    -0.000023
      dyz     :     0.000028
      dx2y2   :     0.000250
      dxy     :     0.000006
      f0      :    -0.000002  f :     0.000007
      f+1     :     0.000000
      f-1     :    -0.000000
      f+2     :     0.000003
      f-2     :     0.000004
      f+3     :     0.000002
      f-3     :    -0.000001

  4 C s       :    -0.001107  s :    -0.001107
      pz      :     0.000242  p :     0.005127
      px      :     0.002610
      py      :     0.002275
      dz2     :     0.000051  d :     0.000671
      dxz     :     0.000067
      dyz     :     0.000006
      dx2y2   :     0.000408
      dxy     :     0.000139
      f0      :     0.000001  f :     0.000027
      f+1     :     0.000000
      f-1     :     0.000001
      f+2     :     0.000001
      f-2     :     0.000000
      f+3     :     0.000014
      f-3     :     0.000010

  5 C s       :    -0.002453  s :    -0.002453
      pz      :     0.003370  p :     0.027065
      px      :     0.012152
      py      :     0.011542
      dz2     :     0.000428  d :     0.003710
      dxz     :     0.000042
      dyz     :     0.000025
      dx2y2   :     0.003182
      dxy     :     0.000033
      f0      :    -0.000016  f :    -0.000037
      f+1     :     0.000005
      f-1     :    -0.000017
      f+2     :    -0.000008
      f-2     :     0.000006
      f+3     :     0.000021
      f-3     :    -0.000030

  6 C s       :    -0.009638  s :    -0.009638
      pz      :    -0.005512  p :    -0.038193
      px      :    -0.025594
      py      :    -0.007087
      dz2     :     0.000890  d :     0.020038
      dxz     :     0.003799
      dyz     :    -0.000363
      dx2y2   :     0.006999
      dxy     :     0.008712
      f0      :     0.000188  f :     0.001351
      f+1     :     0.000049
      f-1     :     0.000117
      f+2     :     0.000060
      f-2     :     0.000035
      f+3     :     0.000778
      f-3     :     0.000124

  7 C s       :     0.059721  s :     0.059721
      pz      :     0.143009  p :     0.781486
      px      :     0.077171
      py      :     0.561307
      dz2     :     0.001116  d :     0.001721
      dxz     :     0.001015
      dyz     :    -0.000237
      dx2y2   :    -0.001418
      dxy     :     0.001245
      f0      :    -0.000384  f :    -0.003027
      f+1     :    -0.000058
      f-1     :    -0.000861
      f+2     :    -0.000663
      f-2     :    -0.000312
      f+3     :    -0.000406
      f-3     :    -0.000343

  8 C s       :    -0.006606  s :    -0.006606
      pz      :    -0.009999  p :    -0.017133
      px      :    -0.018559
      py      :     0.011425
      dz2     :     0.005326  d :     0.013620
      dxz     :    -0.000196
      dyz     :     0.000994
      dx2y2   :    -0.000416
      dxy     :     0.007913
      f0      :     0.000144  f :     0.001720
      f+1     :     0.000518
      f-1     :     0.000020
      f+2     :     0.000041
      f-2     :     0.000693
      f+3     :    -0.000028
      f-3     :     0.000332

  9 C s       :    -0.001579  s :    -0.001579
      pz      :    -0.000145  p :    -0.001231
      px      :    -0.002653
      py      :     0.001567
      dz2     :    -0.000079  d :    -0.000440
      dxz     :    -0.000101
      dyz     :    -0.000067
      dx2y2   :    -0.000117
      dxy     :    -0.000075
      f0      :    -0.000010  f :     0.000004
      f+1     :     0.000002
      f-1     :    -0.000001
      f+2     :    -0.000003
      f-2     :    -0.000013
      f+3     :     0.000030
      f-3     :    -0.000001

 10 F s       :     0.000047  s :     0.000047
      pz      :     0.000006  p :    -0.000026
      px      :     0.000018
      py      :    -0.000049
      dz2     :     0.000001  d :     0.000005
      dxz     :     0.000001
      dyz     :     0.000000
      dx2y2   :     0.000003
      dxy     :     0.000000
      f0      :     0.000000  f :     0.000000
      f+1     :     0.000000
      f-1     :     0.000000
      f+2     :     0.000000
      f-2     :     0.000000
      f+3     :     0.000000
      f-3     :     0.000000

 11 F s       :     0.000016  s :     0.000016
      pz      :    -0.000028  p :     0.000107
      px      :     0.000039
      py      :     0.000097
      dz2     :     0.000001  d :     0.000004
      dxz     :     0.000001
      dyz     :     0.000001
      dx2y2   :     0.000000
[...]
 19:    199.64   0.001551    7.84  0.002424  (-0.027763  0.009959 -0.039422)
 20:    205.48   0.001153    5.83  0.001751  (-0.023085  0.029337  0.018903)
 21:    220.39   0.000181    0.92  0.000257  ( 0.001387 -0.011437  0.011134)
 22:    239.53   0.000024    0.12  0.000031  ( 0.004658  0.001753 -0.002579)
 23:    246.37   0.000078    0.39  0.000098  (-0.005912  0.002392  0.007589)
 24:    260.47   0.000426    2.16  0.000511  ( 0.021979  0.005167 -0.001102)
 25:    276.79   0.001036    5.23  0.001168  (-0.030982  0.003881  0.013880)
 26:    292.07   0.000680    3.44  0.000726  ( 0.024069 -0.001055 -0.012085)
 27:    311.45   0.000015    0.08  0.000015  (-0.002839  0.002579  0.000791)
 28:    326.26   0.000043    0.22  0.000041  ( 0.004591  0.000353  0.004424)
 29:    346.30   0.000431    2.18  0.000388  ( 0.017444  0.004559  0.007943)
 30:    361.38   0.000050    0.25  0.000043  ( 0.006279  0.000109 -0.001924)
 31:    370.94   0.000351    1.77  0.000295  (-0.008677 -0.009038 -0.011755)
 32:    375.60   0.000239    1.21  0.000199  ( 0.010135  0.009221  0.003283)
 33:    379.60   0.000471    2.38  0.000387  (-0.018125 -0.007623  0.000496)
 34:    393.95   0.001244    6.29  0.000986  (-0.029462  0.009708  0.004853)
 35:    446.31   0.000039    0.20  0.000027  (-0.003155 -0.003907 -0.001383)
 36:    476.21   0.000541    2.73  0.000354  ( 0.007255 -0.006728 -0.016016)
 37:    502.66   0.005758   29.10  0.003575  ( 0.046223  0.032288 -0.019891)
 38:    512.56   0.004074   20.59  0.002480  (-0.035155  0.006100  0.034745)
 39:    531.36   0.006298   31.83  0.003699  (-0.058313  0.013264  0.011060)
 40:    550.96   0.001932    9.76  0.001094  (-0.030325 -0.008730 -0.009923)
 41:    572.52   0.010707   54.11  0.005836  ( 0.007404  0.045793 -0.060697)
 42:    591.00   0.015757   79.63  0.008320  ( 0.072540 -0.035900  0.042064)
 43:    600.04   0.001671    8.44  0.000869  (-0.024148  0.003154  0.016606)
 44:    607.20   0.004496   22.72  0.002311  (-0.005225 -0.006028  0.047403)
 45:    638.83   0.052673  266.19  0.025730  (-0.138635  0.073354 -0.033615)
 46:    654.67   0.004415   22.31  0.002105  (-0.013639 -0.005198  0.043492)
 47:    678.00   0.005532   27.96  0.002546  (-0.041768 -0.025834  0.011583)
 48:    709.47   0.005637   28.49  0.002479  (-0.040827 -0.025347 -0.013042)
 49:    722.26   0.012385   62.59  0.005351  ( 0.068921  0.019441 -0.014937)
 50:    765.41   0.005629   28.45  0.002295  (-0.003038 -0.018997  0.043874)
 51:    786.92   0.008188   41.38  0.003247  ( 0.048487  0.000957 -0.029920)
 52:    885.71   0.006310   31.89  0.002223  (-0.019527 -0.015025  0.040202)
 53:   1006.07   0.015144   76.53  0.004697  (-0.045429 -0.033879  0.038547)
 54:   1068.14   0.048270  243.94  0.014102  ( 0.042963 -0.110313  0.009367)
 55:   1115.45   0.018353   92.75  0.005135  (-0.060260  0.002648 -0.038682)
 56:   1124.85   0.068419  345.76  0.018981  ( 0.002502  0.122605 -0.062795)
 57:   1140.71   0.020346  102.82  0.005566  (-0.006890 -0.026680  0.069330)
 58:   1154.07   0.049176  248.52  0.013297  ( 0.047420 -0.011146 -0.104520)
 59:   1161.97   0.013496   68.20  0.003625  (-0.015241 -0.014559 -0.056394)
 60:   1165.69   0.043793  221.31  0.011724  ( 0.014713  0.016631 -0.105975)
 61:   1176.01   0.236472  1195.03  0.062750  ( 0.010193 -0.171098 -0.182678)
 62:   1179.87   0.042331  213.92  0.011196  (-0.020548 -0.089937 -0.051818)
 63:   1196.70   0.071796  362.83  0.018722  ( 0.088085 -0.100850  0.028148)
 64:   1199.59   0.049472  250.01  0.012870  (-0.001051  0.022220 -0.111242)
 65:   1202.13   0.005541   28.00  0.001439  ( 0.023142 -0.009565  0.028486)
 66:   1219.35   0.004709   23.80  0.001205  (-0.017016  0.030033 -0.003684)
 67:   1275.79   0.011992   60.60  0.002933  (-0.042834 -0.022994  0.023869)
 68:   1296.95   0.042432  214.43  0.010210  ( 0.072769  0.016158 -0.068215)
 69:   1303.57   0.013770   69.59  0.003296  ( 0.052964  0.020340 -0.008806)
 70:   1377.72   0.000897    4.53  0.000203  (-0.007035 -0.002310 -0.012181)
 71:   1414.88   0.018561   93.80  0.004094  (-0.057992  0.024814 -0.010720)
 72:   1428.76   0.016536   83.57  0.003612  ( 0.002100 -0.032795 -0.050317)
 73:   1845.21   0.094639  478.27  0.016005  (-0.046948 -0.099505 -0.062450)
 74:   3649.21   0.050260  253.99  0.004298  (-0.057570  0.006687  0.030642)

* The epsilon (eps) is given for a Dirac delta lineshape.
** The dipole moment derivative (T) already includes vibrational overlap.

The first frequency considered to be a vibration is 6
The total number of vibrations considered is 69


--------------------------
THERMOCHEMISTRY AT 298.15K
--------------------------

Temperature         ...   298.15 K
Pressure            ...     1.00 atm
Total Mass          ...   395.07 AMU
Quasi RRHO          ...     True
Cut-Off Frequency   ...     1.00 cm^-1

Throughout the following assumptions are being made:
  (1) The electronic state is orbitally nondegenerate
      but the spin degeneracy is treated
  (2) There are no thermally accessible electronically excited states
  (3) Hindered rotations indicated by low frequency modes are not
      treated as such but are treated as vibrations and this may
      cause some error
  (4) All equations used are the standard statistical mechanics
      equations for an ideal gas
  (5) All vibrations are strictly harmonic

freq.       9.94  E(vib)   ...       0.58 
freq.      15.54  E(vib)   ...       0.57 
freq.      34.43  E(vib)   ...       0.54 
freq.      43.01  E(vib)   ...       0.53 
freq.      45.69  E(vib)   ...       0.53 
freq.      57.54  E(vib)   ...       0.51 
freq.      68.19  E(vib)   ...       0.50 
freq.      77.29  E(vib)   ...       0.49 
freq.      99.78  E(vib)   ...       0.46 
freq.     121.79  E(vib)   ...       0.44 
freq.     154.98  E(vib)   ...       0.40 
freq.     163.76  E(vib)   ...       0.39 
freq.     187.46  E(vib)   ...       0.36 
freq.     199.64  E(vib)   ...       0.35 
freq.     205.48  E(vib)   ...       0.35 
freq.     220.39  E(vib)   ...       0.33 
freq.     239.53  E(vib)   ...       0.31 
freq.     246.37  E(vib)   ...       0.31 
freq.     260.47  E(vib)   ...       0.30 
freq.     276.79  E(vib)   ...       0.28 
freq.     292.07  E(vib)   ...       0.27 
freq.     311.45  E(vib)   ...       0.25 
freq.     326.26  E(vib)   ...       0.24 
freq.     346.30  E(vib)   ...       0.23 
freq.     361.38  E(vib)   ...       0.22 
freq.     370.94  E(vib)   ...       0.21 
freq.     375.60  E(vib)   ...       0.21 
freq.     379.60  E(vib)   ...       0.21 
freq.     393.95  E(vib)   ...       0.20 
freq.     446.31  E(vib)   ...       0.17 
freq.     476.21  E(vib)   ...       0.15 
freq.     502.66  E(vib)   ...       0.14 
freq.     512.56  E(vib)   ...       0.13 
freq.     531.36  E(vib)   ...       0.13 
freq.     550.96  E(vib)   ...       0.12 
freq.     572.52  E(vib)   ...       0.11 
freq.     591.00  E(vib)   ...       0.10 
freq.     600.04  E(vib)   ...       0.10 
freq.     607.20  E(vib)   ...       0.10 
freq.     638.83  E(vib)   ...       0.09 
freq.     654.67  E(vib)   ...       0.08 
freq.     678.00  E(vib)   ...       0.08 
freq.     709.47  E(vib)   ...       0.07 
freq.     722.26  E(vib)   ...       0.07 
freq.     765.41  E(vib)   ...       0.06 
freq.     786.92  E(vib)   ...       0.05 
freq.     885.71  E(vib)   ...       0.04 
freq.    1006.07  E(vib)   ...       0.02 
freq.    1068.14  E(vib)   ...       0.02 
freq.    1115.45  E(vib)   ...       0.01 
freq.    1124.85  E(vib)   ...       0.01 
freq.    1140.71  E(vib)   ...       0.01 
freq.    1154.07  E(vib)   ...       0.01 
freq.    1161.97  E(vib)   ...       0.01 
freq.    1165.69  E(vib)   ...       0.01 
freq.    1176.01  E(vib)   ...       0.01 
freq.    1179.87  E(vib)   ...       0.01 
freq.    1196.70  E(vib)   ...       0.01 
freq.    1199.59  E(vib)   ...       0.01 
freq.    1202.13  E(vib)   ...       0.01 
freq.    1219.35  E(vib)   ...       0.01 
freq.    1275.79  E(vib)   ...       0.01 
freq.    1296.95  E(vib)   ...       0.01 
freq.    1303.57  E(vib)   ...       0.01 
freq.    1377.72  E(vib)   ...       0.01 
freq.    1414.88  E(vib)   ...       0.00 
freq.    1428.76  E(vib)   ...       0.00 
freq.    1845.21  E(vib)   ...       0.00 
freq.    3649.21  E(vib)   ...       0.00 

------------
INNER ENERGY
------------

The inner energy is: U= E(el) + E(ZPE) + E(vib) + E(rot) + E(trans)
    E(el)   - is the total energy from the electronic structure calculation
              = E(kin-el) + E(nuc-el) + E(el-el) + E(nuc-nuc)
    E(ZPE)  - the the zero temperature vibrational energy from the frequency calculation
    E(vib)  - the the finite temperature correction to E(ZPE) due to population
              of excited vibrational states
    E(rot)  - is the rotational thermal energy
    E(trans)- is the translational thermal energy

Summary of contributions to the inner energy U:
Electronic energy                ...  -1853.56924896 Eh
Zero point energy                ...      0.10666471 Eh      66.93 kcal/mol
Thermal vibrational correction   ...      0.02004655 Eh      12.58 kcal/mol
Thermal rotational correction    ...      0.00141627 Eh       0.89 kcal/mol
Thermal translational correction ...      0.00141627 Eh       0.89 kcal/mol
-----------------------------------------------------------------------
Total thermal energy                  -1853.43970516 Eh


Summary of corrections to the electronic energy:
(perhaps to be used in another calculation)
Total thermal correction                  0.02287910 Eh      14.36 kcal/mol
Non-thermal (ZPE) correction              0.10666471 Eh      66.93 kcal/mol
-----------------------------------------------------------------------
Total correction                          0.12954381 Eh      81.29 kcal/mol


--------
ENTHALPY
--------

The enthalpy is H = U + kB*T
                kB is Boltzmann's constant
Total thermal energy              ...  -1853.43970516 Eh 
Thermal Enthalpy correction       ...      0.00094421 Eh       0.59 kcal/mol
-----------------------------------------------------------------------
Total Enthalpy                    ...  -1853.43876095 Eh


Note: Only C1 symmetry has been detected, increase convergence thresholds 
      if your molecule has a higher symmetry. Symmetry factor of 1.0 is   
      used for the rotational entropy correction. 
 

Note: Rotational entropy computed according to Herzberg 
Infrared and Raman Spectra, Chapter V,1, Van Nostrand Reinhold, 1945 
Point Group:  C1, Symmetry Number:   1  
Rotational constants in cm-1:     0.020404     0.004108     0.004067 

Vibrational entropy computed according to the QRRHO of S. Grimme
Chem.Eur.J. 2012 18 9955 using a reference frequency of 100.0 cm-1


-------
ENTROPY
-------

The entropy contributions are T*S = T*(S(el)+S(vib)+S(rot)+S(trans))
     S(el)   - electronic entropy
     S(vib)  - vibrational entropy
     S(rot)  - rotational entropy
     S(trans)- translational entropy
The entropies will be listed as multiplied by the temperature to get
units of energy

Electronic entropy                ...      0.00065446 Eh      0.41 kcal/mol
Vibrational entropy               ...      0.03677150 Eh     23.07 kcal/mol
Rotational entropy                ...      0.01654106 Eh     10.38 kcal/mol
Translational entropy             ...      0.02081703 Eh     13.06 kcal/mol
-----------------------------------------------------------------------
Final entropy term                ...      0.07478405 Eh     46.93 kcal/mol

In case the symmetry of your molecule has not been determined correctly
or in case you have a reason to use a different symmetry number we print 
out the resulting rotational entropy values for sn=1,12:

 non-linear molecules -----------------------------------
|  sn= 1 | S(rot)=       0.01654106 Eh     10.38 kcal/mol|
|  sn= 2 | S(rot)=       0.01588661 Eh      9.97 kcal/mol|
|  sn= 3 | S(rot)=       0.01550377 Eh      9.73 kcal/mol|
|  sn= 4 | S(rot)=       0.01523215 Eh      9.56 kcal/mol|
|  sn= 5 | S(rot)=       0.01502146 Eh      9.43 kcal/mol|
|  sn= 6 | S(rot)=       0.01484932 Eh      9.32 kcal/mol|
|  sn= 7 | S(rot)=       0.01470377 Eh      9.23 kcal/mol|
|  sn= 8 | S(rot)=       0.01457769 Eh      9.15 kcal/mol|
|  sn= 9 | S(rot)=       0.01446649 Eh      9.08 kcal/mol|
|  sn=10 | S(rot)=       0.01436701 Eh      9.02 kcal/mol|
|  sn=11 | S(rot)=       0.01427702 Eh      8.96 kcal/mol|
|  sn=12 | S(rot)=       0.01419486 Eh      8.91 kcal/mol|
 linear molecules ---------------------------------------
|  Dinfh | S(rot)=       0.01052347 Eh      6.60 kcal/mol|
|  Cinfv | S(rot)=       0.01117792 Eh      7.01 kcal/mol|
 --------------------------------------------------------


-------------------
GIBBS FREE ENERGY
-------------------

The Gibbs free energy is G = H - T*S

Total enthalpy                    ...  -1853.43876095 Eh 
Total entropy correction          ...     -0.07478405 Eh    -46.93 kcal/mol
-----------------------------------------------------------------------
Final Gibbs free energy         ...  -1853.51354500 Eh

For completeness - the Gibbs free energy minus the electronic energy
G-E(el)                           ...      0.05570396 Eh     34.95 kcal/mol


Maximum memory used throughout the entire PROP-calculation: 545.8 MB

--------------------------------
SUGGESTED CITATIONS FOR THIS RUN
--------------------------------

Below you find a list of papers that are relevant to this ORCA run
We neither can nor want to force you to cite these papers, but we appreciate if you do
You receive ORCA, which is the product of decades of hard work by many enthusiastic individuals, for free
The only thing we kindly ask in return is that you cite our papers,
We deeply appreciate it, if you show your appreciation for ORCA by not just citing the generic ORCA reference.

Please note that relegating all ORCA citations to the supporting information does *not* help us.
SI sections are not indexed - citations you put there will not count into any citation statistics
But we need these citations in order to attract the funding resources that allow us to do what we are doing

Therefore, if you are a happy ORCA user, please consider citing a few of the papers listed below in the main body of your paper

In addition to the list printed below, the program has created the file rf_mecn_freq_r2s_C6_P_B.bibtex that contains the list in bibtex format
You can import this file easily into all common literature databanks and citation aid programs


List of essential papers. We consider these as the minimum necessary citations

  1. Neese,F.
     Software update: the ORCA program system, version 5.0
     WIRES Comput. Molec. Sci., 2022 12(1)e1606
     doi.org/10.1002/wcms.1606

List of papers to cite with high priority. The work reported in these papers was absolutely
necessary for this run to complete.
Our perspective: the developers of density functionals and basis sets usually get cited in chemistry papers
Good! But without the algorithms to do something with them, the functionals or basis sets would not do anything.
Hence, in our opinion, the algorithm design and method developments papers are equally worthy of getting cited

  1. Neese,F.
     An improvement of the resolution of the identity approximation for the formation of the Coulomb matrix
     J. Comp. Chem., 2003 24(14)1740-1747
     doi.org/10.1002/jcc.10318
  2. Neese,F.; Wennmohs,F.; Hansen,A.; Becker,U.
     Efficient, approximate and parallel Hartree-Fock and hybrid DFT calculations. A 'chain-of-spheres' algorithm for the Hartree-Fock exchange
     Chem. Phys., 2009 356(1-3)98-109
     doi.org/10.1016/j.chemphys.2008.10.036
  3. Bykov,D.; Petrenko,T.; Izsak,R.; Kossmann,S.; Becker,U.; Valeev,E.; Neese,F.
     Efficient implementation of the analytic second derivatives of Hartree-Fock and hybrid DFT energies: a detailed analysis of different approximations
     Molec. Phys., 2015 113 1961-1977
     doi.org/10.1080/00268976.2015.1025114
  4. Garcia-Rates,M.; Neese,F.
     Efficient implementation of the analytical second derivatives of hartree-fock and hybrid DFT energies within the framework of the conductor-like polarizable continuum model
     J. Comput. Chem., 2019 40 1816-1828
     doi.org/10.1002/jcc.25833
  5. Garcia-Rates,M.; Neese,F.
     Effect of the Solute Cavity on the Solvation Energy and its Derivatives within the Framework of the Gaussian Charge Scheme
     J. Comput. Chem., 2020 41 922-939
     doi.org/10.1002/jcc.26139
  6. Helmich-Paris,B.; de Souza,B.; Neese,F.; Izsák,R.
     An improved chain of spheres for exchange algorithm
     J. Chem. Phys., 2021 155 104109
     doi.org/doi: 10.1063/5.0058766.
  7. Neese,F.
     The SHARK Integral Generation and Digestion System
     J. Comp. Chem., 2022  1-16
     doi.org/10.1002/jcc.26942
  8. Lehtola,S.; Steigemann,C.; Oliveira,M.; Marques,M.
     Recent developments in Libxc - A comprehensive library of functionals for density functional theory
     Software X, 2018 7 
     doi.org/10.1016/j.softx.2017.11.002
  9. Grimme,S.; Antony,J.; Ehrlich,S.; Krieg,H.
     A consistent and accurate ab initio parametrization of density functional dispersion correction (DFT-D) for the 94 elements H-Pu
     J. Chem. Phys., 2010 132 154104
     doi.org/10.1063/1.3382344
 10. Grimme,S.; Ehrlich,S.; Goerigk,L.
     Effect of the damping function in dispersion corrected density functional theory
     J. Comput. Chem., 2011 32(7)1456-1465
     doi.org/10.1002/jcc.21759
 11. Bursch,M.; Neugebauer,H.; Ehlert,S.; Grimme,S.
     Dispersion corrected r2SCAN based global hybrid functionals: r2SCANh, r2SCAN0, and r2SCAN50
     J. Phys. Chem., 2022 156(13)134105
     doi.org/10.1063/5.0086040

List of suggested additional citations. These are papers that are important in the 'surrounding' of 
of this run, or papers that preceded the highly important papers. If you like your results we are grateful for a citation.

  1. Izsak,R.; Neese,F.
     An overlap fitted chain of spheres exchange method
     J. Chem. Phys., 2011 135 144105
     doi.org/10.1063/1.3646921
  2. Izsak,R.; Hansen,A.; Neese,F.
     The resolution of identity and chain of spheres approximations for the LPNO-CCSD singles Fock term
     Molec. Phys., 2012 110 2413-2417
     doi.org/10.1080/00268976.2012.687466
  3. Neese,F.
     The ORCA program system
     WIRES Comput. Molec. Sci., 2012 2(1)73-78
     doi.org/10.1002/wcms.81
  4. Izsak,R.; Neese,F.; Klopper,W.
     Robust fitting techniques in the chain of spheres approximation to the Fock exchange: The role of the complementary space
     J. Chem. Phys., 2013 139 
     doi.org/10.1063/1.4819264
  5. Neese,F.
     Software update: the ORCA program system, version 4.0
     WIRES Comput. Molec. Sci., 2018 8(1)1-6
     doi.org/10.1002/wcms.1327
  6. Neese,F.; Wennmohs,F.; Becker,U.; Riplinger,C.
     The ORCA quantum chemistry program package
     J. Chem. Phys., 2020 152 Art. No. L224108
     doi.org/10.1063/5.0004608
  7. Wittmann,L.; Neugebauer,H.; Grimme,S.; Bursch,M.
     Dispersion-corrected r2SCAN based double-hybrid functionals
     J. Chem. Phys., 2023 159(22)224103
     doi.org/10.1063/5.0174988

List of optional additional citations

  1. Neese,F.
     Approximate second-order SCF convergence for spin unrestricted wavefunctions
     Chem. Phys. Lett., 2000 325(1-3)93-98
     doi.org/10.1016/s0009-2614(00)00662-x

Timings for individual modules:

Sum of individual times          ...     1444.708 sec (=  24.078 min)
Startup calculation              ...        3.830 sec (=   0.064 min)   0.3 %
SCF iterations                   ...       84.975 sec (=   1.416 min)   5.9 %
Property integrals               ...      453.062 sec (=   7.551 min)  31.4 %
SCF Response                     ...      623.411 sec (=  10.390 min)  43.2 %
Property calculations            ...      279.430 sec (=   4.657 min)  19.3 %
                             ****ORCA TERMINATED NORMALLY****
TOTAL RUN TIME: 0 days 0 hours 24 minutes 5 seconds 608 msec
