
                                 *****************
                                 * O   R   C   A *
                                 *****************

                                            #,                                       
                                            ###                                      
                                            ####                                     
                                            #####                                    
                                            ######                                   
                                           ########,                                 
                                     ,,################,,,,,                         
                               ,,#################################,,                 
                          ,,##########################################,,             
                       ,#########################################, ''#####,          
                    ,#############################################,,   '####,        
                  ,##################################################,,,,####,       
                ,###########''''           ''''###############################       
              ,#####''   ,,,,##########,,,,          '''####'''          '####       
            ,##' ,,,,###########################,,,                        '##       
           ' ,,###''''                  '''############,,,                           
         ,,##''                                '''############,,,,        ,,,,,,###''
      ,#''                                            '''#######################'''  
     '                                                          ''''####''''         
             ,#######,   #######,   ,#######,      ##                                
            ,#'     '#,  ##    ##  ,#'     '#,    #''#        ,####,   ,####,        
            ##       ##  ##   ,#'  ##            #'  '#       #'       #'  '#        
            ##       ##  #######   ##           ,######,      #####,   #    #        
            '#,     ,#'  ##    ##  '#,     ,#' ,#      #,     #,   #   #,  ,#        
             '#######'   ##     ##  '#######'  #'      '#     '####' # '####'        



                #########################################################
                #                        -***-                          #
                #          Department of theory and spectroscopy        #
                #                                                       #
                #                      Frank Neese                      #
                #                                                       #
                #     Directorship, Architecture, Infrastructure        #
                #                    SHARK, DRIVERS                     #
                #        Core code/Algorithms in most modules           #
                #                                                       #
                #        Max Planck Institute fuer Kohlenforschung      #
                #                Kaiser Wilhelm Platz 1                 #
                #                 D-45470 Muelheim/Ruhr                 #
                #                      Germany                          #
                #                                                       #
                #                  All rights reserved                  #
                #                        -***-                          #
                #########################################################


                         Program Version 6.0.1  -  RELEASE   -


 With contributions from (in alphabetic order):
[Max-Planck-Institut fuer Kohlenforschung]                               
  Daniel Aravena         : Magnetic Suceptibility                        
  Michael Atanasov       : Ab Initio Ligand Field Theory (pilot matlab implementation)
  Alexander A. Auer      : GIAO ZORA, VPT2 properties, NMR spectrum      
  Ute Becker             : All parallelization in ORCA, NUMFREQ, NUMCALC 
  Giovanni Bistoni       : ED, misc. LED, open-shell LED, HFLD           
  Martin Brehm           : Molecular dynamics                            
  Dmytro Bykov           : pre 5.0 version of the SCF Hessian            
  Marcos Casanova-Páez   : Triplet and SCS-CIS(D). UHF-(DLPNO)-IP/EA/STEOM-CCSD. UHF-CVS-IP/STEOM-CCSD   
  Vijay G. Chilkuri      : MRCI spin determinant printing, contributions to CSF-ICE 
  Pauline Colinet        : FMM embedding                                 
  Dipayan Datta          : RHF DLPNO-CCSD density                        
  Achintya Kumar Dutta   : EOM-CC, STEOM-CC                              
  Nicolas Foglia         : Exact transition moments, OPA infrastructure, MCD improvements    
  Dmitry Ganyushin       : Spin-Orbit,Spin-Spin,Magnetic field MRCI      
  Miquel Garcia-Rates    : C-PCM and meta-GGA Hessian, CCSD/C-PCM, Gaussian charge scheme 
  Tiago L. C. Gouveia    : GS-ROHF, GS-ROCIS                             
  Yang Guo               : DLPNO-NEVPT2, F12-NEVPT2, CIM, IAO-localization        
  Andreas Hansen         : Spin unrestricted coupled pair/coupled cluster methods 
  Ingolf Harden          : AUTO-CI MPn and infrastructure                
  Benjamin Helmich-Paris : MC-RPA, TRAH-(SCF,CASSCF), AVAS, COSX integrals, SCF dyn. polar. 
  Lee Huntington         : MR-EOM, pCC                                   
  Robert Izsak           : Overlap fitted RIJCOSX, COSX-SCS-MP3, EOM     
  Riya Kayal             : Wick's Theorem for AUTO-CI, AUTO-CI UHF-CCSDT 
  Emily Kempfer          : AUTO-CI, RHF CISDT and CCSDT                  
  Christian Kollmar      : KDIIS, OOCD, Brueckner-CCSD(T), CCSD density, CASPT2, CASPT2-K, improved NEVPT2 
  Axel Koslowski         : Symmetry handling                             
  Simone Kossmann        : meta-GGA functionals, TD-DFT gradient, OOMP2, (MP2 Hessian; deprecated post 5.0) 
  Lucas Lang             : DCDCAS                                        
  Marvin Lechner         : AUTO-CI (C++ implementation), FIC-MRCC        
  Spencer Leger          : CASSCF response                               
  Dagmar Lenk            : GEPOL surface, SMD, ORCA-2-JSON               
  Dimitrios Liakos       : Extrapolation schemes; Compound Job, initial MDCI parallelization 
  Dimitrios Manganas     : Further ROCIS development; embedding schemes. LFT, Crystal Embedding 
  Dimitrios Pantazis     : SARC Basis sets                               
  Anastasios Papadopoulos: AUTO-CI, single reference methods and gradients 
  Taras Petrenko         : pre 6.0 DFT Hessian and TD-DFT gradient, (ASA, deprecated), ECA, 1-Electron XAS/XES, NRVS 
  Peter Pinski           : DLPNO-MP2, DLPNO-MP2 Gradient                 
  Christoph Reimann      : Effective Core Potentials                     
  Marius Retegan         : Local ZFS, SOC                                
  Christoph Riplinger    : Optimizer, TS searches, QM/MM, DLPNO-CCSD(T), (RO)-DLPNO pert. Triples 
  Michael Roemelt        : Original ROCIS implementation                 
  Masaaki Saitow         : Open-shell DLPNO-CCSD energy and density      
  Barbara Sandhoefer     : DKH picture change effects                    
  Kantharuban Sivalingam : CASSCF convergence/infrastructure, NEVPT2 and variants, FIC-MRCI 
  Bernardo de Souza      : ESD, SOC TD-DFT                               
  Georgi L. Stoychev     : AutoAux, RI-MP2 NMR, DLPNO-MP2 response, X2C  
  Van Anh Tran           : RI-MP2 g-tensors                              
  Willem Van den Heuvel  : Paramagnetic NMR                              
  Zikuan Wang            : NOTCH, Electric field optimization            
  Frank Wennmohs         : Technical directorship and infrastructure     
  Hang Xu                : AUTO-CI-Response properties                   
                                                                         
[FACCTs GmbH]                                                            
  Markus Bursch, Miquel Garcia-Rates, Christoph Riplinger, Bernardo de Souza, Georgi L. Stoychev 
                                                                 
  APM, Basis sets (HGBS, AHGBS, def-TZVP (Ac-Lr), def2-XVPD (La-Lu)), CI-OPT, improved COSX, DLPNO-Multilevel,           
  DOCKER, DRACO, updates on ESD, GOAT, IRC, LR-CPCM, MBIS, meta-GGA TD-DFT gradient, ML-optimized integration grids, 
  MM, NACMEs, nearIR, NEB, NEB-TS, NL-DFT gradient (VV10), 2- and 3-layer-ONIOM, interface openCOSMO-RS, QMMM,   
  Crystal-QMMM, SF, symmetry and pop. for TD-DFT, r2SCAN hybrids, SOLVATOR                                   
                                                                         
[Other institutions]                                                     
  V. Asgeirsson          : NEB                                           
  Christoph Bannwarth    : sTDA-DFT, sTD-DFT, PBEh-3c, B97-3c, D3        
  Sebastian Ehlert       : rSCAN, r2SCAN, r2SCAN-3c, D4, dhf basis sets  
  Marvin Friede          : D4 for Fr, Ra, Ac-Lr                          
  Lars Goerigk           : TD-DFT with DH, B97 family of functionals     
  Stefan Grimme          : VdW corrections, initial TS optimization, DFT functionals, gCP, sTDA/sTD-DF 
  Waldemar Hujo          : DFT-NL                                        
  H. Jonsson             : NEB                                           
  Holger Kruse           : gCP                                           
  Marcel Mueller         : wB97X-3c, vDZP basis set                      
  Hagen Neugebauer       : wr2SCAN                                       
  Tobias Risthaus        : range-separated hybrid DFT                    
  Lukas Wittmann         : regularized MP2, r2SCAN double-hybrids, wr2SCAN        
                                                                         
We gratefully acknowledge several colleagues who have allowed us to      
interface, adapt or use parts of their codes:                            
  Ed Valeev, F. Pavosevic, A. Kumar             : LibInt (2-el integral package), F12 methods 
  Garnet Chan, S. Sharma, J. Yang, R. Olivares  : DMRG                   
  Ulf Ekstrom                                   : XCFun DFT Library      
  Mihaly Kallay                                 : mrcc  (arbitrary order and MRCC methods)
  Frank Weinhold                                : gennbo (NPA and NBO analysis)           
  Simon Mueller                                 : openCOSMO-RS                            
  Christopher J. Cramer and Donald G. Truhlar   : smd solvation model                     
  S Lehtola, MJT Oliveira, MAL Marques          : LibXC Library                           
  Liviu Ungur et al                             : ANISO software                          


 Your calculation uses the libint2 library for the computation of 2-el integrals
 For citations please refer to: http://libint.valeyev.net

 Your ORCA version has been built with support for libXC version: 6.2.2
 For citations please refer to: https://libxc.gitlab.io

 This ORCA versions uses:
   CBLAS   interface :  Fast vector & matrix operations
   LAPACKE interface :  Fast linear algebra routines
   SCALAPACK package :  Parallel linear algebra routines
   Shared memory     :  Shared parallel matrices
   BLAS/LAPACK       :  OpenBLAS 0.3.27  USE64BITINT DYNAMIC_ARCH NO_AFFINITY SkylakeX SINGLE_THREADED
        Core in use  :  SkylakeX
   Copyright (c) 2011-2014, The OpenBLAS Project


NOTE: MaxCore=8000 MB was set to SCF,MP2,MDCI,CIPSI,MRCI and CIS
      => If you want to overwrite this, your respective input block should be placed after the MaxCore statement
Your calculation utilizes the atom-pairwise dispersion correction
with the Becke-Johnson damping scheme (D3BJ)


Your calculation utilizes the SMD solvation module
Please cite in your paper:
A.V. Marenich, C.J. Cramer, D.G. Truhlar J. Phys. Chem. B, 113, (2009), 6378 

Warning: RI is on but no J-basis has been assigned. Assigning Def2/J (nothing to worry about!)
================================================================================

----- Orbital basis set information -----
Your calculation utilizes the basis: def2-TZVP
   F. Weigend and R. Ahlrichs, Phys. Chem. Chem. Phys. 7, 3297 (2005).

----- AuxJ basis set information -----
Your calculation utilizes the auxiliary basis: def2/J
   F. Weigend, Phys. Chem. Chem. Phys. 8, 1057 (2006).

================================================================================
                                        WARNINGS
                       Please study these warnings very carefully!
================================================================================



WARNING: SCAN, rSCAN, or r2SCAN functional requested.
  ===> : libXC variant has now been activated.



WARNING: Geometry Optimization
  ===> : Switching off AutoStart
         For restart on a previous wavefunction, please use MOREAD

================================================================================
                                       INPUT FILE
================================================================================
NAME = rf_mecn_opt_r2s_P_B.inp
|  1> !r2scanh def2-TZVP opt d3 TightSCF SlowConv defgrid2
|  2>  
|  3> %pal
|  4> nprocs 20
|  5> end
|  6>  
|  7> %scf
|  8> MaxIter 1500
|  9> end
| 10>  
| 11> %maxcore 8000
| 12>  
| 13> !CPCM
| 14> %cpcm smd true
| 15> SMDsolvent "ACETONITRILE"
| 16> end
| 17>  
| 18> * xyz 0 1
| 19> 6        4.790427000     -0.033865800     -0.529943200
| 20> 8        5.449345000     -1.206924000     -0.894594600
| 21> 8        4.978223000      1.323071000     -0.737377200
| 22> 6        3.506687600     -0.338741600      0.376153800
| 23> 6        2.222300000      0.400524800     -0.110681600
| 24> 6        0.900506800     -0.386389800      0.175703000
| 25> 6       -0.395261200      0.487294000      0.065549000
| 26> 6       -1.705693600     -0.364773800     -0.068373600
| 27> 6       -3.005136200      0.445344800      0.258164000
| 28> 6       -4.319880200     -0.214526000     -0.270540800
| 29> 9        3.211587400     -1.692050400      0.412735200
| 30> 9        3.741061800      0.055285800      1.689948800
| 31> 9        2.125696800      1.616867800      0.483236600
| 32> 9        2.314152400      0.589704000     -1.455769200
| 33> 9        0.794028800     -1.413561400     -0.700839000
| 34> 9        0.958350600     -0.884509000      1.435093400
| 35> 9       -0.498373400      1.260265600      1.173340200
| 36> 9       -0.299075000      1.289512600     -1.020910800
| 37> 9       -1.641790400     -1.418189000      0.779523800
| 38> 9       -1.792381400     -0.831391600     -1.336863600
| 39> 9       -2.918792200      1.679227200     -0.295171200
| 40> 9       -3.119771000      0.573779800      1.598579800
| 41> 9       -4.383115600     -1.504377600      0.089127600
| 42> 9       -5.365669800      0.430528600      0.260394200
| 43> 9       -4.396020400     -0.128550600     -1.602941800
| 44> 1        5.903122371     -2.014774547     -1.145719253
| 45> *
| 46> 
| 47>                          ****END OF INPUT****
================================================================================

                       *****************************
                       * Geometry Optimization Run *
                       *****************************

Geometry optimization settings:
Update method            Update   .... BFGS
Choice of coordinates    CoordSys .... (2022) Redundant Internals
Initial Hessian          InHess   .... Almloef's Model
Max. no of cycles        MaxIter  .... 78

Convergence Tolerances:
Energy Change            TolE     ....  5.0000e-06 Eh
Max. Gradient            TolMAXG  ....  3.0000e-04 Eh/bohr
RMS Gradient             TolRMSG  ....  1.0000e-04 Eh/bohr
Max. Displacement        TolMAXD  ....  4.0000e-03 bohr
RMS Displacement         TolRMSD  ....  2.0000e-03 bohr
Strict Convergence                .... False

------------------------------------------------------------------------------
                        ORCA OPTIMIZATION COORDINATE SETUP
------------------------------------------------------------------------------

The optimization will be done in redundant internal coordinates (2022)
Making redundant internal coordinates   ...  (2022 redundants) done
Evaluating the initial hessian          ...  (Almloef) done
Evaluating the coordinates              ...  done
Calculating the B-matrix                .... done
Calculating the G-matrix                .... done
Diagonalizing the G-matrix              .... done
Small eigenvalue found = 4.716e-03
Small eigenvalue found = 1.264e-02
Small eigenvalue found = 2.728e-02
The first mode is                       ....   42
The number of degrees of freedom        ....   72

    -----------------------------------------------------------------
                    Redundant Internal Coordinates


    -----------------------------------------------------------------
         Definition                    Initial Value    Approx d2E/dq
    -----------------------------------------------------------------
      1. B(O   1,C   0)                  1.3940         0.551454   
      2. B(O   2,C   0)                  1.3855         0.568952   
      3. B(C   3,C   0)                  1.6006         0.288221   
      4. B(C   4,C   3)                  1.5599         0.334759   
      5. B(C   5,C   4)                  1.5647         0.328824   
      6. B(C   6,C   5)                  1.5667         0.326486   
      7. B(C   7,C   6)                  1.5688         0.323927   
      8. B(C   8,C   7)                  1.5657         0.327637   
      9. B(C   9,C   8)                  1.5632         0.330714   
     10. B(F  10,C   3)                  1.3856         0.528443   
     11. B(F  11,C   3)                  1.3915         0.517117   
     12. B(F  12,C   4)                  1.3570         0.586881   
     13. B(F  13,C   4)                  1.3614         0.577499   
     14. B(F  14,C   5)                  1.3545         0.592326   
     15. B(F  15,C   5)                  1.3556         0.590092   
     16. B(F  16,C   6)                  1.3547         0.591865   
     17. B(F  17,C   6)                  1.3540         0.593567   
     18. B(F  18,C   7)                  1.3538         0.593973   
     19. B(F  19,C   7)                  1.3544         0.592672   
     20. B(F  20,C   8)                  1.3550         0.591238   
     21. B(F  21,C   8)                  1.3514         0.599114   
     22. B(F  22,C   9)                  1.3406         0.623533   
     23. B(F  23,C   9)                  1.3385         0.628179   
     24. B(F  24,C   9)                  1.3373         0.630929   
     25. B(H  25,O   1)                  0.9600         0.519956   
     26. A(O   2,C   0,C   3)          112.3347         0.371210   
     27. A(O   1,C   0,O   2)          136.1318         0.413163   
     28. A(O   1,C   0,C   3)          111.5249         0.369222   
     29. L(C   0,O   1,H  25,C   3, 2) 180.0000         0.362759   
     30. L(C   0,O   1,H  25,C   3, 1) 180.0000         0.362759   
     31. A(C   4,C   3,F  11)          107.4072         0.373095   
     32. A(C   0,C   3,F  11)          110.2099         0.363632   
     33. A(F  10,C   3,F  11)          106.7094         0.399684   
     34. A(C   4,C   3,F  10)          107.2033         0.374492   
     35. A(C   0,C   3,F  10)          111.8265         0.364982   
     36. A(C   0,C   3,C   4)          113.1687         0.341363   
     37. A(C   3,C   4,F  12)          110.2926         0.381351   
     38. A(F  12,C   4,F  13)          108.2194         0.415201   
     39. A(C   3,C   4,C   5)          113.5839         0.349005   
     40. A(C   5,C   4,F  13)          107.9208         0.379109   
     41. A(C   3,C   4,F  13)          108.5818         0.380286   
     42. A(C   5,C   4,F  12)          108.0911         0.380169   
     43. A(F  14,C   5,F  15)          109.0206         0.417483   
     44. A(C   4,C   5,C   6)          113.9128         0.347536   
     45. A(C   6,C   5,F  15)          107.7906         0.380059   
     46. A(C   4,C   5,F  15)          108.5900         0.380529   
     47. A(C   6,C   5,F  14)          108.2026         0.380308   
     48. A(C   4,C   5,F  14)          109.2282         0.380779   
     49. A(C   5,C   6,C   7)          113.2023         0.346660   
     50. A(F  16,C   6,F  17)          108.8752         0.417862   
     51. A(C   7,C   6,F  17)          108.2186         0.379927   
     52. A(C   5,C   6,F  17)          109.1523         0.380446   
     53. A(C   7,C   6,F  16)          108.4284         0.379738   
     54. A(C   5,C   6,F  16)          108.8835         0.380256   
     55. A(C   8,C   7,F  18)          108.1296         0.380723   
     56. A(C   6,C   7,F  18)          109.2524         0.379972   
     57. A(F  18,C   7,F  19)          108.7561         0.418014   
     58. A(C   6,C   7,C   8)          113.2298         0.346865   
     59. A(C   8,C   7,F  19)          108.6915         0.380579   
     60. A(C   6,C   7,F  19)          108.6955         0.379828   
     61. A(F  20,C   8,F  21)          108.8987         0.418476   
     62. A(C   9,C   8,F  21)          107.7127         0.381912   
     63. A(C   7,C   8,F  21)          109.0521         0.381293   
     64. A(C   9,C   8,F  20)          107.4499         0.381036   
     65. A(C   7,C   8,C   9)          114.1471         0.348078   
     66. A(C   7,C   8,F  20)          109.4572         0.380419   
     67. A(F  23,C   9,F  24)          108.6464         0.426961   
     68. A(F  22,C   9,F  24)          109.0552         0.426394   
     69. A(C   8,C   9,F  24)          110.9604         0.385362   
     70. A(F  22,C   9,F  23)          108.6877         0.426061   
     71. A(C   8,C   9,F  23)          108.6349         0.385069   
     72. A(C   8,C   9,F  22)          110.7995         0.384572   
     73. D(F  11,C   3,C   0,O   1)    108.6317         0.006601   
     74. D(C   4,C   3,C   0,O   2)     49.8076         0.006601   
     75. D(F  10,C   3,C   0,O   2)    171.0025         0.006601   
     76. D(F  11,C   3,C   0,O   2)    -70.4768         0.006601   
     77. D(C   4,C   3,C   0,O   1)   -131.0839         0.006601   
     78. D(F  10,C   3,C   0,O   1)     -9.8890         0.006601   
     79. D(C   5,C   4,C   3,C   0)    148.6429         0.009100   
     80. D(F  12,C   4,C   3,C   0)    -89.8453         0.009100   
     81. D(C   5,C   4,C   3,F  10)     24.8733         0.009100   
     82. D(F  12,C   4,C   3,F  10)    146.3851         0.009100   
     83. D(F  12,C   4,C   3,F  11)     32.0233         0.009100   
     84. D(C   5,C   4,C   3,F  11)    -89.4885         0.009100   
     85. D(C   6,C   5,C   4,F  12)     41.2001         0.008811   
     86. D(C   6,C   5,C   4,F  13)    -75.6292         0.008811   
     87. D(C   6,C   5,C   4,C   3)    163.9326         0.008811   
     88. D(F  14,C   5,C   4,F  13)     45.4721         0.008811   
     89. D(F  14,C   5,C   4,F  12)    162.3014         0.008811   
     90. D(F  14,C   5,C   4,C   3)    -74.9661         0.008811   
     91. D(F  16,C   6,C   5,F  15)     44.2190         0.008700   
     92. D(F  16,C   6,C   5,F  14)    161.9826         0.008700   
     93. D(F  16,C   6,C   5,C   4)    -76.3465         0.008700   
     94. D(C   7,C   6,C   5,F  14)     41.3107         0.008700   
     95. D(C   7,C   6,C   5,C   4)    162.9815         0.008700   
     96. D(C   7,C   6,C   5,F  15)    -76.4529         0.008700   
     97. D(F  18,C   7,C   6,F  17)    162.9167         0.008578   
     98. D(F  18,C   7,C   6,F  16)    -79.1358         0.008578   
     99. D(F  18,C   7,C   6,C   5)     41.7939         0.008578   
    100. D(C   8,C   7,C   6,F  17)    -76.5134         0.008578   
    101. D(C   8,C   7,C   6,F  16)     41.4341         0.008578   
    102. D(C   8,C   7,C   6,C   5)    162.3638         0.008578   
    103. D(C   9,C   8,C   7,C   6)    162.4166         0.008755   
    104. D(F  20,C   8,C   7,F  19)    -78.9355         0.008755   
    105. D(F  20,C   8,C   7,F  18)    163.1633         0.008755   
    106. D(F  20,C   8,C   7,C   6)     41.9584         0.008755   
    107. D(C   9,C   8,C   7,F  19)     41.5227         0.008755   
    108. D(C   9,C   8,C   7,F  18)    -76.3785         0.008755   
    109. D(F  23,C   9,C   8,F  21)     48.1091         0.008903   
    110. D(F  23,C   9,C   8,F  20)    -69.0724         0.008903   
    111. D(F  23,C   9,C   8,C   7)    169.3552         0.008903   
    112. D(F  22,C   9,C   8,F  21)    -71.2185         0.008903   
    113. D(F  22,C   9,C   8,F  20)    171.5999         0.008903   
    114. D(F  22,C   9,C   8,C   7)     50.0276         0.008903   
    -----------------------------------------------------------------

Number of atoms                         .... 26
Number of degrees of freedom            .... 114


         *************************************************************
         *                GEOMETRY OPTIMIZATION CYCLE   1            *
         *************************************************************
---------------------------------
CARTESIAN COORDINATES (ANGSTROEM)
---------------------------------
  C      4.790427   -0.033866   -0.529943
  O      5.449345   -1.206924   -0.894595
  O      4.978223    1.323071   -0.737377
  C      3.506688   -0.338742    0.376154
  C      2.222300    0.400525   -0.110682
  C      0.900507   -0.386390    0.175703
  C     -0.395261    0.487294    0.065549
  C     -1.705694   -0.364774   -0.068374
  C     -3.005136    0.445345    0.258164
  C     -4.319880   -0.214526   -0.270541
  F      3.211587   -1.692050    0.412735
  F      3.741062    0.055286    1.689949
  F      2.125697    1.616868    0.483237
  F      2.314152    0.589704   -1.455769
  F      0.794029   -1.413561   -0.700839
  F      0.958351   -0.884509    1.435093
  F     -0.498373    1.260266    1.173340
  F     -0.299075    1.289513   -1.020911
  F     -1.641790   -1.418189    0.779524
  F     -1.792381   -0.831392   -1.336864
  F     -2.918792    1.679227   -0.295171
  F     -3.119771    0.573780    1.598580
  F     -4.383116   -1.504378    0.089128
  F     -5.365670    0.430529    0.260394
  F     -4.396020   -0.128551   -1.602942
  H      5.903122   -2.014775   -1.145719

----------------------------
CARTESIAN COORDINATES (A.U.)
----------------------------
  NO LB      ZA    FRAG     MASS         X           Y           Z
   0 C     6.0000    0    12.011    9.052595   -0.063997   -1.001448
   1 O     8.0000    0    15.999   10.297770   -2.280756   -1.690539
   2 O     8.0000    0    15.999    9.407478    2.500242   -1.393441
   3 C     6.0000    0    12.011    6.626679   -0.640129    0.710828
   4 C     6.0000    0    12.011    4.199538    0.756882   -0.209158
   5 C     6.0000    0    12.011    1.701711   -0.730171    0.332031
   6 C     6.0000    0    12.011   -0.746935    0.920852    0.123870
   7 C     6.0000    0    12.011   -3.223294   -0.689323   -0.129207
   8 C     6.0000    0    12.011   -5.678884    0.841580    0.487859
   9 C     6.0000    0    12.011   -8.163391   -0.405395   -0.511248
  10 F     9.0000    0    18.998    6.069021   -3.197512    0.779956
  11 F     9.0000    0    18.998    7.069582    0.104475    3.193540
  12 F     9.0000    0    18.998    4.016985    3.055437    0.913185
  13 F     9.0000    0    18.998    4.373114    1.114379   -2.751005
  14 F     9.0000    0    18.998    1.500497   -2.671244   -1.324394
  15 F     9.0000    0    18.998    1.811020   -1.671480    2.711934
  16 F     9.0000    0    18.998   -0.941789    2.381557    2.217292
  17 F     9.0000    0    18.998   -0.565170    2.436826   -1.929242
  18 F     9.0000    0    18.998   -3.102534   -2.679989    1.473086
  19 F     9.0000    0    18.998   -3.387110   -1.571102   -2.526306
  20 F     9.0000    0    18.998   -5.515718    3.173280   -0.557793
  21 F     9.0000    0    18.998   -5.895513    1.084287    3.020878
  22 F     9.0000    0    18.998   -8.282888   -2.842862    0.168427
  23 F     9.0000    0    18.998  -10.139646    0.813581    0.492074
  24 F     9.0000    0    18.998   -8.307275   -0.242925   -3.029121
  25 H     1.0000    0     1.008   11.155285   -3.807372   -2.165096

--------------------------------
INTERNAL COORDINATES (ANGSTROEM)
--------------------------------
 C      0   0   0     0.000000000000     0.00000000     0.00000000
 O      1   0   0     1.393990356793     0.00000000     0.00000000
 O      1   2   0     1.385486802956   136.13177198     0.00000000
 C      1   2   3     1.600608594862   111.52489317   181.18992567
 C      4   1   2     1.559863783763   113.16872737   228.91614990
 C      5   4   1     1.564732561934   113.58394786   148.64287440
 C      6   5   4     1.566675459667   113.91280616   163.93256239
 C      7   6   5     1.568817348692   113.20226571   162.98152714
 C      8   7   6     1.565717094808   113.22984595   162.36375422
 C      9   8   7     1.563173062643   114.14707705   162.41661495
 F      4   1   2     1.385592665621   111.82651119   350.11101305
 F      4   1   2     1.391490625050   110.20991618   108.63170802
 F      5   4   1     1.357041377479   110.29260564   270.15468021
 F      5   4   1     1.361428031433   108.58179722    28.57841973
 F      6   5   4     1.354527570075   109.22822656   285.03385927
 F      6   5   4     1.355556277776   108.59004089    43.81583148
 F      7   6   5     1.354739297058   108.88346185   283.65347401
 F      7   6   5     1.353957667090   109.15230848    42.38718856
 F      8   7   6     1.353771473879   109.25240264    41.79387651
 F      8   7   6     1.354368423305   108.69554158   283.25540020
 F      9   8   7     1.355028009646   109.45719767    41.95842364
 F      9   8   7     1.351425618925   109.05210362   282.91820052
 F     10   9   8     1.340551089588   110.79953142    50.02756898
 F     10   9   8     1.338530275591   108.63493714   169.35523750
 F     10   9   8     1.337341214598   110.96044107   288.72891896
 H      2   1   3     0.960000000033   180.00000000     0.00000000

---------------------------
INTERNAL COORDINATES (A.U.)
---------------------------
 C      0   0   0     0.000000000000     0.00000000     0.00000000
 O      1   0   0     2.634260007667     0.00000000     0.00000000
 O      1   2   0     2.618190619750   136.13177198     0.00000000
 C      1   2   3     3.024711891890   111.52489317   181.18992567
 C      4   1   2     2.947715357535   113.16872737   228.91614990
 C      5   4   1     2.956916014884   113.58394786   148.64287440
 C      6   5   4     2.960587559506   113.91280616   163.93256239
 C      7   6   5     2.964635143173   113.20226571   162.98152714
 C      8   7   6     2.958776512386   113.22984595   162.36375422
 C      9   8   7     2.953968988318   114.14707705   162.41661495
 F      4   1   2     2.618390671194   111.82651119   350.11101305
 F      4   1   2     2.629536199263   110.20991618   108.63170802
 F      5   4   1     2.564436555835   110.29260564   270.15468021
 F      5   4   1     2.572726130452   108.58179722    28.57841973
 F      6   5   4     2.559686148288   109.22822656   285.03385927
 F      6   5   4     2.561630124115   108.59004089    43.81583148
 F      7   6   5     2.560086254300   108.88346185   283.65347401
 F      7   6   5     2.558609187723   109.15230848    42.38718856
 F      8   7   6     2.558257333546   109.25240264    41.79387651
 F      8   7   6     2.559385404477   108.69554158   283.25540020
 F      9   8   7     2.560631842023   109.45719767    41.95842364
 F      9   8   7     2.553824310132   109.05210362   282.91820052
 F     10   9   8     2.533274427850   110.79953142    50.02756898
 F     10   9   8     2.529455642830   108.63493714   169.35523750
 F     10   9   8     2.527208643196   110.96044107   288.72891896
 H      2   1   3     1.814137088628   180.00000000     0.00000000

---------------------
BASIS SET INFORMATION
---------------------
There are 4 groups of distinct atoms

 Group   1 Type C   : 11s6p2d1f contracted to 5s3p2d1f pattern {62111/411/11/1}
 Group   2 Type O   : 11s6p2d1f contracted to 5s3p2d1f pattern {62111/411/11/1}
 Group   3 Type F   : 11s6p2d1f contracted to 5s3p2d1f pattern {62111/411/11/1}
 Group   4 Type H   : 5s1p contracted to 3s1p pattern {311/1}

Atom   0C    basis set group =>   1
Atom   1O    basis set group =>   2
Atom   2O    basis set group =>   2
Atom   3C    basis set group =>   1
Atom   4C    basis set group =>   1
Atom   5C    basis set group =>   1
Atom   6C    basis set group =>   1
Atom   7C    basis set group =>   1
Atom   8C    basis set group =>   1
Atom   9C    basis set group =>   1
Atom  10F    basis set group =>   3
Atom  11F    basis set group =>   3
Atom  12F    basis set group =>   3
Atom  13F    basis set group =>   3
Atom  14F    basis set group =>   3
Atom  15F    basis set group =>   3
Atom  16F    basis set group =>   3
Atom  17F    basis set group =>   3
Atom  18F    basis set group =>   3
Atom  19F    basis set group =>   3
Atom  20F    basis set group =>   3
Atom  21F    basis set group =>   3
Atom  22F    basis set group =>   3
Atom  23F    basis set group =>   3
Atom  24F    basis set group =>   3
Atom  25H    basis set group =>   4
---------------------------------
AUXILIARY/J BASIS SET INFORMATION
---------------------------------
There are 4 groups of distinct atoms

 Group   1 Type C   : 12s5p4d2f1g contracted to 6s4p3d1f1g pattern {711111/2111/211/2/1}
 Group   2 Type O   : 12s5p4d2f1g contracted to 6s4p3d1f1g pattern {711111/2111/211/2/1}
 Group   3 Type F   : 12s5p4d2f1g contracted to 6s4p3d1f1g pattern {711111/2111/211/2/1}
 Group   4 Type H   : 5s2p1d contracted to 3s1p1d pattern {311/2/1}

Atom   0C    basis set group =>   1
Atom   1O    basis set group =>   2
Atom   2O    basis set group =>   2
Atom   3C    basis set group =>   1
Atom   4C    basis set group =>   1
Atom   5C    basis set group =>   1
Atom   6C    basis set group =>   1
Atom   7C    basis set group =>   1
Atom   8C    basis set group =>   1
Atom   9C    basis set group =>   1
Atom  10F    basis set group =>   3
Atom  11F    basis set group =>   3
Atom  12F    basis set group =>   3
Atom  13F    basis set group =>   3
Atom  14F    basis set group =>   3
Atom  15F    basis set group =>   3
Atom  16F    basis set group =>   3
Atom  17F    basis set group =>   3
Atom  18F    basis set group =>   3
Atom  19F    basis set group =>   3
Atom  20F    basis set group =>   3
Atom  21F    basis set group =>   3
Atom  22F    basis set group =>   3
Atom  23F    basis set group =>   3
Atom  24F    basis set group =>   3
Atom  25H    basis set group =>   4


           ************************************************************
           *        Program running with 20 parallel MPI-processes    *
           *              working on a common directory               *
           ************************************************************
------------------------------------------------------------------------------
                             ORCA STARTUP CALCULATIONS
                           -- RI-GTO INTEGRALS CHOSEN --
------------------------------------------------------------------------------
------------------------------------------------------------------------------
                   ___                                                        
                  /   \      - P O W E R E D   B Y -                         
                 /     \                                                     
                 |  |  |   _    _      __       _____    __    __             
                 |  |  |  | |  | |    /  \     |  _  \  |  |  /  |          
                  \  \/   | |  | |   /    \    | | | |  |  | /  /          
                 / \  \   | |__| |  /  /\  \   | |_| |  |  |/  /          
                |  |  |   |  __  | /  /__\  \  |    /   |      \           
                |  |  |   | |  | | |   __   |  |    \   |  |\   \          
                \     /   | |  | | |  |  |  |  | |\  \  |  | \   \       
                 \___/    |_|  |_| |__|  |__|  |_| \__\ |__|  \__/        
                                                                              
                      - O R C A' S   B I G   F R I E N D -                    
                                      &                                       
                       - I N T E G R A L  F E E D E R -                       
                                                                              
 v1 FN, 2020, v2 2021, v3 2022-2024                                           
------------------------------------------------------------------------------


----------------------
SHARK INTEGRAL PACKAGE
----------------------

Number of atoms                             ...     26
Number of basis functions                   ...    781
Number of shells                            ...    279
Maximum angular momentum                    ...      3
Integral batch strategy                     ... SHARK/LIBINT Hybrid
RI-J (if used) integral strategy            ... SPLIT-RIJ (Revised 2003 algorithm where possible)
Printlevel                                  ...      1
Contraction scheme used                     ... SEGMENTED contraction
Prescreening option                         ... SCHWARTZ
   Thresh                                   ... 2.500e-11
   Tcut                                     ... 2.500e-12
   Tpresel                                  ... 2.500e-12 
Coulomb Range Separation                    ... NOT USED
Exchange Range Separation                   ... NOT USED
Multipole approximations                    ... NOT USED
Finite Nucleus Model                        ... NOT USED
CABS basis                                  ... NOT available
Auxiliary Coulomb fitting basis             ... AVAILABLE
   # of basis functions in Aux-J            ...   1236
   # of shells in Aux-J                     ...    380
   Maximum angular momentum in Aux-J        ...      4
Auxiliary J/K fitting basis                 ... NOT available
Auxiliary Correlation fitting basis         ... NOT available
Auxiliary 'external' fitting basis          ... NOT available

Checking pre-screening integrals            ... done (  0.0 sec) Dimension = 279
Check shell pair data                       ... done (  0.0 sec)
Shell pair information
Shell pair cut-off parameter TPreSel        ...   2.5e-12
Total number of shell pairs                 ...     39060
Shell pairs after pre-screening             ...     23834
Total number of primitive shell pairs       ...    128824
Primitive shell pairs kept                  ...     50343
          la=0 lb=0:   4538 shell pairs
          la=1 lb=0:   6518 shell pairs
          la=1 lb=1:   2258 shell pairs
          la=2 lb=0:   3530 shell pairs
          la=2 lb=1:   2590 shell pairs
          la=2 lb=2:    727 shell pairs
          la=3 lb=0:   1601 shell pairs
          la=3 lb=1:   1246 shell pairs
          la=3 lb=2:    666 shell pairs
          la=3 lb=3:    160 shell pairs

Calculating one electron integrals          ... done (  0.0 sec)
Calculating RI/J V-Matrix + Cholesky decomp.... done (  0.1 sec)
Calculating Nuclear repulsion               ... done (  0.0 sec) ENN=   2882.920911014247 Eh

Diagonalization of the overlap matrix:
Smallest eigenvalue                        ... 6.007e-05
Time for diagonalization                   ...    0.114 sec
Threshold for overlap eigenvalues          ... 1.000e-07
Number of eigenvalues below threshold      ... 0
Time for construction of square roots      ...    0.054 sec
Total time needed                          ...    0.174 sec

-------------------
DFT GRID GENERATION
-------------------

General Integration Accuracy     IntAcc      ... 4.388
Radial Grid Type                 RadialGrid  ... OptM3 with GC (2021)
Angular Grid (max. ang.)         AngularGrid ... 4 (Lebedev-302)
Angular grid pruning method      GridPruning ... 4 (adaptive)
Weight generation scheme         WeightScheme... mBecke (2022)
Basis function cutoff            BFCut       ... 1.0000e-11
Integration weight cutoff        WCut        ... 1.0000e-14
Partially contracted basis set               ... off
Rotationally invariant grid construction     ... off
Angular grids for H and He will be reduced by one unit

Total number of grid points                  ...   154735
Total number of batches                      ...     2429
Average number of points per batch           ...       63
Average number of grid points per atom       ...     5951

--------------------
COSX GRID GENERATION
--------------------

GRIDX 1
-------
General Integration Accuracy     IntAcc      ... 3.816
Radial Grid Type                 RadialGrid  ... OptM3 with GC (2021)
Angular Grid (max. ang.)         AngularGrid ... 1 (Lebedev-50)
Angular grid pruning method      GridPruning ... 4 (adaptive)
Weight generation scheme         WeightScheme... mBecke (2022)
Basis function cutoff            BFCut       ... 1.0000e-11
Integration weight cutoff        WCut        ... 1.0000e-14
Partially contracted basis set               ... on
Rotationally invariant grid construction     ... off
Angular grids for H and He will be reduced by one unit

Total number of grid points                  ...    19462
Total number of batches                      ...      164
Average number of points per batch           ...      118
Average number of grid points per atom       ...      749
UseSFitting                                  ... on

GRIDX 2
-------
General Integration Accuracy     IntAcc      ... 4.020
Radial Grid Type                 RadialGrid  ... OptM3 with GC (2021)
Angular Grid (max. ang.)         AngularGrid ... 2 (Lebedev-110)
Angular grid pruning method      GridPruning ... 4 (adaptive)
Weight generation scheme         WeightScheme... mBecke (2022)
Basis function cutoff            BFCut       ... 1.0000e-11
Integration weight cutoff        WCut        ... 1.0000e-14
Partially contracted basis set               ... on
Rotationally invariant grid construction     ... off
Angular grids for H and He will be reduced by one unit

Total number of grid points                  ...    45841
Total number of batches                      ...      374
Average number of points per batch           ...      122
Average number of grid points per atom       ...     1763
UseSFitting                                  ... on

GRIDX 3
-------
General Integration Accuracy     IntAcc      ... 4.338
Radial Grid Type                 RadialGrid  ... OptM3 with GC (2021)
Angular Grid (max. ang.)         AngularGrid ... 3 (Lebedev-194)
Angular grid pruning method      GridPruning ... 4 (adaptive)
Weight generation scheme         WeightScheme... mBecke (2022)
Basis function cutoff            BFCut       ... 1.0000e-11
Integration weight cutoff        WCut        ... 1.0000e-14
Partially contracted basis set               ... on
Rotationally invariant grid construction     ... off
Angular grids for H and He will be reduced by one unit

Total number of grid points                  ...   101470
Total number of batches                      ...      802
Average number of points per batch           ...      126
Average number of grid points per atom       ...     3903
UseSFitting                                  ... on
Initializing property integral containers    ... done (  0.0 sec)

SHARK setup successfully completed in   3.3 seconds

Maximum memory used throughout the entire STARTUP-calculation: 60.6 MB


           ************************************************************
           *        Program running with 20 parallel MPI-processes    *
           *              working on a common directory               *
           ************************************************************
-------------------------------------------------------------------------------
                                 ORCA GUESS
                   Start orbitals & Density for SCF / CASSCF
-------------------------------------------------------------------------------

------------
SCF SETTINGS
------------
Hamiltonian:
 Density Functional     Method          .... DFT(GTOs)
  Functional kind                       .... Exchange
  Functional name                       .... Re-regularized SCAN exchange by Furness et al
  Functional family                     .... MGGA
  Functional refs                              
    [ 0] J. W. Furness, A. D. Kaplan, J. Ning, J. P. Perdew, and J. Sun.,  J. Phys. Chem. Lett. 11, 8208-8215 (2020), doi: 10.1021/acs.jpclett.0c02405
    [ 1] J. W. Furness, A. D. Kaplan, J. Ning, J. P. Perdew, and J. Sun.,  J. Phys. Chem. Lett. 11, 9248-9248 (2020), doi: 10.1021/acs.jpclett.0c03077
  Functional external parameters        .... 6
    Parameter  0 _c1        =  6.670000e-01 : c1 parameter        
    Parameter  1 _c2        =  8.000000e-01 : c2 parameter        
    Parameter  2 _d         =  1.240000e+00 : d parameter         
    Parameter  3 _k1        =  6.500000e-02 : k1 parameter        
    Parameter  4 _eta       =  1.000000e-03 : eta parameter       
    Parameter  5 _dp2       =  3.610000e-01 : dp2 parameter       
  Functional kind                       .... Correlation
  Functional name                       .... Re-regularized SCAN correlation by Furness et al
  Functional family                     .... MGGA
  Functional refs                              
    [ 0] J. W. Furness, A. D. Kaplan, J. Ning, J. P. Perdew, and J. Sun.,  J. Phys. Chem. Lett. 11, 8208-8215 (2020), doi: 10.1021/acs.jpclett.0c02405
    [ 1] J. W. Furness, A. D. Kaplan, J. Ning, J. P. Perdew, and J. Sun.,  J. Phys. Chem. Lett. 11, 9248-9248 (2020), doi: 10.1021/acs.jpclett.0c03077
  Functional external parameters        .... 1
    Parameter  0 _eta       =  1.000000e-03 : Regularization parameter
 Gradients option       PostSCFGGA      .... off
 Hybrid DFT is turned on
   Fraction HF Exchange ScalHFX         ....  0.100000
   Scaling of DF-GGA-X  ScalDFX         ....  0.900000
   Scaling of DF-GGA-C  ScalDFC         ....  1.000000
   Scaling of DF-LDA-C  ScalLDAC        ....  1.000000
   Perturbative correction              ....  0.000000
   NL short-range parameter             .... 11.900000
 RI-approximation to the Coulomb term is turned on
   Number of AuxJ basis functions       .... 1236
   RIJ-COSX (HFX calculated with COS-X)).... on


General Settings:
 Integral files         IntName         .... rf_mecn_opt_r2s_P_B
 Hartree-Fock type      HFTyp           .... RHF
 Total Charge           Charge          ....    0
 Multiplicity           Mult            ....    1
 Number of Electrons    NEL             ....  200
 Basis Dimension        Dim             ....  781
 Nuclear Repulsion      ENuc            ....   2882.9209110142 Eh

Convergence Acceleration:
 AO-DIIS                CNVDIIS         .... on
   Start iteration      DIISMaxIt       ....     0
   Startup error        DIISStart       ....  0.200000
   # of expansion vecs  DIISMaxEq       ....     5
   Bias factor          DIISBfac        ....   1.050
   Max. coefficient     DIISMaxC        ....  10.000
 MO-DIIS                CNVKDIIS        .... off
 Trust-Rad. Augm. Hess. CNVTRAH         .... auto
   Auto Start mean grad. ratio tolernc. ....  1.125000
   Auto Start start iteration           ....    50
   Auto Start num. interpolation iter.  ....    10
   Max. Number of Micro iterations      ....    24
   Max. Number of Macro iterations      .... Maxiter - #DIIS iter
   Number of Davidson start vectors     ....     2
   Converg. threshold    (grad. norm)   ....   1.000e-05
   Grad. Scal. Fac. for Micro threshold ....   0.100
   Minimum threshold for Micro iter.    ....   1.000e-02
   NR start threshold (gradient norm)   ....   1.000e-04
   Initial trust radius                 ....   0.400
   Minimum AH scaling param. (alpha)    ....   1.000
   Maximum AH scaling param. (alpha)    .... 1000.000
   Quad. conv. algorithm                .... NR
   White noise on init. David. guess    .... on
   Maximum white noise                  ....   0.010
   Pseudo random numbers                .... off
   Inactive MOs                         .... canonical
   Orbital update algorithm             .... Taylor
   Preconditioner                       .... Diag
   Full preconditioner red. dimension   ....   250
 SOSCF                  CNVSOSCF        .... on
   Start iteration      SOSCFMaxIt      ....   150
   Startup grad/error   SOSCFStart      ....  0.001000
   Hessian update       SOSCFHessUp     .... L-BFGS
 Level Shifting         CNVShift        .... on
   Level shift para.    LevelShift      ....    0.2500
   Turn off err/grad.   ShiftErr        ....    0.0000
 Zerner damping         CNVZerner       .... off
 Static damping         CNVDamp         .... on
   Fraction old density DampFac         ....    0.8500
   Max. Damping (<1)    DampMax         ....    0.9800
   Min. Damping (>=0)   DampMin         ....    0.0000
   Turn off err/grad.   DampErr         ....    0.0300

SCF Procedure:
 Maximum # iterations   MaxIter         ....  1500
 SCF integral mode      SCFMode         .... Direct
   Integral package                     .... SHARK and LIBINT hybrid scheme
 Reset frequency        DirectResetFreq ....    20
 Integral Threshold     Thresh          ....  2.500e-11 Eh
 Primitive CutOff       TCut            ....  2.500e-12 Eh

Convergence Tolerance:
 Convergence Check Mode ConvCheckMode   .... Total+1el-Energy
 Convergence forced     ConvForced      .... 0
 Energy Change          TolE            ....  1.000e-08 Eh
 1-El. energy change                    ....  1.000e-05 Eh
 Orbital Gradient       TolG            ....  1.000e-05
 Orbital Rotation angle TolX            ....  1.000e-05
 DIIS Error             TolErr          ....  5.000e-07

------------------------------
INITIAL GUESS: MODEL POTENTIAL
------------------------------
Loading Hartree-Fock densities                     ... done
Calculating cut-offs                               ... done
Initializing the effective Hamiltonian             ... done
Setting up the integral package (SHARK)            ... done
Starting the Coulomb interaction                   ... done (   0.2 sec)
Making the grid                                    ... done (   0.4 sec)
Mapping shells                                     ... done
Starting the XC term evaluation                    ... done (   0.1 sec)
  promolecular density results
     # of electrons  =    200.000344366
     EX              =   -207.425187988
     EC              =     -7.016318633
     EX+EC           =   -214.441506621
Transforming the Hamiltonian                       ... done (   0.0 sec)
Diagonalizing the Hamiltonian                      ... done (   0.1 sec)
Back transforming the eigenvectors                 ... done (   0.0 sec)
Now organizing SCF variables                       ... done
                      ------------------
                      INITIAL GUESS DONE (   1.0 sec)
                      ------------------
             **** ENERGY FILE WAS UPDATED (rf_mecn_opt_r2s_P_B.en.tmp) ****
Finished Guess after   1.8 sec
Maximum memory used throughout the entire GUESS-calculation: 49.4 MB


           ************************************************************
           *        Program running with 20 parallel MPI-processes    *
           *              working on a common directory               *
           ************************************************************

-------------------------------------------------------------------------------------------
                                      ORCA LEAN-SCF
                              memory conserving SCF solver
-------------------------------------------------------------------------------------------

--------------------
CPCM SOLVATION MODEL
--------------------
CPCM parameters:
  Epsilon                                         ...      35.6880
  Refrac                                          ...       1.3442
  Rsolv                                           ...       1.3000
  Surface type                                    ... GAUSSIAN VDW
  Discretization scheme                           ... Constant charge density
    Threshold for H atoms                         ...       5.0000 (charges/Ang^2)
    Threshold for non-H atoms                     ...       5.0000 (charges/Ang^2)
  Epsilon function type                           ...         CPCM
Solvent:                                          ... ACETONITRILE
SMD-CDS solvent descriptors:
  Soln                                            ...       1.3442
  Soln25                                          ...       1.3416
  Sola                                            ...       0.0700
  Solb                                            ...       0.3200
  Solg                                            ...      41.2500
  Solc                                            ...       0.0000
  Solh                                            ...       0.0000
Radii:
  Scheme                                          ... Element-dependent radii
  Radius for C  used is    3.4960 Bohr (=   1.8500 Ang.)
  Radius for O  used is    4.0969 Bohr (=   2.1680 Ang.)
  Radius for F  used is    3.2692 Bohr (=   1.7300 Ang.)
  Radius for H  used is    2.2677 Bohr (=   1.2000 Ang.)
Calculating surface                               ...        done! (  0.0s)
Cavity surface points                             ...         2192
Cavity Volume                                     ...    2190.7008
Cavity Surface-area                               ...    1131.4869
Calculating surface distance matrix               ...        done! (  0.0s)
Performing Cholesky decomposition & store         ...        done! (  0.1s)
Overall time for CPCM initialization              ...                 0.1s

----------------------------------------D-I-I-S--------------------------------------------
Iteration    Energy (Eh)           Delta-E    RMSDP     MaxDP     DIISErr   Damp  Time(sec)
-------------------------------------------------------------------------------------------
               ***  Starting incremental Fock matrix formation  ***
    1    -1952.9027232974162871     0.00e+00  4.28e-04  3.21e-02  2.89e-01  0.850   5.9
    2    -1953.0497578753406742    -1.47e-01  3.92e-04  2.91e-02  1.78e-01  0.850   3.5
                               ***Turning on AO-DIIS***
    3    -1953.1238120215080016    -7.41e-02  1.76e-04  8.99e-03  1.04e-01  0.850   3.9
    4    -1953.1673745499442703    -4.36e-02  1.16e-04  8.03e-03  7.71e-02  0.850   3.7
    5    -1953.1981606675858529    -3.08e-02  9.48e-05  8.28e-03  6.13e-02  0.850   3.8
    6    -1953.2226783240371333    -2.45e-02  8.38e-05  7.71e-03  5.50e-02  0.850   3.6
    7    -1953.2432924201289097    -2.06e-02  7.70e-05  6.87e-03  4.64e-02  0.850   3.5
    8    -1953.2608748085053776    -1.76e-02  6.73e-05  5.97e-03  3.93e-02  0.850   3.5
    9    -1953.2755346094841116    -1.47e-02  5.69e-05  5.08e-03  3.27e-02  0.850   3.5
   10    -1953.2876836523769271    -1.21e-02  4.76e-05  4.32e-03  2.66e-02  0.850   3.4
   11    -1953.2978243377897343    -1.01e-02  2.68e-04  2.46e-02  2.24e-02  0.000   3.5
   12    -1953.3529719273378760    -5.51e-02  1.57e-05  2.26e-03  4.14e-03  0.000   3.8
   13    -1953.3529825521959538    -1.06e-05  6.43e-06  8.49e-04  3.38e-03  0.000   3.3
                              *** Initializing SOSCF ***
---------------------------------------S-O-S-C-F--------------------------------------
Iteration    Energy (Eh)           Delta-E    RMSDP     MaxDP     MaxGrad    Time(sec)
--------------------------------------------------------------------------------------
   14    -1953.3529997602104231    -1.72e-05  2.32e-06  1.58e-04  5.73e-04     3.1
               *** Restarting incremental Fock matrix formation ***
   15    -1953.3530133311564896    -1.36e-05  2.23e-06  1.26e-04  6.76e-05     6.8
   16    -1953.3530132753453472     5.58e-08  7.55e-07  8.11e-05  1.22e-04     3.8
   17    -1953.3530134189199998    -1.44e-07  6.09e-07  3.35e-05  9.40e-06     3.4
   18    -1953.3530133983526866     2.06e-08  1.74e-07  2.23e-05  1.66e-05     3.4
   19    -1953.3530133878298329     1.05e-08  2.23e-07  1.31e-05  1.56e-06     2.8
                  *** Gradient check signals convergence ***

               *****************************************************
               *                     SUCCESS                       *
               *           SCF CONVERGED AFTER  19 CYCLES          *
               *****************************************************

Recomputing exchange energy using gridx3       ... done (    8.583 sec)
Old exchange energy                            :    -20.891666234 Eh
New exchange energy                            :    -20.891677025 Eh
Exchange energy change after final integration :     -0.000010791 Eh
Total energy after final integration           :  -1953.353024179 Eh

SMD CDS free energy correction energy :                 3.74045     Kcal/mol
Total Energy after SMD CDS correction =             -1953.347063394 Eh
             **** ENERGY FILE WAS UPDATED (rf_mecn_opt_r2s_P_B.en.tmp) ****

----------------
TOTAL SCF ENERGY
----------------

Total Energy       :      -1953.34706339365039 Eh          -53153.27586 eV

Components:
Nuclear Repulsion  :       2882.92091101424694 Eh           78448.26622 eV
Electronic Energy  :      -4836.25776612934442 Eh         -131601.26430 eV
One Electron Energy:      -8456.08548318909197 Eh         -230101.78415 eV
Two Electron Energy:       3619.82771705974756 Eh           98500.51985 eV
CPCM Dielectric    :         -0.01615827273278 Eh              -0.43969 eV
SMD CDS (Gcds)     :          0.00596078508000 Eh               0.16220 eV

Virial components:
Potential Energy   :      -3898.68919864122063 Eh         -106088.72654 eV
Kinetic Energy     :       1945.34213524757024 Eh           52935.45069 eV
Virial Ratio       :          2.00411492045591

DFT components:
N(Alpha)           :       99.999966424067 electrons
N(Beta)            :       99.999966424067 electrons
N(Total)           :      199.999932848135 electrons
E(X)               :     -189.089050333731 Eh       
E(C)               :       -6.956210435603 Eh       
E(XC)              :     -196.045260769334 Eh       

CPCM Solvation Model Properties:
Surface-charge          :         -0.00820374246014
Corrected charge        :         -0.00000000000000
Outlying charge corr.   :          0.00000364719758 Eh               0.00010 eV
Free-energy (cav+disp)  :          0.00596078508000 Eh               0.16220 eV

---------------
SCF CONVERGENCE
---------------

  Last Energy change         ...   -1.0523e-08  Tolerance :   1.0000e-08
  Last MAX-Density change    ...    1.3092e-05  Tolerance :   1.0000e-07
  Last RMS-Density change    ...    2.2328e-07  Tolerance :   5.0000e-09
  Last DIIS Error            ...    5.7268e-04  Tolerance :   5.0000e-07
  Last Orbital Gradient      ...    1.5626e-06  Tolerance :   1.0000e-05
  Last Orbital Rotation      ...    9.0168e-06  Tolerance :   1.0000e-05


----------------
ORBITAL ENERGIES
----------------

  NO   OCC          E(Eh)            E(eV) 
   0   2.0000     -24.736102      -673.1035 
   1   2.0000     -24.735731      -673.0935 
   2   2.0000     -24.735190      -673.0788 
   3   2.0000     -24.735168      -673.0781 
   4   2.0000     -24.735041      -673.0747 
   5   2.0000     -24.734889      -673.0705 
   6   2.0000     -24.734217      -673.0522 
   7   2.0000     -24.734035      -673.0473 
   8   2.0000     -24.733739      -673.0393 
   9   2.0000     -24.733421      -673.0306 
  10   2.0000     -24.732586      -673.0079 
  11   2.0000     -24.731078      -672.9668 
  12   2.0000     -24.728445      -672.8952 
  13   2.0000     -24.722125      -672.7232 
  14   2.0000     -24.722058      -672.7214 
  15   2.0000     -19.195094      -522.3251 
  16   2.0000     -19.161583      -521.4132 
  17   2.0000     -10.447215      -284.2832 
  18   2.0000     -10.397290      -282.9246 
  19   2.0000     -10.396847      -282.9126 
  20   2.0000     -10.395287      -282.8702 
  21   2.0000     -10.394520      -282.8493 
  22   2.0000     -10.394190      -282.8403 
  23   2.0000     -10.393076      -282.8100 
  24   2.0000     -10.391506      -282.7673 
  25   2.0000      -1.357097       -36.9285 
  26   2.0000      -1.338036       -36.4098 
  27   2.0000      -1.324839       -36.0507 
  28   2.0000      -1.313739       -35.7487 
  29   2.0000      -1.312306       -35.7097 
  30   2.0000      -1.308427       -35.6041 
  31   2.0000      -1.291238       -35.1364 
  32   2.0000      -1.273083       -34.6424 
  33   2.0000      -1.268312       -34.5125 
  34   2.0000      -1.265575       -34.4380 
  35   2.0000      -1.262353       -34.3504 
  36   2.0000      -1.257667       -34.2229 
  37   2.0000      -1.256339       -34.1867 
  38   2.0000      -1.253535       -34.1104 
  39   2.0000      -1.238131       -33.6912 
  40   2.0000      -1.095400       -29.8073 
  41   2.0000      -1.006852       -27.3978 
  42   2.0000      -0.852566       -23.1995 
  43   2.0000      -0.835858       -22.7449 
  44   2.0000      -0.809375       -22.0242 
  45   2.0000      -0.774516       -21.0757 
  46   2.0000      -0.739522       -20.1234 
  47   2.0000      -0.707627       -19.2555 
  48   2.0000      -0.683363       -18.5952 
  49   2.0000      -0.671478       -18.2718 
  50   2.0000      -0.642790       -17.4912 
  51   2.0000      -0.638648       -17.3785 
  52   2.0000      -0.629928       -17.1412 
  53   2.0000      -0.624167       -16.9844 
  54   2.0000      -0.621791       -16.9198 
  55   2.0000      -0.620202       -16.8766 
  56   2.0000      -0.608525       -16.5588 
  57   2.0000      -0.602545       -16.3961 
  58   2.0000      -0.599388       -16.3102 
  59   2.0000      -0.593874       -16.1601 
  60   2.0000      -0.586112       -15.9489 
  61   2.0000      -0.580095       -15.7852 
  62   2.0000      -0.576159       -15.6781 
  63   2.0000      -0.572169       -15.5695 
  64   2.0000      -0.562544       -15.3076 
  65   2.0000      -0.506399       -13.7798 
  66   2.0000      -0.503145       -13.6913 
  67   2.0000      -0.497708       -13.5433 
  68   2.0000      -0.497103       -13.5269 
  69   2.0000      -0.492055       -13.3895 
  70   2.0000      -0.488384       -13.2896 
  71   2.0000      -0.487250       -13.2588 
  72   2.0000      -0.484089       -13.1727 
  73   2.0000      -0.478600       -13.0234 
  74   2.0000      -0.475520       -12.9396 
  75   2.0000      -0.474683       -12.9168 
  76   2.0000      -0.468505       -12.7487 
  77   2.0000      -0.465456       -12.6657 
  78   2.0000      -0.464117       -12.6293 
  79   2.0000      -0.457267       -12.4429 
  80   2.0000      -0.453554       -12.3418 
  81   2.0000      -0.450834       -12.2678 
  82   2.0000      -0.444101       -12.0846 
  83   2.0000      -0.441910       -12.0250 
  84   2.0000      -0.440557       -11.9882 
  85   2.0000      -0.438186       -11.9237 
  86   2.0000      -0.436877       -11.8880 
  87   2.0000      -0.434014       -11.8101 
  88   2.0000      -0.433392       -11.7932 
  89   2.0000      -0.429632       -11.6909 
  90   2.0000      -0.428924       -11.6716 
  91   2.0000      -0.426119       -11.5953 
  92   2.0000      -0.424259       -11.5447 
  93   2.0000      -0.420136       -11.4325 
  94   2.0000      -0.405409       -11.0317 
  95   2.0000      -0.377915       -10.2836 
  96   2.0000      -0.354233        -9.6392 
  97   2.0000      -0.337411        -9.1814 
  98   2.0000      -0.336387        -9.1535 
  99   2.0000      -0.307288        -8.3617 
 100   0.0000      -0.112251        -3.0545 
 101   0.0000      -0.037312        -1.0153 
 102   0.0000      -0.015724        -0.4279 
 103   0.0000      -0.006660        -0.1812 
 104   0.0000       0.014549         0.3959 
 105   0.0000       0.024648         0.6707 
 106   0.0000       0.062225         1.6932 
 107   0.0000       0.072183         1.9642 
 108   0.0000       0.100448         2.7333 
 109   0.0000       0.105449         2.8694 
 110   0.0000       0.110315         3.0018 
*Only the first 10 virtual orbitals were printed.

                    ********************************
                    * MULLIKEN POPULATION ANALYSIS *
                    ********************************

-----------------------
MULLIKEN ATOMIC CHARGES
-----------------------
   0 C :    0.382617
   1 O :   -0.455568
   2 O :   -0.393765
   3 C :    0.370501
   4 C :    0.325949
   5 C :    0.331353
   6 C :    0.320178
   7 C :    0.301200
   8 C :    0.333193
   9 C :    0.470514
  10 F :   -0.176319
  11 F :   -0.175931
  12 F :   -0.165429
  13 F :   -0.169866
  14 F :   -0.163858
  15 F :   -0.164522
  16 F :   -0.163013
  17 F :   -0.162671
  18 F :   -0.163054
  19 F :   -0.162846
  20 F :   -0.163053
  21 F :   -0.159541
  22 F :   -0.155997
  23 F :   -0.152454
  24 F :   -0.153777
  25 H :    0.466161
Sum of atomic charges:    0.0000000

--------------------------------
MULLIKEN REDUCED ORBITAL CHARGES
--------------------------------
  0 C s       :     3.169083  s :     3.169083
      pz      :     0.775251  p :     2.219007
      px      :     0.790766
      py      :     0.652990
      dz2     :     0.015537  d :     0.211251
      dxz     :     0.014502
      dyz     :     0.060077
      dx2y2   :     0.053265
      dxy     :     0.067870
      f0      :     0.001820  f :     0.018043
      f+1     :     0.001149
      f-1     :     0.002317
      f+2     :     0.002604
      f-2     :     0.001966
      f+3     :     0.003812
      f-3     :     0.004375

  1 O s       :     3.684762  s :     3.684762
      pz      :     1.718537  p :     4.753089
      px      :     1.684323
      py      :     1.350228
      dz2     :     0.001741  d :     0.014829
      dxz     :     0.001256
      dyz     :     0.003215
      dx2y2   :     0.003298
      dxy     :     0.005320
      f0      :     0.000283  f :     0.002887
      f+1     :     0.000134
      f-1     :     0.000389
      f+2     :     0.000246
      f-2     :     0.000445
      f+3     :     0.000930
      f-3     :     0.000461

  2 O s       :     3.899372  s :     3.899372
      pz      :     1.539583  p :     4.467909
      px      :     1.690936
      py      :     1.237390
      dz2     :     0.003283  d :     0.025181
      dxz     :     0.000341
      dyz     :     0.006626
      dx2y2   :     0.009252
      dxy     :     0.005680
      f0      :     0.000119  f :     0.001303
      f+1     :     0.000015
      f-1     :     0.000231
      f+2     :     0.000222
      f-2     :     0.000031
      f+3     :     0.000292
      f-3     :     0.000393

  3 C s       :     3.107172  s :     3.107172
      pz      :     0.679077  p :     2.235544
      px      :     0.914265
      py      :     0.642202
      dz2     :     0.045804  d :     0.262047
      dxz     :     0.052678
      dyz     :     0.066120
      dx2y2   :     0.044206
      dxy     :     0.053237
      f0      :     0.005252  f :     0.024738
      f+1     :     0.003534
      f-1     :     0.003772
      f+2     :     0.003562
      f-2     :     0.001997
      f+3     :     0.003653
      f-3     :     0.002967

  4 C s       :     3.122959  s :     3.122959
      pz      :     0.608497  p :     2.242227
      px      :     0.933985
      py      :     0.699745
      dz2     :     0.061627  d :     0.281995
      dxz     :     0.059346
      dyz     :     0.069408
      dx2y2   :     0.032843
      dxy     :     0.058772
      f0      :     0.003471  f :     0.026870
      f+1     :     0.004839
      f-1     :     0.007886
      f+2     :     0.002114
      f-2     :     0.002613
      f+3     :     0.003483
      f-3     :     0.002463

  5 C s       :     3.149051  s :     3.149051
      pz      :     0.587879  p :     2.203951
      px      :     0.908205
      py      :     0.707867
      dz2     :     0.076457  d :     0.288508
      dxz     :     0.061879
      dyz     :     0.059862
      dx2y2   :     0.031573
      dxy     :     0.058737
      f0      :     0.004757  f :     0.027138
      f+1     :     0.004325
      f-1     :     0.005996
      f+2     :     0.003081
      f-2     :     0.004296
      f+3     :     0.002520
      f-3     :     0.002161

  6 C s       :     3.145540  s :     3.145540
      pz      :     0.579955  p :     2.219357
      px      :     0.922679
      py      :     0.716723
      dz2     :     0.081994  d :     0.287809
      dxz     :     0.061730
      dyz     :     0.054771
      dx2y2   :     0.031390
      dxy     :     0.057924
      f0      :     0.005937  f :     0.027115
      f+1     :     0.003859
      f-1     :     0.004199
      f+2     :     0.003956
      f-2     :     0.005142
      f+3     :     0.002077
      f-3     :     0.001944

  7 C s       :     3.147503  s :     3.147503
      pz      :     0.588525  p :     2.236669
      px      :     0.938127
      py      :     0.710017
      dz2     :     0.075186  d :     0.287527
      dxz     :     0.061566
      dyz     :     0.061145
      dx2y2   :     0.031758
      dxy     :     0.057872
      f0      :     0.004579  f :     0.027101
      f+1     :     0.004294
      f-1     :     0.006324
      f+2     :     0.002932
      f-2     :     0.004213
      f+3     :     0.002608
      f-3     :     0.002149

  8 C s       :     3.109688  s :     3.109688
      pz      :     0.617567  p :     2.246898
      px      :     0.939643
      py      :     0.689688
      dz2     :     0.059131  d :     0.283082
      dxz     :     0.060095
      dyz     :     0.072279
      dx2y2   :     0.033021
      dxy     :     0.058555
      f0      :     0.003468  f :     0.027140
      f+1     :     0.004914
      f-1     :     0.008116
      f+2     :     0.002098
      f-2     :     0.002378
      f+3     :     0.003737
      f-3     :     0.002429

  9 C s       :     3.030720  s :     3.030720
      pz      :     0.646759  p :     2.107564
      px      :     0.801960
      py      :     0.658844
      dz2     :     0.066785  d :     0.351884
      dxz     :     0.068599
      dyz     :     0.085642
      dx2y2   :     0.063528
      dxy     :     0.067330
      f0      :     0.004506  f :     0.039318
      f+1     :     0.007838
      f-1     :     0.008795
      f+2     :     0.004351
      f-2     :     0.003047
      f+3     :     0.007303
      f-3     :     0.003479

 10 F s       :     3.930988  s :     3.930988
      pz      :     1.893567  p :     5.229385
      px      :     1.882228
      py      :     1.453590
      dz2     :     0.002155  d :     0.015328
      dxz     :     0.000304
      dyz     :     0.002946
      dx2y2   :     0.005818
      dxy     :     0.004105
      f0      :     0.000049  f :     0.000618
      f+1     :     0.000015
      f-1     :     0.000122
      f+2     :     0.000071
      f-2     :     0.000018
      f+3     :     0.000166
      f-3     :     0.000176

 11 F s       :     3.931479  s :     3.931479
      pz      :     1.466912  p :     5.229030
      px      :     1.896425
      py      :     1.865693
      dz2     :     0.006676  d :     0.014816
      dxz     :     0.003507
      dyz     :     0.003721
      dx2y2   :     0.000456
      dxy     :     0.000456
      f0      :     0.000215  f :     0.000606
      f+1     :     0.000135
      f-1     :     0.000174
      f+2     :     0.000038
      f-2     :     0.000038
      f+3     :     0.000003
      f-3     :     0.000003

 12 F s       :     3.929827  s :     3.929827
      pz      :     1.807520  p :     5.218324
      px      :     1.898438
      py      :     1.512366
      dz2     :     0.002114  d :     0.016591
      dxz     :     0.000818
      dyz     :     0.005355
      dx2y2   :     0.004926
      dxy     :     0.003379
      f0      :     0.000077  f :     0.000687
      f+1     :     0.000004
      f-1     :     0.000122
      f+2     :     0.000180
      f-2     :     0.000064
      f+3     :     0.000109
      f-3     :     0.000131

 13 F s       :     3.931716  s :     3.931716
      pz      :     1.441363  p :     5.221040
      px      :     1.901473
      py      :     1.878204
      dz2     :     0.008463  d :     0.016433
      dxz     :     0.003814
      dyz     :     0.003594
      dx2y2   :     0.000275
      dxy     :     0.000286
      f0      :     0.000330  f :     0.000677
      f+1     :     0.000155
      f-1     :     0.000161
      f+2     :     0.000011
      f-2     :     0.000018
      f+3     :     0.000001
      f-3     :     0.000001

 14 F s       :     3.929815  s :     3.929815
      pz      :     1.702240  p :     5.216611
      px      :     1.897695
      py      :     1.616676
      dz2     :     0.002740  d :     0.016742
      dxz     :     0.001665
      dyz     :     0.006591
      dx2y2   :     0.003146
      dxy     :     0.002600
      f0      :     0.000078  f :     0.000690
      f+1     :     0.000014
      f-1     :     0.000184
      f+2     :     0.000189
      f-2     :     0.000106
      f+3     :     0.000060
      f-3     :     0.000061

 15 F s       :     3.929685  s :     3.929685
      pz      :     1.494755  p :     5.217434
      px      :     1.901234
      py      :     1.821446
      dz2     :     0.006874  d :     0.016713
      dxz     :     0.003378
      dyz     :     0.005009
      dx2y2   :     0.000637
      dxy     :     0.000815
      f0      :     0.000227  f :     0.000689
      f+1     :     0.000109
      f-1     :     0.000234
      f+2     :     0.000051
      f-2     :     0.000060
      f+3     :     0.000005
      f-3     :     0.000004

 16 F s       :     3.930371  s :     3.930371
      pz      :     1.587075  p :     5.215194
      px      :     1.896983
      py      :     1.731136
      dz2     :     0.004582  d :     0.016758
      dxz     :     0.002671
      dyz     :     0.006349
      dx2y2   :     0.001564
      dxy     :     0.001592
      f0      :     0.000119  f :     0.000690
      f+1     :     0.000056
      f-1     :     0.000252
      f+2     :     0.000123
      f-2     :     0.000102
      f+3     :     0.000021
      f-3     :     0.000018

 17 F s       :     3.930418  s :     3.930418
      pz      :     1.598148  p :     5.214766
      px      :     1.897527
      py      :     1.719091
      dz2     :     0.004356  d :     0.016795
      dxz     :     0.002569
      dyz     :     0.006468
      dx2y2   :     0.001707
      dxy     :     0.001695
      f0      :     0.000111  f :     0.000692
      f+1     :     0.000050
      f-1     :     0.000250
      f+2     :     0.000132
      f-2     :     0.000105
      f+3     :     0.000024
      f-3     :     0.000021

 18 F s       :     3.930634  s :     3.930634
      pz      :     1.714283  p :     5.214913
      px      :     1.898670
      py      :     1.601960
      dz2     :     0.002631  d :     0.016816
      dxz     :     0.001547
      dyz     :     0.006576
      dx2y2   :     0.003375
      dxy     :     0.002686
      f0      :     0.000078  f :     0.000692
      f+1     :     0.000010
      f-1     :     0.000177
      f+2     :     0.000195
      f-2     :     0.000100
      f+3     :     0.000064
      f-3     :     0.000068

 19 F s       :     3.930486  s :     3.930486
      pz      :     1.488894  p :     5.214873
      px      :     1.897906
      py      :     1.828074
      dz2     :     0.007088  d :     0.016796
      dxz     :     0.003532
      dyz     :     0.004873
      dx2y2   :     0.000589
      dxy     :     0.000714
      f0      :     0.000239  f :     0.000691
      f+1     :     0.000117
      f-1     :     0.000227
      f+2     :     0.000045
      f-2     :     0.000056
      f+3     :     0.000004
      f-3     :     0.000003

 20 F s       :     3.930274  s :     3.930274
      pz      :     1.817472  p :     5.215416
      px      :     1.896762
      py      :     1.501183
      dz2     :     0.002112  d :     0.016675
      dxz     :     0.000678
      dyz     :     0.005180
      dx2y2   :     0.005171
      dxy     :     0.003535
      f0      :     0.000076  f :     0.000688
      f+1     :     0.000004
      f-1     :     0.000120
      f+2     :     0.000175
      f-2     :     0.000056
      f+3     :     0.000116
      f-3     :     0.000141

 21 F s       :     3.928229  s :     3.928229
      pz      :     1.435540  p :     5.213759
      px      :     1.896695
      py      :     1.881525
      dz2     :     0.008795  d :     0.016847
      dxz     :     0.004063
      dyz     :     0.003575
      dx2y2   :     0.000204
      dxy     :     0.000210
      f0      :     0.000350  f :     0.000705
      f+1     :     0.000171
      f-1     :     0.000159
      f+2     :     0.000009
      f-2     :     0.000014
      f+3     :     0.000001
      f-3     :     0.000001

 22 F s       :     3.925858  s :     3.925858
      pz      :     1.857795  p :     5.212561
      px      :     1.889373
      py      :     1.465393
      dz2     :     0.002292  d :     0.016843
      dxz     :     0.000338
      dyz     :     0.004386
      dx2y2   :     0.006232
      dxy     :     0.003594
      f0      :     0.000074  f :     0.000735
      f+1     :     0.000008
      f-1     :     0.000135
      f+2     :     0.000147
      f-2     :     0.000028
      f+3     :     0.000140
      f-3     :     0.000203

 23 F s       :     3.924299  s :     3.924299
      pz      :     1.823050  p :     5.210456
      px      :     1.600187
      py      :     1.787219
      dz2     :     0.002248  d :     0.016949
      dxz     :     0.004040
      dyz     :     0.001926
      dx2y2   :     0.003773
      dxy     :     0.004962
      f0      :     0.000083  f :     0.000750
      f+1     :     0.000100
      f-1     :     0.000039
      f+2     :     0.000079
      f-2     :     0.000164
      f+3     :     0.000122
      f-3     :     0.000163

 24 F s       :     3.924649  s :     3.924649
      pz      :     1.435518  p :     5.211361
      px      :     1.888907
      py      :     1.886935
      dz2     :     0.009244  d :     0.017018
      dxz     :     0.003864
      dyz     :     0.003563
      dx2y2   :     0.000198
      dxy     :     0.000148
      f0      :     0.000386  f :     0.000750
      f+1     :     0.000173
      f-1     :     0.000169
      f+2     :     0.000012
      f-2     :     0.000008
      f+3     :     0.000001
      f-3     :     0.000001

 25 H s       :     0.482624  s :     0.482624
      pz      :     0.014600  p :     0.051215
      px      :     0.016526
      py      :     0.020089



                     *******************************
                     * LOEWDIN POPULATION ANALYSIS *
                     *******************************

----------------------
LOEWDIN ATOMIC CHARGES
----------------------
   0 C :   -0.224709
   1 O :    0.101982
   2 O :   -0.052848
   3 C :   -0.371359
   4 C :   -0.433845
   5 C :   -0.441594
   6 C :   -0.440182
   7 C :   -0.442040
   8 C :   -0.447992
   9 C :   -0.640449
  10 F :    0.170587
  11 F :    0.161171
  12 F :    0.213513
  13 F :    0.208283
  14 F :    0.217803
  15 F :    0.215365
  16 F :    0.217770
  17 F :    0.218539
  18 F :    0.219103
  19 F :    0.217904
  20 F :    0.215552
  21 F :    0.218210
  22 F :    0.216970
  23 F :    0.219807
  24 F :    0.219752
  25 H :    0.242707

-------------------------------
LOEWDIN REDUCED ORBITAL CHARGES
-------------------------------
  0 C s       :     2.837892  s :     2.837892
      pz      :     0.793210  p :     2.516185
      px      :     0.844111
[...]
      dxz     :     0.006800
      dyz     :     0.011094
      dx2y2   :     0.001727
      dxy     :     0.002297
      f0      :     0.000387  f :     0.001599
      f+1     :     0.000236
      f-1     :     0.000502
      f+2     :     0.000176
      f-2     :     0.000248
      f+3     :     0.000031
      f-3     :     0.000019

 18 F s       :     3.589543  s :     3.589543
      pz      :     1.667191  p :     5.142452
      px      :     1.816075
      py      :     1.659186
      dz2     :     0.005812  d :     0.032341
      dxz     :     0.004322
      dyz     :     0.013182
      dx2y2   :     0.004553
      dxy     :     0.004473
      f0      :     0.000222  f :     0.001597
      f+1     :     0.000062
      f-1     :     0.000447
      f+2     :     0.000349
      f-2     :     0.000311
      f+3     :     0.000128
      f-3     :     0.000077

 19 F s       :     3.589555  s :     3.589555
      pz      :     1.589340  p :     5.142100
      px      :     1.813445
      py      :     1.739316
      dz2     :     0.010703  d :     0.032400
      dxz     :     0.006839
      dyz     :     0.011013
      dx2y2   :     0.001643
      dxy     :     0.002202
      f0      :     0.000399  f :     0.001600
      f+1     :     0.000240
      f-1     :     0.000504
      f+2     :     0.000169
      f-2     :     0.000243
      f+3     :     0.000029
      f-3     :     0.000016

 20 F s       :     3.591039  s :     3.591039
      pz      :     1.736857  p :     5.143926
      px      :     1.812708
      py      :     1.594361
      dz2     :     0.003969  d :     0.032187
      dxz     :     0.002392
      dyz     :     0.011134
      dx2y2   :     0.007989
      dxy     :     0.006702
      f0      :     0.000160  f :     0.001594
      f+1     :     0.000013
      f-1     :     0.000333
      f+2     :     0.000379
      f-2     :     0.000239
      f+3     :     0.000269
      f-3     :     0.000202

 21 F s       :     3.589657  s :     3.589657
      pz      :     1.537956  p :     5.142639
      px      :     1.817247
      py      :     1.787436
      dz2     :     0.015505  d :     0.032549
      dxz     :     0.008130
      dyz     :     0.007691
      dx2y2   :     0.000460
      dxy     :     0.000762
      f0      :     0.000622  f :     0.001624
      f+1     :     0.000416
      f-1     :     0.000444
      f+2     :     0.000035
      f-2     :     0.000101
      f+3     :     0.000005
      f-3     :     0.000002

 22 F s       :     3.592946  s :     3.592946
      pz      :     1.766013  p :     5.141826
      px      :     1.802226
      py      :     1.573586
      dz2     :     0.004075  d :     0.031874
      dxz     :     0.001116
      dyz     :     0.009901
      dx2y2   :     0.010256
      dxy     :     0.006526
      f0      :     0.000165  f :     0.001676
      f+1     :     0.000012
      f-1     :     0.000325
      f+2     :     0.000391
      f-2     :     0.000134
      f+3     :     0.000323
      f-3     :     0.000325

 23 F s       :     3.593032  s :     3.593032
      pz      :     1.781877  p :     5.140819
      px      :     1.639430
      py      :     1.719512
      dz2     :     0.004269  d :     0.032088
      dxz     :     0.005652
      dyz     :     0.003939
      dx2y2   :     0.007063
      dxy     :     0.011165
      f0      :     0.000158  f :     0.001699
      f+1     :     0.000213
      f-1     :     0.000130
      f+2     :     0.000105
      f-2     :     0.000353
      f+3     :     0.000364
      f-3     :     0.000376

 24 F s       :     3.591395  s :     3.591395
      pz      :     1.531325  p :     5.140520
      px      :     1.803591
      py      :     1.805605
      dz2     :     0.018293  d :     0.032172
      dxz     :     0.007326
      dyz     :     0.006060
      dx2y2   :     0.000221
      dxy     :     0.000272
      f0      :     0.000800  f :     0.001702
      f+1     :     0.000438
      f-1     :     0.000409
      f+2     :     0.000020
      f-2     :     0.000031
      f+3     :     0.000001
      f-3     :     0.000003

 25 H s       :     0.618850  s :     0.618850
      pz      :     0.037950  p :     0.146005
      px      :     0.067877
      py      :     0.040178



                      *****************************
                      * MAYER POPULATION ANALYSIS *
                      *****************************

  NA   - Mulliken gross atomic population
  ZA   - Total nuclear charge
  QA   - Mulliken gross atomic charge
  VA   - Mayer's total valence
  BVA  - Mayer's bonded valence
  FA   - Mayer's free valence

  ATOM       NA         ZA         QA         VA         BVA        FA
  0 C      5.7191     6.0000     0.2809     4.3373     4.3373    -0.0000
  1 O      8.3652     8.0000    -0.3652     2.1750     2.1750    -0.0000
  2 O      8.3260     8.0000    -0.3260     2.1853     2.1853     0.0000
  3 C      5.5853     6.0000     0.4147     4.1201     4.1201    -0.0000
  4 C      5.7127     6.0000     0.2873     4.1947     4.1947     0.0000
  5 C      5.6790     6.0000     0.3210     4.2031     4.2031     0.0000
  6 C      5.6727     6.0000     0.3273     4.1922     4.1922     0.0000
  7 C      5.7015     6.0000     0.2985     4.1964     4.1964    -0.0000
  8 C      5.6683     6.0000     0.3317     4.2126     4.2126    -0.0000
  9 C      5.5290     6.0000     0.4710     4.4702     4.4702    -0.0000
 10 F      9.1736     9.0000    -0.1736     1.1404     1.1404     0.0000
 11 F      9.1698     9.0000    -0.1698     1.1470     1.1470    -0.0000
 12 F      9.1655     9.0000    -0.1655     1.1599     1.1599     0.0000
 13 F      9.1677     9.0000    -0.1677     1.1549     1.1549    -0.0000
 14 F      9.1629     9.0000    -0.1629     1.1605     1.1605    -0.0000
 15 F      9.1615     9.0000    -0.1615     1.1619     1.1619    -0.0000
 16 F      9.1615     9.0000    -0.1615     1.1625     1.1625     0.0000
 17 F      9.1618     9.0000    -0.1618     1.1622     1.1622    -0.0000
 18 F      9.1624     9.0000    -0.1624     1.1624     1.1624    -0.0000
 19 F      9.1614     9.0000    -0.1614     1.1625     1.1625    -0.0000
 20 F      9.1623     9.0000    -0.1623     1.1610     1.1610     0.0000
 21 F      9.1585     9.0000    -0.1585     1.1629     1.1629    -0.0000
 22 F      9.1554     9.0000    -0.1554     1.1658     1.1658    -0.0000
 23 F      9.1528     9.0000    -0.1528     1.1653     1.1653    -0.0000
 24 F      9.1534     9.0000    -0.1534     1.1678     1.1678    -0.0000
 25 H      0.6107     1.0000     0.3893     0.8742     0.8742    -0.0000

  Mayer bond orders larger than 0.100000
B(  0-C ,  1-O ) :   1.2961 B(  0-C ,  2-O ) :   2.0428 B(  0-C ,  3-C ) :   0.8814 
B(  1-O , 25-H ) :   0.8171 B(  3-C ,  4-C ) :   0.9499 B(  3-C , 10-F ) :   1.0809 
B(  3-C , 11-F ) :   1.1003 B(  4-C ,  5-C ) :   0.9314 B(  4-C , 12-F ) :   1.0824 
B(  4-C , 13-F ) :   1.0780 B(  5-C ,  6-C ) :   0.9335 B(  5-C , 14-F ) :   1.0820 
B(  5-C , 15-F ) :   1.0856 B(  6-C ,  7-C ) :   0.9301 B(  6-C , 16-F ) :   1.0835 
B(  6-C , 17-F ) :   1.0808 B(  7-C ,  8-C ) :   0.9351 B(  7-C , 18-F ) :   1.0814 
B(  7-C , 19-F ) :   1.0938 B(  8-C ,  9-C ) :   0.9527 B(  8-C , 20-F ) :   1.0824 
B(  8-C , 21-F ) :   1.0985 B(  9-C , 22-F ) :   1.1294 B(  9-C , 23-F ) :   1.1334 
B(  9-C , 24-F ) :   1.1437 

-------
TIMINGS
-------

Total SCF time: 0 days 0 hours 0 min 36 sec 

Total time                  ....      36.635 sec
Sum of individual times     ....      35.671 sec  ( 97.4%)

SCF preparation             ....       1.464 sec  (  4.0%)
Fock matrix formation       ....      31.370 sec  ( 85.6%)
  Startup                   ....       0.115 sec  (  0.4% of F)
  Split-RI-J                ....       2.106 sec  (  6.7% of F)
  Chain of spheres X        ....      22.230 sec  ( 70.9% of F)
  XC integration            ....       5.029 sec  ( 16.0% of F)
    Basis function eval.    ....       0.449 sec  (  8.9% of XC)
    Density eval.           ....       1.215 sec  ( 24.2% of XC)
    XC-Functional eval.     ....       0.130 sec  (  2.6% of XC)
    XC-Potential eval.      ....       1.293 sec  ( 25.7% of XC)
  CPCM terms                ....       1.713 sec  (  5.5% of F)
Diagonalization             ....       0.000 sec  (  0.0%)
Density matrix formation    ....       0.275 sec  (  0.7%)
Total Energy calculation    ....       0.177 sec  (  0.5%)
Population analysis         ....       0.430 sec  (  1.2%)
Orbital Transformation      ....       0.283 sec  (  0.8%)
Orbital Orthonormalization  ....       0.000 sec  (  0.0%)
DIIS solution               ....       0.462 sec  (  1.3%)
SOSCF solution              ....       1.212 sec  (  3.3%)
Finished LeanSCF after  37.1 sec

Maximum memory used throughout the entire LEANSCF-calculation: 102.9 MB


-------------------------------------------------------------------------------
                          DFT DISPERSION CORRECTION                            
                                                                               
                              DFTD3 V3.1  Rev 1                                
                          USING Becke-Johnson damping                          
-------------------------------------------------------------------------------
The R2SCANh functional is recognized
Active option DFTDOPT                   ...         4   

molecular C6(AA) [au] = 6839.062421 


            DFT-D V3
 parameters
 s6 scaling factor         :     1.0000 
 a1 scaling factor         :     0.4709 
 s8 scaling factor         :     1.1236 
 a2 scaling factor         :     5.9157 
 ad hoc parameters k1-k3   :    16.0000     1.3333    -4.0000 

 Edisp/kcal,au: -5.448311703498  -0.008682436437 
 E6   /kcal   :  -3.986024087 
 E8   /kcal   :  -1.462287616 
 % E8         :  26.839279686 

-------------------------   ----------------
Dispersion correction           -0.008682436
-------------------------   ----------------


-------------------------   --------------------
FINAL SINGLE POINT ENERGY     -1953.467294797287
-------------------------   --------------------

                                *** OPTIMIZATION RUN DONE ***



           ************************************************************
           *        Program running with 20 parallel MPI-processes    *
           *              working on a common directory               *
           ************************************************************

------------------------------------------------------------------------------
                              ORCA PROPERTY CALCULATIONS
------------------------------------------------------------------------------

GBWName                                 ... rf_mecn_opt_r2s_P_B.gbw
Number of atoms                         ...     26
Number of basis functions               ...    781
Max core memory                         ...   8000 MB

Electric properties:
Dipole moment                           ... YES
Quadrupole moment                       ...  NO
Static polarizability (Dipole/Dipole)   ...  NO
Static polarizability (Dipole/Quad.)    ...  NO
Static polarizability (Quad./Quad.)     ...  NO
Static polarizability (Velocity)        ...  NO

Atomic electric properties:
Dipole moment                           ...  NO
Quadrupole moment                       ...  NO
Static polarizability                   ...  NO

Choice of electric origin               ... Center of mass
Position of electric origin             ...    -0.078179    -0.140644     0.024537

General magnetic properties:
Magnetizability                         ...  NO

EPR properties:
g-Tensor (aka g-matrix)                 ...  NO
Zero-Field splitting spin-orbit         ...  NO
Zero-field splitting spin-spin          ...  NO
Hyperfine couplings                     ...  NO (   0 nuclei)
Quadrupole couplings                    ...  NO (   0 nuclei)
Contact density                         ...  NO (   0 nuclei)

NMR properties:
Chemical shifts                         ...  NO (   0 nuclei)
Spin-rotation constants                 ...  NO (   0 nuclei)
Spin-spin couplings                     ...  NO (   0 nuclei,    0 pairs)

Choice of magnetic origin               ... GIAO
Position of magnetic origin             ...     0.000000     0.000000     0.000000

Properties with geometric perturbations:
SCF Hessian                             ...  NO
IR spectrum                             ...  NO
VCD spectrum                            ...  NO
X-ray spectroscopy properties:
SCF XES/XAS/RIXS spectra                ...  NO


-------------
DIPOLE MOMENT
-------------

Method             : SCF
Type of density    : Electron Density
Multiplicity       :   1
Irrep              :   0
Energy             : -1953.4586123608501111 Eh
Relativity type    : 
Basis              : AO
                                X                 Y                 Z
Electronic contribution:    -14.821698034      -0.277220636       1.639371241
Nuclear contribution   :     15.535918960      -0.175534114      -2.490881894
                        -----------------------------------------
Total Dipole Moment    :      0.714220925      -0.452754750      -0.851510653
                        -----------------------------------------
Magnitude (a.u.)       :      1.200070326
Magnitude (Debye)      :      3.050336353



--------------------
Rotational spectrum 
--------------------
 
Rotational constants in cm-1:             0.021429             0.003744             0.003703 
Rotational constants in MHz :           642.421025           112.240466           111.017976 

Dipole components along the rotational axes: 
x,y,z [a.u.] :     0.723388     0.451873    -0.844209 
x,y,z [Debye]:     1.838706     1.148570    -2.145810 

 

Dipole moment calculation done in   0.2 sec 

Maximum memory used throughout the entire PROP-calculation: 56.0 MB

--------------------------------
SUGGESTED CITATIONS FOR THIS RUN
--------------------------------

Below you find a list of papers that are relevant to this ORCA run
We neither can nor want to force you to cite these papers, but we appreciate if you do
You receive ORCA, which is the product of decades of hard work by many enthusiastic individuals, for free
The only thing we kindly ask in return is that you cite our papers,
We deeply appreciate it, if you show your appreciation for ORCA by not just citing the generic ORCA reference.

Please note that relegating all ORCA citations to the supporting information does *not* help us.
SI sections are not indexed - citations you put there will not count into any citation statistics
But we need these citations in order to attract the funding resources that allow us to do what we are doing

Therefore, if you are a happy ORCA user, please consider citing a few of the papers listed below in the main body of your paper

In addition to the list printed below, the program has created the file rf_mecn_opt_r2s_P_B.bibtex that contains the list in bibtex format
You can import this file easily into all common literature databanks and citation aid programs


List of essential papers. We consider these as the minimum necessary citations

  1. Neese,F.
     Software update: the ORCA program system, version 5.0
     WIRES Comput. Molec. Sci., 2022 12(1)e1606
     doi.org/10.1002/wcms.1606

List of papers to cite with high priority. The work reported in these papers was absolutely
necessary for this run to complete.
Our perspective: the developers of density functionals and basis sets usually get cited in chemistry papers
Good! But without the algorithms to do something with them, the functionals or basis sets would not do anything.
Hence, in our opinion, the algorithm design and method developments papers are equally worthy of getting cited

  1. Neese,F.
     An improvement of the resolution of the identity approximation for the formation of the Coulomb matrix
     J. Comp. Chem., 2003 24(14)1740-1747
     doi.org/10.1002/jcc.10318
  2. Neese,F.; Wennmohs,F.; Hansen,A.; Becker,U.
     Efficient, approximate and parallel Hartree-Fock and hybrid DFT calculations. A 'chain-of-spheres' algorithm for the Hartree-Fock exchange
     Chem. Phys., 2009 356(1-3)98-109
     doi.org/10.1016/j.chemphys.2008.10.036
  3. Garcia-Rates,M.; Neese,F.
     Effect of the Solute Cavity on the Solvation Energy and its Derivatives within the Framework of the Gaussian Charge Scheme
     J. Comput. Chem., 2020 41 922-939
     doi.org/10.1002/jcc.26139
  4. Helmich-Paris,B.; de Souza,B.; Neese,F.; Izsák,R.
     An improved chain of spheres for exchange algorithm
     J. Chem. Phys., 2021 155 104109
     doi.org/doi: 10.1063/5.0058766.
  5. Neese,F.
     The SHARK Integral Generation and Digestion System
     J. Comp. Chem., 2022  1-16
     doi.org/10.1002/jcc.26942
  6. Lehtola,S.; Steigemann,C.; Oliveira,M.; Marques,M.
     Recent developments in Libxc - A comprehensive library of functionals for density functional theory
     Software X, 2018 7 
     doi.org/10.1016/j.softx.2017.11.002
  7. Grimme,S.; Antony,J.; Ehrlich,S.; Krieg,H.
     A consistent and accurate ab initio parametrization of density functional dispersion correction (DFT-D) for the 94 elements H-Pu
     J. Chem. Phys., 2010 132 154104
     doi.org/10.1063/1.3382344
  8. Grimme,S.; Ehrlich,S.; Goerigk,L.
     Effect of the damping function in dispersion corrected density functional theory
     J. Comput. Chem., 2011 32(7)1456-1465
     doi.org/10.1002/jcc.21759
  9. Bursch,M.; Neugebauer,H.; Ehlert,S.; Grimme,S.
     Dispersion corrected r2SCAN based global hybrid functionals: r2SCANh, r2SCAN0, and r2SCAN50
     J. Phys. Chem., 2022 156(13)134105
     doi.org/10.1063/5.0086040

List of suggested additional citations. These are papers that are important in the 'surrounding' of 
of this run, or papers that preceded the highly important papers. If you like your results we are grateful for a citation.

  1. Izsak,R.; Neese,F.
     An overlap fitted chain of spheres exchange method
     J. Chem. Phys., 2011 135 144105
     doi.org/10.1063/1.3646921
  2. Izsak,R.; Hansen,A.; Neese,F.
     The resolution of identity and chain of spheres approximations for the LPNO-CCSD singles Fock term
     Molec. Phys., 2012 110 2413-2417
     doi.org/10.1080/00268976.2012.687466
  3. Neese,F.
     The ORCA program system
     WIRES Comput. Molec. Sci., 2012 2(1)73-78
     doi.org/10.1002/wcms.81
  4. Izsak,R.; Neese,F.; Klopper,W.
     Robust fitting techniques in the chain of spheres approximation to the Fock exchange: The role of the complementary space
     J. Chem. Phys., 2013 139 
     doi.org/10.1063/1.4819264
  5. Neese,F.
     Software update: the ORCA program system, version 4.0
     WIRES Comput. Molec. Sci., 2018 8(1)1-6
     doi.org/10.1002/wcms.1327
  6. Neese,F.; Wennmohs,F.; Becker,U.; Riplinger,C.
     The ORCA quantum chemistry program package
     J. Chem. Phys., 2020 152 Art. No. L224108
     doi.org/10.1063/5.0004608
  7. Wittmann,L.; Neugebauer,H.; Grimme,S.; Bursch,M.
     Dispersion-corrected r2SCAN based double-hybrid functionals
     J. Chem. Phys., 2023 159(22)224103
     doi.org/10.1063/5.0174988

List of optional additional citations

  1. Neese,F.
     Approximate second-order SCF convergence for spin unrestricted wavefunctions
     Chem. Phys. Lett., 2000 325(1-3)93-98
     doi.org/10.1016/s0009-2614(00)00662-x

Timings for individual modules:

Sum of individual times          ...     3458.024 sec (=  57.634 min)
Startup calculation              ...      196.103 sec (=   3.268 min)   5.7 %
SCF iterations                   ...     2391.667 sec (=  39.861 min)  69.2 %
Property calculations            ...        1.082 sec (=   0.018 min)   0.0 %
SCF Gradient evaluation          ...      868.250 sec (=  14.471 min)  25.1 %
Geometry relaxation              ...        0.922 sec (=   0.015 min)   0.0 %
                             ****ORCA TERMINATED NORMALLY****
TOTAL RUN TIME: 0 days 0 hours 58 minutes 9 seconds 271 msec
