
                                 *****************
                                 * O   R   C   A *
                                 *****************

                                            #,                                       
                                            ###                                      
                                            ####                                     
                                            #####                                    
                                            ######                                   
                                           ########,                                 
                                     ,,################,,,,,                         
                               ,,#################################,,                 
                          ,,##########################################,,             
                       ,#########################################, ''#####,          
                    ,#############################################,,   '####,        
                  ,##################################################,,,,####,       
                ,###########''''           ''''###############################       
              ,#####''   ,,,,##########,,,,          '''####'''          '####       
            ,##' ,,,,###########################,,,                        '##       
           ' ,,###''''                  '''############,,,                           
         ,,##''                                '''############,,,,        ,,,,,,###''
      ,#''                                            '''#######################'''  
     '                                                          ''''####''''         
             ,#######,   #######,   ,#######,      ##                                
            ,#'     '#,  ##    ##  ,#'     '#,    #''#        ,####,   ,####,        
            ##       ##  ##   ,#'  ##            #'  '#       #'       #'  '#        
            ##       ##  #######   ##           ,######,      #####,   #    #        
            '#,     ,#'  ##    ##  '#,     ,#' ,#      #,     #,   #   #,  ,#        
             '#######'   ##     ##  '#######'  #'      '#     '####' # '####'        



                #########################################################
                #                        -***-                          #
                #          Department of theory and spectroscopy        #
                #                                                       #
                #                      Frank Neese                      #
                #                                                       #
                #     Directorship, Architecture, Infrastructure        #
                #                    SHARK, DRIVERS                     #
                #        Core code/Algorithms in most modules           #
                #                                                       #
                #        Max Planck Institute fuer Kohlenforschung      #
                #                Kaiser Wilhelm Platz 1                 #
                #                 D-45470 Muelheim/Ruhr                 #
                #                      Germany                          #
                #                                                       #
                #                  All rights reserved                  #
                #                        -***-                          #
                #########################################################


                         Program Version 6.0.1  -  RELEASE   -


 With contributions from (in alphabetic order):
[Max-Planck-Institut fuer Kohlenforschung]                               
  Daniel Aravena         : Magnetic Suceptibility                        
  Michael Atanasov       : Ab Initio Ligand Field Theory (pilot matlab implementation)
  Alexander A. Auer      : GIAO ZORA, VPT2 properties, NMR spectrum      
  Ute Becker             : All parallelization in ORCA, NUMFREQ, NUMCALC 
  Giovanni Bistoni       : ED, misc. LED, open-shell LED, HFLD           
  Martin Brehm           : Molecular dynamics                            
  Dmytro Bykov           : pre 5.0 version of the SCF Hessian            
  Marcos Casanova-Páez   : Triplet and SCS-CIS(D). UHF-(DLPNO)-IP/EA/STEOM-CCSD. UHF-CVS-IP/STEOM-CCSD   
  Vijay G. Chilkuri      : MRCI spin determinant printing, contributions to CSF-ICE 
  Pauline Colinet        : FMM embedding                                 
  Dipayan Datta          : RHF DLPNO-CCSD density                        
  Achintya Kumar Dutta   : EOM-CC, STEOM-CC                              
  Nicolas Foglia         : Exact transition moments, OPA infrastructure, MCD improvements    
  Dmitry Ganyushin       : Spin-Orbit,Spin-Spin,Magnetic field MRCI      
  Miquel Garcia-Rates    : C-PCM and meta-GGA Hessian, CCSD/C-PCM, Gaussian charge scheme 
  Tiago L. C. Gouveia    : GS-ROHF, GS-ROCIS                             
  Yang Guo               : DLPNO-NEVPT2, F12-NEVPT2, CIM, IAO-localization        
  Andreas Hansen         : Spin unrestricted coupled pair/coupled cluster methods 
  Ingolf Harden          : AUTO-CI MPn and infrastructure                
  Benjamin Helmich-Paris : MC-RPA, TRAH-(SCF,CASSCF), AVAS, COSX integrals, SCF dyn. polar. 
  Lee Huntington         : MR-EOM, pCC                                   
  Robert Izsak           : Overlap fitted RIJCOSX, COSX-SCS-MP3, EOM     
  Riya Kayal             : Wick's Theorem for AUTO-CI, AUTO-CI UHF-CCSDT 
  Emily Kempfer          : AUTO-CI, RHF CISDT and CCSDT                  
  Christian Kollmar      : KDIIS, OOCD, Brueckner-CCSD(T), CCSD density, CASPT2, CASPT2-K, improved NEVPT2 
  Axel Koslowski         : Symmetry handling                             
  Simone Kossmann        : meta-GGA functionals, TD-DFT gradient, OOMP2, (MP2 Hessian; deprecated post 5.0) 
  Lucas Lang             : DCDCAS                                        
  Marvin Lechner         : AUTO-CI (C++ implementation), FIC-MRCC        
  Spencer Leger          : CASSCF response                               
  Dagmar Lenk            : GEPOL surface, SMD, ORCA-2-JSON               
  Dimitrios Liakos       : Extrapolation schemes; Compound Job, initial MDCI parallelization 
  Dimitrios Manganas     : Further ROCIS development; embedding schemes. LFT, Crystal Embedding 
  Dimitrios Pantazis     : SARC Basis sets                               
  Anastasios Papadopoulos: AUTO-CI, single reference methods and gradients 
  Taras Petrenko         : pre 6.0 DFT Hessian and TD-DFT gradient, (ASA, deprecated), ECA, 1-Electron XAS/XES, NRVS 
  Peter Pinski           : DLPNO-MP2, DLPNO-MP2 Gradient                 
  Christoph Reimann      : Effective Core Potentials                     
  Marius Retegan         : Local ZFS, SOC                                
  Christoph Riplinger    : Optimizer, TS searches, QM/MM, DLPNO-CCSD(T), (RO)-DLPNO pert. Triples 
  Michael Roemelt        : Original ROCIS implementation                 
  Masaaki Saitow         : Open-shell DLPNO-CCSD energy and density      
  Barbara Sandhoefer     : DKH picture change effects                    
  Kantharuban Sivalingam : CASSCF convergence/infrastructure, NEVPT2 and variants, FIC-MRCI 
  Bernardo de Souza      : ESD, SOC TD-DFT                               
  Georgi L. Stoychev     : AutoAux, RI-MP2 NMR, DLPNO-MP2 response, X2C  
  Van Anh Tran           : RI-MP2 g-tensors                              
  Willem Van den Heuvel  : Paramagnetic NMR                              
  Zikuan Wang            : NOTCH, Electric field optimization            
  Frank Wennmohs         : Technical directorship and infrastructure     
  Hang Xu                : AUTO-CI-Response properties                   
                                                                         
[FACCTs GmbH]                                                            
  Markus Bursch, Miquel Garcia-Rates, Christoph Riplinger, Bernardo de Souza, Georgi L. Stoychev 
                                                                 
  APM, Basis sets (HGBS, AHGBS, def-TZVP (Ac-Lr), def2-XVPD (La-Lu)), CI-OPT, improved COSX, DLPNO-Multilevel,           
  DOCKER, DRACO, updates on ESD, GOAT, IRC, LR-CPCM, MBIS, meta-GGA TD-DFT gradient, ML-optimized integration grids, 
  MM, NACMEs, nearIR, NEB, NEB-TS, NL-DFT gradient (VV10), 2- and 3-layer-ONIOM, interface openCOSMO-RS, QMMM,   
  Crystal-QMMM, SF, symmetry and pop. for TD-DFT, r2SCAN hybrids, SOLVATOR                                   
                                                                         
[Other institutions]                                                     
  V. Asgeirsson          : NEB                                           
  Christoph Bannwarth    : sTDA-DFT, sTD-DFT, PBEh-3c, B97-3c, D3        
  Sebastian Ehlert       : rSCAN, r2SCAN, r2SCAN-3c, D4, dhf basis sets  
  Marvin Friede          : D4 for Fr, Ra, Ac-Lr                          
  Lars Goerigk           : TD-DFT with DH, B97 family of functionals     
  Stefan Grimme          : VdW corrections, initial TS optimization, DFT functionals, gCP, sTDA/sTD-DF 
  Waldemar Hujo          : DFT-NL                                        
  H. Jonsson             : NEB                                           
  Holger Kruse           : gCP                                           
  Marcel Mueller         : wB97X-3c, vDZP basis set                      
  Hagen Neugebauer       : wr2SCAN                                       
  Tobias Risthaus        : range-separated hybrid DFT                    
  Lukas Wittmann         : regularized MP2, r2SCAN double-hybrids, wr2SCAN        
                                                                         
We gratefully acknowledge several colleagues who have allowed us to      
interface, adapt or use parts of their codes:                            
  Ed Valeev, F. Pavosevic, A. Kumar             : LibInt (2-el integral package), F12 methods 
  Garnet Chan, S. Sharma, J. Yang, R. Olivares  : DMRG                   
  Ulf Ekstrom                                   : XCFun DFT Library      
  Mihaly Kallay                                 : mrcc  (arbitrary order and MRCC methods)
  Frank Weinhold                                : gennbo (NPA and NBO analysis)           
  Simon Mueller                                 : openCOSMO-RS                            
  Christopher J. Cramer and Donald G. Truhlar   : smd solvation model                     
  S Lehtola, MJT Oliveira, MAL Marques          : LibXC Library                           
  Liviu Ungur et al                             : ANISO software                          


 Your calculation uses the libint2 library for the computation of 2-el integrals
 For citations please refer to: http://libint.valeyev.net

 Your ORCA version has been built with support for libXC version: 6.2.2
 For citations please refer to: https://libxc.gitlab.io

 This ORCA versions uses:
   CBLAS   interface :  Fast vector & matrix operations
   LAPACKE interface :  Fast linear algebra routines
   SCALAPACK package :  Parallel linear algebra routines
   Shared memory     :  Shared parallel matrices
   BLAS/LAPACK       :  OpenBLAS 0.3.27  USE64BITINT DYNAMIC_ARCH NO_AFFINITY SkylakeX SINGLE_THREADED
        Core in use  :  SkylakeX
   Copyright (c) 2011-2014, The OpenBLAS Project


NOTE: MaxCore=8000 MB was set to SCF,MP2,MDCI,CIPSI,MRCI and CIS
      => If you want to overwrite this, your respective input block should be placed after the MaxCore statement
Your calculation utilizes the atom-pairwise dispersion correction
with the Becke-Johnson damping scheme (D3BJ)


Your calculation utilizes the SMD solvation module
Please cite in your paper:
A.V. Marenich, C.J. Cramer, D.G. Truhlar J. Phys. Chem. B, 113, (2009), 6378 

Warning: RI is on but no J-basis has been assigned. Assigning Def2/J (nothing to worry about!)
================================================================================

----- Orbital basis set information -----
Your calculation utilizes the basis: def2-TZVP
   F. Weigend and R. Ahlrichs, Phys. Chem. Chem. Phys. 7, 3297 (2005).

----- AuxJ basis set information -----
Your calculation utilizes the auxiliary basis: def2/J
   F. Weigend, Phys. Chem. Chem. Phys. 8, 1057 (2006).

================================================================================
                                        WARNINGS
                       Please study these warnings very carefully!
================================================================================


WARNING: your system is open-shell and RHF/RKS was chosen
  ===> : WILL SWITCH to UHF/UKS


================================================================================
                                       INPUT FILE
================================================================================
NAME = rf_mecn_freq_TP_C4_D_B.inp
|  1> !TPSSh def2-TZVP freq d3 TightSCF SlowConv defgrid2
|  2>  
|  3> %pal
|  4> nprocs 20
|  5> end
|  6>  
|  7> %scf
|  8> MaxIter 1500
|  9> end
| 10>  
| 11> %maxcore 8000
| 12>  
| 13> !CPCM
| 14> %cpcm smd true
| 15> SMDsolvent "ACETONITRILE"
| 16> end
| 17>  
| 18> * xyz -1 2
| 19> 6        3.844448000     -0.797963000     -1.079630000
| 20> 8        3.409352000     -1.604697000     -1.916931000
| 21> 8        4.887223000     -0.120273000     -1.040415000
| 22> 6        2.906484000     -0.566402000      0.173469000
| 23> 6        2.183657000      0.813513000      0.154834000
| 24> 6        0.984860000      0.906165000      1.050642000
| 25> 6       -0.439053000      1.215929000      0.690151000
| 26> 6       -1.269851000     -0.014549000      0.185739000
| 27> 6       -2.817708000      0.208223000      0.154339000
| 28> 6       -3.597725000     -0.797464000     -0.750786000
| 29> 9        1.921054000     -1.518271000      0.260672000
| 30> 9        3.615620000     -0.651422000      1.343819000
| 31> 9        3.083164000      1.783412000      0.508963000
| 32> 9        1.794817000      1.069005000     -1.126050000
| 33> 9        1.167274000      0.487749000      2.298674000
| 34> 9       -1.066144000      1.690288000      1.803266000
| 35> 9       -0.479791000      2.173922000     -0.267196000
| 36> 9       -1.014843000     -1.057640000      1.008671000
| 37> 9       -0.842780000     -0.337234000     -1.056052000
| 38> 9       -3.094457000      1.452426000     -0.293759000
| 39> 9       -3.298252000      0.085991000      1.409131000
| 40> 9       -3.238080000     -2.056670000     -0.479490000
| 41> 9       -4.907549000     -0.666278000     -0.514413000
| 42> 9       -3.374343000     -0.550641000     -2.043266000
| 43> *
| 44> 
| 45>                          ****END OF INPUT****
================================================================================

                       ****************************
                       * Single Point Calculation *
                       ****************************

---------------------------------
CARTESIAN COORDINATES (ANGSTROEM)
---------------------------------
  C      3.844448   -0.797963   -1.079630
  O      3.409352   -1.604697   -1.916931
  O      4.887223   -0.120273   -1.040415
  C      2.906484   -0.566402    0.173469
  C      2.183657    0.813513    0.154834
  C      0.984860    0.906165    1.050642
  C     -0.439053    1.215929    0.690151
  C     -1.269851   -0.014549    0.185739
  C     -2.817708    0.208223    0.154339
  C     -3.597725   -0.797464   -0.750786
  F      1.921054   -1.518271    0.260672
  F      3.615620   -0.651422    1.343819
  F      3.083164    1.783412    0.508963
  F      1.794817    1.069005   -1.126050
  F      1.167274    0.487749    2.298674
  F     -1.066144    1.690288    1.803266
  F     -0.479791    2.173922   -0.267196
  F     -1.014843   -1.057640    1.008671
  F     -0.842780   -0.337234   -1.056052
  F     -3.094457    1.452426   -0.293759
  F     -3.298252    0.085991    1.409131
  F     -3.238080   -2.056670   -0.479490
  F     -4.907549   -0.666278   -0.514413
  F     -3.374343   -0.550641   -2.043266

----------------------------
CARTESIAN COORDINATES (A.U.)
----------------------------
  NO LB      ZA    FRAG     MASS         X           Y           Z
   0 C     6.0000    0    12.011    7.264954   -1.507932   -2.040205
   1 O     8.0000    0    15.999    6.442742   -3.032438   -3.622475
   2 O     8.0000    0    15.999    9.235513   -0.227283   -1.966099
   3 C     6.0000    0    12.011    5.492459   -1.070345    0.327809
   4 C     6.0000    0    12.011    4.126514    1.537317    0.292594
   5 C     6.0000    0    12.011    1.861116    1.712404    1.985426
   6 C     6.0000    0    12.011   -0.829690    2.297773    1.304196
   7 C     6.0000    0    12.011   -2.399671   -0.027494    0.350996
   8 C     6.0000    0    12.011   -5.324696    0.393484    0.291658
   9 C     6.0000    0    12.011   -6.798715   -1.506989   -1.418780
  10 F     9.0000    0    18.998    3.630266   -2.869116    0.492599
  11 F     9.0000    0    18.998    6.832532   -1.231009    2.539450
  12 F     9.0000    0    18.998    5.826336    3.370160    0.961801
  13 F     9.0000    0    18.998    3.391713    2.020127   -2.127926
  14 F     9.0000    0    18.998    2.205828    0.921712    4.343864
  15 F     9.0000    0    18.998   -2.014720    3.194181    3.407679
  16 F     9.0000    0    18.998   -0.906674    4.108117   -0.504927
  17 F     9.0000    0    18.998   -1.917775   -1.998650    1.906112
  18 F     9.0000    0    18.998   -1.592623   -0.637280   -1.995649
  19 F     9.0000    0    18.998   -5.847676    2.744687   -0.555124
  20 F     9.0000    0    18.998   -6.232793    0.162499    2.662872
  21 F     9.0000    0    18.998   -6.119084   -3.886543   -0.906105
  22 F     9.0000    0    18.998   -9.273924   -1.259083   -0.972100
  23 F     9.0000    0    18.998   -6.376584   -1.040561   -3.861213

--------------------------------
INTERNAL COORDINATES (ANGSTROEM)
--------------------------------
 C      0   0   0     0.000000000000     0.00000000     0.00000000
 O      1   0   0     1.241451263873     0.00000000     0.00000000
 O      1   2   0     1.244259319013   131.98303215     0.00000000
 C      1   2   3     1.582293925229   114.92788241   179.43961103
 C      4   1   2     1.557880464727   113.27821793   253.37369082
 C      5   4   1     1.499390080392   114.74315066   161.40899846
 C      6   5   4     1.501144805922   128.87815003   239.10274282
 C      7   6   5     1.568034722521   114.70179616    83.55689964
 C      8   7   6     1.564121036376   114.77253014   165.27277175
 C      9   8   7     1.561756744145   114.46736803   161.30468642
 F      4   1   2     1.372855142129   111.98330423    13.67651599
 F      4   1   2     1.371065785948   111.12110609   131.88949313
 F      5   4   1     1.369388280179   108.63234591   283.77021701
 F      5   4   1     1.362767965987   108.04082002    39.88884162
 F      6   5   4     1.328883249001   115.58774234    49.25945000
 F      7   6   5     1.362822287163   108.18884609   202.86790758
 F      7   6   5     1.354962527564   110.12615877   321.28980351
 F      8   7   6     1.352880257439   108.02858094    44.77038802
 F      8   7   6     1.352242632055   108.38094037   287.55664035
 F      9   8   7     1.351082133630   109.90872615    40.40205495
 F      9   8   7     1.349209457803   108.71676432   281.66190196
 F     10   9   8     1.337365244081   110.75865264    49.64634056
 F     10   9   8     1.337430698280   108.87756292   169.06146539
 F     10   9   8     1.334663126655   111.01173381   288.41109932

---------------------------
INTERNAL COORDINATES (A.U.)
---------------------------
 C      0   0   0     0.000000000000     0.00000000     0.00000000
 O      1   0   0     2.346002897331     0.00000000     0.00000000
 O      1   2   0     2.351309352513   131.98303215     0.00000000
 C      1   2   3     2.990102182051   114.92788241   179.43961103
 C      4   1   2     2.943967427721   113.27821793   253.37369082
 C      5   4   1     2.833436619858   114.74315066   161.40899846
 C      6   5   4     2.836752570551   128.87815003   239.10274282
 C      7   6   5     2.963156194044   114.70179616    83.55689964
 C      8   7   6     2.955760399055   114.77253014   165.27277175
 C      9   8   7     2.951292534239   114.46736803   161.30468642
 F      4   1   2     2.594320240169   111.98330423    13.67651599
 F      4   1   2     2.590938847030   111.12110609   131.88949313
 F      5   4   1     2.587768820539   108.63234591   283.77021701
 F      5   4   1     2.575258239796   108.04082002    39.88884162
 F      6   5   4     2.511225404568   115.58774234    49.25945000
 F      7   6   5     2.575360891941   108.18884609   202.86790758
 F      7   6   5     2.560508098821   110.12615877   321.28980351
 F      8   7   6     2.556573178549   108.02858094    44.77038802
 F      8   7   6     2.555368241197   108.38094037   287.55664035
 F      9   8   7     2.553175216995   109.90872615    40.40205495
 F      9   8   7     2.549636372543   108.71676432   281.66190196
 F     10   9   8     2.527254052339   110.75865264    49.64634056
 F     10   9   8     2.527377742848   108.87756292   169.06146539
 F     10   9   8     2.522147790421   111.01173381   288.41109932

---------------------
BASIS SET INFORMATION
---------------------
There are 3 groups of distinct atoms

 Group   1 Type C   : 11s6p2d1f contracted to 5s3p2d1f pattern {62111/411/11/1}
 Group   2 Type O   : 11s6p2d1f contracted to 5s3p2d1f pattern {62111/411/11/1}
 Group   3 Type F   : 11s6p2d1f contracted to 5s3p2d1f pattern {62111/411/11/1}

Atom   0C    basis set group =>   1
Atom   1O    basis set group =>   2
Atom   2O    basis set group =>   2
Atom   3C    basis set group =>   1
Atom   4C    basis set group =>   1
Atom   5C    basis set group =>   1
Atom   6C    basis set group =>   1
Atom   7C    basis set group =>   1
Atom   8C    basis set group =>   1
Atom   9C    basis set group =>   1
Atom  10F    basis set group =>   3
Atom  11F    basis set group =>   3
Atom  12F    basis set group =>   3
Atom  13F    basis set group =>   3
Atom  14F    basis set group =>   3
Atom  15F    basis set group =>   3
Atom  16F    basis set group =>   3
Atom  17F    basis set group =>   3
Atom  18F    basis set group =>   3
Atom  19F    basis set group =>   3
Atom  20F    basis set group =>   3
Atom  21F    basis set group =>   3
Atom  22F    basis set group =>   3
Atom  23F    basis set group =>   3
---------------------------------
AUXILIARY/J BASIS SET INFORMATION
---------------------------------
There are 3 groups of distinct atoms

 Group   1 Type C   : 12s5p4d2f1g contracted to 6s4p3d1f1g pattern {711111/2111/211/2/1}
 Group   2 Type O   : 12s5p4d2f1g contracted to 6s4p3d1f1g pattern {711111/2111/211/2/1}
 Group   3 Type F   : 12s5p4d2f1g contracted to 6s4p3d1f1g pattern {711111/2111/211/2/1}

Atom   0C    basis set group =>   1
Atom   1O    basis set group =>   2
Atom   2O    basis set group =>   2
Atom   3C    basis set group =>   1
Atom   4C    basis set group =>   1
Atom   5C    basis set group =>   1
Atom   6C    basis set group =>   1
Atom   7C    basis set group =>   1
Atom   8C    basis set group =>   1
Atom   9C    basis set group =>   1
Atom  10F    basis set group =>   3
Atom  11F    basis set group =>   3
Atom  12F    basis set group =>   3
Atom  13F    basis set group =>   3
Atom  14F    basis set group =>   3
Atom  15F    basis set group =>   3
Atom  16F    basis set group =>   3
Atom  17F    basis set group =>   3
Atom  18F    basis set group =>   3
Atom  19F    basis set group =>   3
Atom  20F    basis set group =>   3
Atom  21F    basis set group =>   3
Atom  22F    basis set group =>   3
Atom  23F    basis set group =>   3


           ************************************************************
           *        Program running with 20 parallel MPI-processes    *
           *              working on a common directory               *
           ************************************************************
------------------------------------------------------------------------------
                             ORCA STARTUP CALCULATIONS
                           -- RI-GTO INTEGRALS CHOSEN --
------------------------------------------------------------------------------
------------------------------------------------------------------------------
                   ___                                                        
                  /   \      - P O W E R E D   B Y -                         
                 /     \                                                     
                 |  |  |   _    _      __       _____    __    __             
                 |  |  |  | |  | |    /  \     |  _  \  |  |  /  |          
                  \  \/   | |  | |   /    \    | | | |  |  | /  /          
                 / \  \   | |__| |  /  /\  \   | |_| |  |  |/  /          
                |  |  |   |  __  | /  /__\  \  |    /   |      \           
                |  |  |   | |  | | |   __   |  |    \   |  |\   \          
                \     /   | |  | | |  |  |  |  | |\  \  |  | \   \       
                 \___/    |_|  |_| |__|  |__|  |_| \__\ |__|  \__/        
                                                                              
                      - O R C A' S   B I G   F R I E N D -                    
                                      &                                       
                       - I N T E G R A L  F E E D E R -                       
                                                                              
 v1 FN, 2020, v2 2021, v3 2022-2024                                           
------------------------------------------------------------------------------


----------------------
SHARK INTEGRAL PACKAGE
----------------------

Number of atoms                             ...     24
Number of basis functions                   ...    744
Number of shells                            ...    264
Maximum angular momentum                    ...      3
Integral batch strategy                     ... SHARK/LIBINT Hybrid
RI-J (if used) integral strategy            ... SPLIT-RIJ (Revised 2003 algorithm where possible)
Printlevel                                  ...      1
Contraction scheme used                     ... SEGMENTED contraction
Prescreening option                         ... SCHWARTZ
   Thresh                                   ... 2.500e-11
   Tcut                                     ... 2.500e-12
   Tpresel                                  ... 2.500e-12 
Coulomb Range Separation                    ... NOT USED
Exchange Range Separation                   ... NOT USED
Multipole approximations                    ... NOT USED
Finite Nucleus Model                        ... NOT USED
CABS basis                                  ... NOT available
Auxiliary Coulomb fitting basis             ... AVAILABLE
   # of basis functions in Aux-J            ...   1176
   # of shells in Aux-J                     ...    360
   Maximum angular momentum in Aux-J        ...      4
Auxiliary J/K fitting basis                 ... NOT available
Auxiliary Correlation fitting basis         ... NOT available
Auxiliary 'external' fitting basis          ... NOT available

Checking pre-screening integrals            ... done (  0.0 sec) Dimension = 264
Check shell pair data                       ... done (  0.0 sec)
Shell pair information
Shell pair cut-off parameter TPreSel        ...   2.5e-12
Total number of shell pairs                 ...     34980
Shell pairs after pre-screening             ...     22451
Total number of primitive shell pairs       ...    115968
Primitive shell pairs kept                  ...     47601
          la=0 lb=0:   4193 shell pairs
          la=1 lb=0:   6108 shell pairs
          la=1 lb=1:   2126 shell pairs
          la=2 lb=0:   3331 shell pairs
          la=2 lb=1:   2473 shell pairs
          la=2 lb=2:    702 shell pairs
          la=3 lb=0:   1528 shell pairs
          la=3 lb=1:   1201 shell pairs
          la=3 lb=2:    632 shell pairs
          la=3 lb=3:    157 shell pairs

Calculating one electron integrals          ... done (  0.0 sec)
Calculating RI/J V-Matrix + Cholesky decomp.... done (  0.1 sec)
Calculating Nuclear repulsion               ... done (  0.0 sec) ENN=   2660.924430604248 Eh

Diagonalization of the overlap matrix:
Smallest eigenvalue                        ... 7.917e-05
Time for diagonalization                   ...    0.116 sec
Threshold for overlap eigenvalues          ... 1.000e-07
Number of eigenvalues below threshold      ... 0
Time for construction of square roots      ...    0.052 sec
Total time needed                          ...    0.173 sec

-------------------
DFT GRID GENERATION
-------------------

General Integration Accuracy     IntAcc      ... 4.388
Radial Grid Type                 RadialGrid  ... OptM3 with GC (2021)
Angular Grid (max. ang.)         AngularGrid ... 4 (Lebedev-302)
Angular grid pruning method      GridPruning ... 4 (adaptive)
Weight generation scheme         WeightScheme... mBecke (2022)
Basis function cutoff            BFCut       ... 1.0000e-11
Integration weight cutoff        WCut        ... 1.0000e-14
Partially contracted basis set               ... off
Rotationally invariant grid construction     ... off
Angular grids for H and He will be reduced by one unit

Total number of grid points                  ...   145436
Total number of batches                      ...     2286
Average number of points per batch           ...       63
Average number of grid points per atom       ...     6060

--------------------
COSX GRID GENERATION
--------------------

GRIDX 1
-------
General Integration Accuracy     IntAcc      ... 3.816
Radial Grid Type                 RadialGrid  ... OptM3 with GC (2021)
Angular Grid (max. ang.)         AngularGrid ... 1 (Lebedev-50)
Angular grid pruning method      GridPruning ... 4 (adaptive)
Weight generation scheme         WeightScheme... mBecke (2022)
Basis function cutoff            BFCut       ... 1.0000e-11
Integration weight cutoff        WCut        ... 1.0000e-14
Partially contracted basis set               ... on
Rotationally invariant grid construction     ... off
Angular grids for H and He will be reduced by one unit

Total number of grid points                  ...    18243
Total number of batches                      ...      153
Average number of points per batch           ...      119
Average number of grid points per atom       ...      760
UseSFitting                                  ... on

GRIDX 2
-------
General Integration Accuracy     IntAcc      ... 4.020
Radial Grid Type                 RadialGrid  ... OptM3 with GC (2021)
Angular Grid (max. ang.)         AngularGrid ... 2 (Lebedev-110)
Angular grid pruning method      GridPruning ... 4 (adaptive)
Weight generation scheme         WeightScheme... mBecke (2022)
Basis function cutoff            BFCut       ... 1.0000e-11
Integration weight cutoff        WCut        ... 1.0000e-14
Partially contracted basis set               ... on
Rotationally invariant grid construction     ... off
Angular grids for H and He will be reduced by one unit

Total number of grid points                  ...    43236
Total number of batches                      ...      351
Average number of points per batch           ...      123
Average number of grid points per atom       ...     1802
UseSFitting                                  ... on

GRIDX 3
-------
General Integration Accuracy     IntAcc      ... 4.338
Radial Grid Type                 RadialGrid  ... OptM3 with GC (2021)
Angular Grid (max. ang.)         AngularGrid ... 3 (Lebedev-194)
Angular grid pruning method      GridPruning ... 4 (adaptive)
Weight generation scheme         WeightScheme... mBecke (2022)
Basis function cutoff            BFCut       ... 1.0000e-11
Integration weight cutoff        WCut        ... 1.0000e-14
Partially contracted basis set               ... on
Rotationally invariant grid construction     ... off
Angular grids for H and He will be reduced by one unit

Total number of grid points                  ...    95862
Total number of batches                      ...      761
Average number of points per batch           ...      125
Average number of grid points per atom       ...     3994
UseSFitting                                  ... on
Initializing property integral containers    ... done (  0.0 sec)

SHARK setup successfully completed in   3.4 seconds

Maximum memory used throughout the entire STARTUP-calculation: 57.7 MB


           ************************************************************
           *        Program running with 20 parallel MPI-processes    *
           *              working on a common directory               *
           ************************************************************
-------------------------------------------------------------------------------
                                 ORCA GUESS
                   Start orbitals & Density for SCF / CASSCF
-------------------------------------------------------------------------------

------------
SCF SETTINGS
------------
Hamiltonian:
 Density Functional     Method          .... DFT(GTOs)
 Exchange Functional    Exchange        .... TPSS
 Correlation Functional Correlation     .... TPSS
 LDA part of GGA corr.  LDAOpt          .... PW91-LDA
 Gradients option       PostSCFGGA      .... off
 Hybrid DFT is turned on
   Fraction HF Exchange ScalHFX         ....  0.100000
   Scaling of DF-GGA-X  ScalDFX         ....  0.900000
   Scaling of DF-GGA-C  ScalDFC         ....  1.000000
   Scaling of DF-LDA-C  ScalLDAC        ....  1.000000
   Perturbative correction              ....  0.000000
   NL short-range parameter             ....  5.200000
 RI-approximation to the Coulomb term is turned on
   Number of AuxJ basis functions       .... 1176
   RIJ-COSX (HFX calculated with COS-X)).... on


General Settings:
 Integral files         IntName         .... rf_mecn_freq_TP_C4_D_B
 Hartree-Fock type      HFTyp           .... UHF
 Total Charge           Charge          ....   -1
 Multiplicity           Mult            ....    2
 Number of Electrons    NEL             ....  191
 Basis Dimension        Dim             ....  744
 Nuclear Repulsion      ENuc            ....   2660.9244306042 Eh

Convergence Acceleration:
 AO-DIIS                CNVDIIS         .... on
   Start iteration      DIISMaxIt       ....     0
   Startup error        DIISStart       ....  0.200000
   # of expansion vecs  DIISMaxEq       ....     5
   Bias factor          DIISBfac        ....   1.050
   Max. coefficient     DIISMaxC        ....  10.000
 MO-DIIS                CNVKDIIS        .... off
 Trust-Rad. Augm. Hess. CNVTRAH         .... auto
   Auto Start mean grad. ratio tolernc. ....  1.125000
   Auto Start start iteration           ....    50
   Auto Start num. interpolation iter.  ....    10
   Max. Number of Micro iterations      ....    24
   Max. Number of Macro iterations      .... Maxiter - #DIIS iter
   Number of Davidson start vectors     ....     2
   Converg. threshold    (grad. norm)   ....   1.000e-05
   Grad. Scal. Fac. for Micro threshold ....   0.100
   Minimum threshold for Micro iter.    ....   1.000e-02
   NR start threshold (gradient norm)   ....   1.000e-04
   Initial trust radius                 ....   0.400
   Minimum AH scaling param. (alpha)    ....   1.000
   Maximum AH scaling param. (alpha)    .... 1000.000
   Quad. conv. algorithm                .... NR
   White noise on init. David. guess    .... on
   Maximum white noise                  ....   0.010
   Pseudo random numbers                .... off
   Inactive MOs                         .... canonical
   Orbital update algorithm             .... Taylor
   Preconditioner                       .... Diag
   Full preconditioner red. dimension   ....   250
 SOSCF                  CNVSOSCF        .... on
   Start iteration      SOSCFMaxIt      ....   150
   Startup grad/error   SOSCFStart      ....  0.001000
   Hessian update       SOSCFHessUp     .... L-BFGS
 Level Shifting         CNVShift        .... on
   Level shift para.    LevelShift      ....    0.2500
   Turn off err/grad.   ShiftErr        ....    0.0000
 Zerner damping         CNVZerner       .... off
 Static damping         CNVDamp         .... on
   Fraction old density DampFac         ....    0.8500
   Max. Damping (<1)    DampMax         ....    0.9800
   Min. Damping (>=0)   DampMin         ....    0.0000
   Turn off err/grad.   DampErr         ....    0.0300

SCF Procedure:
 Maximum # iterations   MaxIter         ....  1500
 SCF integral mode      SCFMode         .... Direct
   Integral package                     .... SHARK and LIBINT hybrid scheme
 Reset frequency        DirectResetFreq ....    20
 Integral Threshold     Thresh          ....  2.500e-11 Eh
 Primitive CutOff       TCut            ....  2.500e-12 Eh

Convergence Tolerance:
 Convergence Check Mode ConvCheckMode   .... Total+1el-Energy
 Convergence forced     ConvForced      .... 0
 Energy Change          TolE            ....  1.000e-08 Eh
 1-El. energy change                    ....  1.000e-05 Eh
 Orbital Gradient       TolG            ....  1.000e-05
 Orbital Rotation angle TolX            ....  1.000e-05
 DIIS Error             TolErr          ....  5.000e-07

------------------------------
INITIAL GUESS: MODEL POTENTIAL
------------------------------
Loading Hartree-Fock densities                     ... done
Calculating cut-offs                               ... done
Initializing the effective Hamiltonian             ... done
Setting up the integral package (SHARK)            ... done
Starting the Coulomb interaction                   ... done (   0.2 sec)
Making the grid                                    ... done (   0.4 sec)
Mapping shells                                     ... done
Starting the XC term evaluation                    ... done (   0.1 sec)
  promolecular density results
     # of electrons  =    190.003225437
     EX              =   -197.181253153
     EC              =     -6.668341058
     EX+EC           =   -203.849594211
Transforming the Hamiltonian                       ... done (   0.1 sec)
Diagonalizing the Hamiltonian                      ... done (   0.1 sec)
Back transforming the eigenvectors                 ... done (   0.0 sec)
Now organizing SCF variables                       ... done
                      ------------------
                      INITIAL GUESS DONE (   1.1 sec)
                      ------------------
             **** ENERGY FILE WAS UPDATED (rf_mecn_freq_TP_C4_D_B.en.tmp) ****
Finished Guess after   1.8 sec
Maximum memory used throughout the entire GUESS-calculation: 47.0 MB


           ************************************************************
           *        Program running with 20 parallel MPI-processes    *
           *              working on a common directory               *
           ************************************************************

-------------------------------------------------------------------------------------------
                                      ORCA LEAN-SCF
                              memory conserving SCF solver
-------------------------------------------------------------------------------------------

--------------------
CPCM SOLVATION MODEL
--------------------
CPCM parameters:
  Epsilon                                         ...      35.6880
  Refrac                                          ...       1.3442
  Rsolv                                           ...       1.3000
  Surface type                                    ... GAUSSIAN VDW
  Discretization scheme                           ... Constant charge density
    Threshold for H atoms                         ...       5.0000 (charges/Ang^2)
    Threshold for non-H atoms                     ...       5.0000 (charges/Ang^2)
  Epsilon function type                           ...         CPCM
Solvent:                                          ... ACETONITRILE
SMD-CDS solvent descriptors:
  Soln                                            ...       1.3442
  Soln25                                          ...       1.3416
  Sola                                            ...       0.0700
  Solb                                            ...       0.3200
  Solg                                            ...      41.2500
  Solc                                            ...       0.0000
  Solh                                            ...       0.0000
Radii:
  Scheme                                          ... Element-dependent radii
  Radius for C  used is    3.4960 Bohr (=   1.8500 Ang.)
  Radius for O  used is    4.0969 Bohr (=   2.1680 Ang.)
  Radius for F  used is    3.2692 Bohr (=   1.7300 Ang.)
Calculating surface                               ...        done! (  0.0s)
Cavity surface points                             ...         2167
Cavity Volume                                     ...    2116.3503
Cavity Surface-area                               ...    1099.5809
Calculating surface distance matrix               ...        done! (  0.1s)
Performing Cholesky decomposition & store         ...        done! (  0.1s)
Overall time for CPCM initialization              ...                 0.2s

----------------------------------------D-I-I-S--------------------------------------------
Iteration    Energy (Eh)           Delta-E    RMSDP     MaxDP     DIISErr   Damp  Time(sec)
-------------------------------------------------------------------------------------------
               ***  Starting incremental Fock matrix formation  ***
    1    -1853.4888953212239358     0.00e+00  2.58e-04  2.78e-02  1.52e-01  0.850   7.6
Warning: op=0 Small HOMO/LUMO gap (   0.049) - skipping pre-diagonalization
         Will do a full diagonalization
    2    -1853.6268845439917641    -1.38e-01  3.41e-04  5.91e-02  1.05e-01  0.850   5.1
                               ***Turning on AO-DIIS***
    3    -1853.7008024178076084    -7.39e-02  1.68e-04  3.16e-02  6.22e-02  0.850   4.5
    4    -1853.7446025319177352    -4.38e-02  8.85e-05  1.41e-02  4.57e-02  0.850   4.4
    5    -1853.7756249132207813    -3.10e-02  5.54e-05  4.90e-03  3.75e-02  0.850   4.2
    6    -1853.8001902462938233    -2.46e-02  4.26e-05  3.89e-03  3.22e-02  0.850   4.3
    7    -1853.8206788344668894    -2.05e-02  3.73e-05  3.41e-03  2.80e-02  0.850   4.1
    8    -1853.8381110536638516    -1.74e-02  2.23e-04  1.88e-02  2.37e-02  0.000   4.0
    9    -1853.9298586814338705    -9.17e-02  2.70e-05  1.78e-03  3.74e-03  0.000   4.5
   10    -1853.9301180011188990    -2.59e-04  1.37e-05  2.09e-03  1.76e-03  0.000   3.9
                              *** Initializing SOSCF ***
---------------------------------------S-O-S-C-F--------------------------------------
Iteration    Energy (Eh)           Delta-E    RMSDP     MaxDP     MaxGrad    Time(sec)
--------------------------------------------------------------------------------------
   11    -1853.9302007334581504    -8.27e-05  9.05e-06  1.09e-03  9.65e-04     4.4
               *** Restarting incremental Fock matrix formation ***
   12    -1853.9302438880049522    -4.32e-05  1.86e-05  1.89e-03  1.39e-03     7.3
   13    -1853.9302772983928662    -3.34e-05  1.45e-05  1.40e-03  3.81e-04     5.3
   14    -1853.9302716823640367     5.62e-06  7.05e-06  6.18e-04  6.55e-04     5.1
   15    -1853.9302824708474873    -1.08e-05  3.22e-06  2.17e-04  1.38e-04     5.0
   16    -1853.9302813896629232     1.08e-06  1.96e-06  1.71e-04  1.69e-04     4.7
   17    -1853.9302830190863460    -1.63e-06  5.56e-07  4.01e-05  1.36e-05     4.6
   18    -1853.9302830097503829     9.34e-09  2.84e-07  2.40e-05  1.55e-05     4.0
                 **** Energy Check signals convergence ****

               *****************************************************
               *                     SUCCESS                       *
               *           SCF CONVERGED AFTER  18 CYCLES          *
               *****************************************************

Recomputing exchange energy using gridx3       ... done (    8.870 sec)
Old exchange energy                            :    -19.903788457 Eh
New exchange energy                            :    -19.903777669 Eh
Exchange energy change after final integration :      0.000010787 Eh
Total energy after final integration           :  -1853.930272222 Eh

SMD CDS free energy correction energy :                 3.13610     Kcal/mol
Total Energy after SMD CDS correction =             -1853.925274536 Eh
             **** ENERGY FILE WAS UPDATED (rf_mecn_freq_TP_C4_D_B.en.tmp) ****

----------------
TOTAL SCF ENERGY
----------------

Total Energy       :      -1853.92527453595312 Eh          -50447.87144 eV

Components:
Nuclear Repulsion  :       2660.92443060424830 Eh           72407.43488 eV
Electronic Energy  :      -4514.77156300694969 Eh         -122853.17996 eV
One Electron Energy:      -7897.45480053005394 Eh         -214900.67046 eV
Two Electron Energy:       3382.68323752310425 Eh           92047.49050 eV
CPCM Dielectric    :         -0.08315060704944 Eh              -2.26264 eV
SMD CDS (Gcds)     :          0.00499768637445 Eh               0.13599 eV

Virial components:
Potential Energy   :      -3701.56734415543906 Eh         -100724.76818 eV
Kinetic Energy     :       1847.64206961948594 Eh           50276.89674 eV
Virial Ratio       :          2.00340066131843

DFT components:
N(Alpha)           :       95.999959325028 electrons
N(Beta)            :       94.999945701058 electrons
N(Total)           :      190.999905026085 electrons
E(X)               :     -180.881090590359 Eh       
E(C)               :       -6.716006340263 Eh       
E(XC)              :     -187.597096930622 Eh       

CPCM Solvation Model Properties:
Surface-charge          :          0.99007102418724
Corrected charge        :          1.00000000000000
Outlying charge corr.   :          0.00000549251894 Eh               0.00015 eV
Free-energy (cav+disp)  :          0.00499768637445 Eh               0.13599 eV

---------------
SCF CONVERGENCE
---------------

  Last Energy change         ...   -9.3360e-09  Tolerance :   1.0000e-08
  Last MAX-Density change    ...    2.4020e-05  Tolerance :   1.0000e-07
  Last RMS-Density change    ...    2.8354e-07  Tolerance :   5.0000e-09
  Last DIIS Error            ...    9.6477e-04  Tolerance :   5.0000e-07
  Last Orbital Gradient      ...    1.5462e-05  Tolerance :   1.0000e-05
  Last Orbital Rotation      ...    2.9806e-05  Tolerance :   1.0000e-05


----------------------
UHF SPIN CONTAMINATION
----------------------

Warning: in a DFT calculation there is little theoretical justification to 
         calculate <S**2> as in Hartree-Fock theory. We will do it anyways
         but you should keep in mind that the values have only limited relevance

Expectation value of <S**2>     :     0.755501
Ideal value S*(S+1) for S=0.5   :     0.750000
Deviation                       :     0.005501

----------------
ORBITAL ENERGIES
----------------
                 SPIN UP ORBITALS
  NO   OCC          E(Eh)            E(eV) 
   0   1.0000     -24.662097      -671.0898 
   1   1.0000     -24.659625      -671.0225 
   2   1.0000     -24.658651      -670.9960 
   3   1.0000     -24.657881      -670.9751 
   4   1.0000     -24.656952      -670.9498 
   5   1.0000     -24.656246      -670.9306 
   6   1.0000     -24.655958      -670.9227 
   7   1.0000     -24.655021      -670.8972 
   8   1.0000     -24.648291      -670.7141 
   9   1.0000     -24.647964      -670.7052 
  10   1.0000     -24.635170      -670.3571 
  11   1.0000     -24.627760      -670.1554 
  12   1.0000     -24.613149      -669.7578 
  13   1.0000     -24.612479      -669.7396 
  14   1.0000     -18.987991      -516.6895 
  15   1.0000     -18.986376      -516.6456 
  16   1.0000     -10.393731      -282.8278 
  17   1.0000     -10.340685      -281.3844 
  18   1.0000     -10.337658      -281.3020 
  19   1.0000     -10.337211      -281.2898 
  20   1.0000     -10.314179      -280.6631 
  21   1.0000     -10.276439      -279.6361 
  22   1.0000     -10.254332      -279.0346 
  23   1.0000     -10.189120      -277.2600 
  24   1.0000      -1.320387       -35.9296 
  25   1.0000      -1.291208       -35.1356 
  26   1.0000      -1.275468       -34.7073 
  27   1.0000      -1.269745       -34.5515 
  28   1.0000      -1.258455       -34.2443 
  29   1.0000      -1.250445       -34.0263 
  30   1.0000      -1.234810       -33.6009 
  31   1.0000      -1.229757       -33.4634 
  32   1.0000      -1.229112       -33.4458 
  33   1.0000      -1.225772       -33.3550 
  34   1.0000      -1.218661       -33.1615 
  35   1.0000      -1.212294       -32.9882 
  36   1.0000      -1.196257       -32.5518 
  37   1.0000      -1.173472       -31.9318 
  38   1.0000      -0.996265       -27.1097 
  39   1.0000      -0.914977       -24.8978 
  40   1.0000      -0.825632       -22.4666 
  41   1.0000      -0.804495       -21.8914 
  42   1.0000      -0.765728       -20.8365 
  43   1.0000      -0.729411       -19.8483 
  44   1.0000      -0.685267       -18.6471 
  45   1.0000      -0.661548       -18.0016 
  46   1.0000      -0.632489       -17.2109 
  47   1.0000      -0.617405       -16.8004 
  48   1.0000      -0.614177       -16.7126 
  49   1.0000      -0.607282       -16.5250 
  50   1.0000      -0.593508       -16.1502 
  51   1.0000      -0.588210       -16.0060 
  52   1.0000      -0.587156       -15.9773 
  53   1.0000      -0.577336       -15.7101 
  54   1.0000      -0.572951       -15.5908 
  55   1.0000      -0.561351       -15.2751 
  56   1.0000      -0.560001       -15.2384 
  57   1.0000      -0.549462       -14.9516 
  58   1.0000      -0.548514       -14.9258 
  59   1.0000      -0.530905       -14.4467 
  60   1.0000      -0.519586       -14.1387 
  61   1.0000      -0.494832       -13.4651 
  62   1.0000      -0.481987       -13.1155 
  63   1.0000      -0.477082       -12.9821 
  64   1.0000      -0.472008       -12.8440 
  65   1.0000      -0.467841       -12.7306 
  66   1.0000      -0.464124       -12.6295 
  67   1.0000      -0.456691       -12.4272 
  68   1.0000      -0.452694       -12.3184 
  69   1.0000      -0.449077       -12.2200 
  70   1.0000      -0.442103       -12.0302 
  71   1.0000      -0.439357       -11.9555 
  72   1.0000      -0.436856       -11.8875 
  73   1.0000      -0.433226       -11.7887 
  74   1.0000      -0.432499       -11.7689 
  75   1.0000      -0.429380       -11.6840 
  76   1.0000      -0.421576       -11.4717 
  77   1.0000      -0.421162       -11.4604 
  78   1.0000      -0.417745       -11.3674 
  79   1.0000      -0.414021       -11.2661 
  80   1.0000      -0.411772       -11.2049 
  81   1.0000      -0.410584       -11.1725 
  82   1.0000      -0.409328       -11.1384 
  83   1.0000      -0.399328       -10.8663 
  84   1.0000      -0.397559       -10.8181 
  85   1.0000      -0.388321       -10.5668 
  86   1.0000      -0.381340       -10.3768 
  87   1.0000      -0.378057       -10.2875 
  88   1.0000      -0.373834       -10.1725 
  89   1.0000      -0.362912        -9.8753 
  90   1.0000      -0.346728        -9.4349 
  91   1.0000      -0.328900        -8.9498 
  92   1.0000      -0.249392        -6.7863 
  93   1.0000      -0.231626        -6.3029 
  94   1.0000      -0.215813        -5.8726 
  95   1.0000      -0.215089        -5.8529 
  96   0.0000      -0.011891        -0.3236 
  97   0.0000       0.009994         0.2719 
  98   0.0000       0.014997         0.4081 
  99   0.0000       0.041999         1.1429 
 100   0.0000       0.064874         1.7653 
 101   0.0000       0.083191         2.2637 
 102   0.0000       0.093830         2.5532 
 103   0.0000       0.099923         2.7190 
 104   0.0000       0.110317         3.0019 
 105   0.0000       0.117641         3.2012 
 106   0.0000       0.128550         3.4980 

                 SPIN DOWN ORBITALS
  NO   OCC          E(Eh)            E(eV) 
   0   1.0000     -24.659630      -671.0226 
   1   1.0000     -24.658649      -670.9960 
   2   1.0000     -24.657855      -670.9743 
   3   1.0000     -24.657839      -670.9739 
   4   1.0000     -24.656960      -670.9500 
   5   1.0000     -24.656230      -670.9301 
   6   1.0000     -24.655949      -670.9225 
   7   1.0000     -24.655018      -670.8971 
   8   1.0000     -24.647848      -670.7020 
   9   1.0000     -24.647525      -670.6933 
  10   1.0000     -24.635100      -670.3551 
  11   1.0000     -24.626586      -670.1235 
  12   1.0000     -24.612995      -669.7537 
  13   1.0000     -24.612436      -669.7384 
  14   1.0000     -18.987753      -516.6830 
  15   1.0000     -18.986340      -516.6446 
  16   1.0000     -10.393665      -282.8260 
  17   1.0000     -10.340523      -281.3799 
  18   1.0000     -10.338181      -281.3162 
  19   1.0000     -10.336856      -281.2802 
  20   1.0000     -10.315037      -280.6864 
  21   1.0000     -10.275921      -279.6220 
  22   1.0000     -10.238774      -278.6112 
  23   1.0000     -10.189088      -277.2592 
  24   1.0000      -1.320340       -35.9283 
  25   1.0000      -1.290771       -35.1237 
  26   1.0000      -1.275035       -34.6955 
  27   1.0000      -1.268250       -34.5108 
  28   1.0000      -1.255981       -34.1770 
  29   1.0000      -1.244979       -33.8776 
  30   1.0000      -1.234754       -33.5994 
  31   1.0000      -1.229706       -33.4620 
  32   1.0000      -1.228735       -33.4356 
  33   1.0000      -1.225596       -33.3502 
  34   1.0000      -1.218558       -33.1586 
  35   1.0000      -1.211323       -32.9618 
  36   1.0000      -1.194683       -32.5090 
  37   1.0000      -1.173204       -31.9245 
  38   1.0000      -0.996027       -27.1033 
  39   1.0000      -0.914695       -24.8901 
  40   1.0000      -0.818360       -22.2687 
  41   1.0000      -0.795689       -21.6518 
  42   1.0000      -0.764160       -20.7939 
  43   1.0000      -0.723939       -19.6994 
  44   1.0000      -0.681496       -18.5445 
  45   1.0000      -0.660771       -17.9805 
  46   1.0000      -0.628834       -17.1114 
  47   1.0000      -0.616007       -16.7624 
  48   1.0000      -0.612653       -16.6711 
  49   1.0000      -0.607097       -16.5199 
  50   1.0000      -0.592035       -16.1101 
  51   1.0000      -0.586865       -15.9694 
  52   1.0000      -0.583814       -15.8864 
  53   1.0000      -0.576048       -15.6751 
  54   1.0000      -0.571323       -15.5465 
  55   1.0000      -0.559327       -15.2201 
  56   1.0000      -0.557439       -15.1687 
  57   1.0000      -0.548359       -14.9216 
  58   1.0000      -0.547509       -14.8985 
  59   1.0000      -0.529290       -14.4027 
  60   1.0000      -0.518365       -14.1054 
  61   1.0000      -0.481996       -13.1158 
  62   1.0000      -0.477423       -12.9913 
  63   1.0000      -0.472628       -12.8609 
  64   1.0000      -0.468927       -12.7602 
  65   1.0000      -0.466381       -12.6909 
  66   1.0000      -0.463744       -12.6191 
  67   1.0000      -0.454909       -12.3787 
  68   1.0000      -0.451786       -12.2937 
  69   1.0000      -0.447558       -12.1787 
  70   1.0000      -0.440778       -11.9942 
  71   1.0000      -0.438934       -11.9440 
  72   1.0000      -0.436007       -11.8644 
  73   1.0000      -0.432536       -11.7699 
  74   1.0000      -0.430021       -11.7015 
  75   1.0000      -0.428389       -11.6571 
  76   1.0000      -0.421428       -11.4676 
  77   1.0000      -0.419840       -11.4244 
  78   1.0000      -0.417461       -11.3597 
  79   1.0000      -0.413168       -11.2429 
  80   1.0000      -0.410885       -11.1807 
  81   1.0000      -0.409956       -11.1555 
  82   1.0000      -0.408397       -11.1130 
  83   1.0000      -0.398661       -10.8481 
  84   1.0000      -0.396390       -10.7863 
  85   1.0000      -0.387112       -10.5339 
  86   1.0000      -0.380809       -10.3623 
  87   1.0000      -0.376991       -10.2585 
  88   1.0000      -0.373469       -10.1626 
  89   1.0000      -0.362608        -9.8671 
  90   1.0000      -0.343600        -9.3498 
  91   1.0000      -0.327056        -8.8996 
  92   1.0000      -0.231440        -6.2978 
  93   1.0000      -0.217177        -5.9097 
  94   1.0000      -0.214844        -5.8462 
  95   0.0000      -0.124873        -3.3980 
  96   0.0000      -0.007875        -0.2143 
  97   0.0000       0.016075         0.4374 
  98   0.0000       0.016296         0.4434 
  99   0.0000       0.045777         1.2457 
 100   0.0000       0.070222         1.9108 
 101   0.0000       0.090028         2.4498 
 102   0.0000       0.095668         2.6033 
 103   0.0000       0.109203         2.9716 
 104   0.0000       0.112462         3.0603 
 105   0.0000       0.126080         3.4308 
*Only the first 10 virtual orbitals were printed.

                    ********************************
                    * MULLIKEN POPULATION ANALYSIS *
                    ********************************

--------------------------------------------
MULLIKEN ATOMIC CHARGES AND SPIN POPULATIONS
--------------------------------------------
   0 C :    0.169675   -0.000085
   1 O :   -0.480354    0.008214
   2 O :   -0.493026    0.001524
   3 C :    0.309101    0.013002
   4 C :    0.304791   -0.015480
   5 C :    0.102968    0.853909
   6 C :    0.353120   -0.024872
   7 C :    0.255632    0.035762
   8 C :    0.301926    0.006009
   9 C :    0.409429    0.002884
  10 F :   -0.201617    0.000124
  11 F :   -0.202505    0.003244
  12 F :   -0.176406    0.021936
  13 F :   -0.179979    0.000272
  14 F :   -0.137751    0.080167
  15 F :   -0.161030    0.007383
  16 F :   -0.153657    0.006579
  17 F :   -0.159511   -0.000857
  18 F :   -0.160309   -0.000483
  19 F :   -0.148859   -0.000199
  20 F :   -0.146613    0.000197
  21 F :   -0.136722   -0.000074
  22 F :   -0.134278    0.000803
  23 F :   -0.134025    0.000039
Sum of atomic charges         :   -1.0000000
Sum of atomic spin populations:    1.0000000

-----------------------------------------------------
MULLIKEN REDUCED ORBITAL CHARGES AND SPIN POPULATIONS
-----------------------------------------------------
CHARGE
  0 C s       :     3.034425  s :     3.034425
      pz      :     0.870924  p :     2.517561
      px      :     0.834707
      py      :     0.811930
      dz2     :     0.042679  d :     0.254228
      dxz     :     0.064246
      dyz     :     0.033214
      dx2y2   :     0.070298
      dxy     :     0.043790
      f0      :     0.004072  f :     0.024111
      f+1     :     0.002366
      f-1     :     0.002920
      f+2     :     0.002736
      f-2     :     0.005033
      f+3     :     0.004291
      f-3     :     0.002694

  1 O s       :     3.788226  s :     3.788226
      pz      :     1.522591  p :     4.663134
      px      :     1.680263
      py      :     1.460280
      dz2     :     0.006190  d :     0.027234
      dxz     :     0.004962
      dyz     :     0.007149
      dx2y2   :     0.004872
      dxy     :     0.004061
      f0      :     0.000221  f :     0.001761
      f+1     :     0.000206
      f-1     :     0.000337
      f+2     :     0.000358
      f-2     :     0.000340
      f+3     :     0.000133
      f-3     :     0.000166

  2 O s       :     3.789774  s :     3.789774
      pz      :     1.729922  p :     4.674388
      px      :     1.435725
      py      :     1.508740
      dz2     :     0.003051  d :     0.027118
      dxz     :     0.005175
      dyz     :     0.002281
      dx2y2   :     0.008278
      dxy     :     0.008333
      f0      :     0.000215  f :     0.001747
      f+1     :     0.000210
      f-1     :     0.000118
      f+2     :     0.000061
      f-2     :     0.000255
      f+3     :     0.000509
      f-3     :     0.000379

  3 C s       :     3.129434  s :     3.129434
      pz      :     0.771647  p :     2.273599
      px      :     0.729307
      py      :     0.772644
      dz2     :     0.054927  d :     0.261329
      dxz     :     0.057800
      dyz     :     0.048647
      dx2y2   :     0.053067
      dxy     :     0.046888
      f0      :     0.005507  f :     0.026537
      f+1     :     0.002996
      f-1     :     0.003298
      f+2     :     0.002134
      f-2     :     0.005414
      f+3     :     0.003883
      f-3     :     0.003304

  4 C s       :     3.086244  s :     3.086244
      pz      :     0.652499  p :     2.288003
      px      :     0.802339
      py      :     0.833165
      dz2     :     0.054231  d :     0.293521
      dxz     :     0.067126
      dyz     :     0.061342
      dx2y2   :     0.056335
      dxy     :     0.054487
      f0      :     0.004885  f :     0.027442
      f+1     :     0.004108
      f-1     :     0.005076
      f+2     :     0.002412
      f-2     :     0.004163
      f+3     :     0.003279
      f-3     :     0.003518

  5 C s       :     3.228986  s :     3.228986
      pz      :     0.633568  p :     2.491484
      px      :     0.881086
      py      :     0.976830
      dz2     :     0.033073  d :     0.158677
      dxz     :     0.059735
      dyz     :     0.031205
      dx2y2   :     0.016049
      dxy     :     0.018614
      f0      :     0.004089  f :     0.017885
      f+1     :     0.004019
      f-1     :     0.002852
      f+2     :     0.002202
      f-2     :     0.001848
      f+3     :     0.001504
      f-3     :     0.001372

  6 C s       :     3.046645  s :     3.046645
      pz      :     0.628358  p :     2.261421
      px      :     0.865121
      py      :     0.767942
      dz2     :     0.079487  d :     0.310810
      dxz     :     0.063144
      dyz     :     0.056385
      dx2y2   :     0.048361
      dxy     :     0.063433
      f0      :     0.005510  f :     0.028004
      f+1     :     0.002858
      f-1     :     0.004881
      f+2     :     0.004460
      f-2     :     0.005259
      f+3     :     0.002536
      f-3     :     0.002500

  7 C s       :     3.146854  s :     3.146854
      pz      :     0.610145  p :     2.263155
      px      :     0.893813
      py      :     0.759197
      dz2     :     0.074721  d :     0.305923
      dxz     :     0.062393
      dyz     :     0.065489
      dx2y2   :     0.055248
      dxy     :     0.048073
      f0      :     0.005051  f :     0.028435
      f+1     :     0.003626
      f-1     :     0.006461
      f+2     :     0.003820
      f-2     :     0.004428
      f+3     :     0.002673
      f-3     :     0.002377

  8 C s       :     3.100156  s :     3.100156
      pz      :     0.676568  p :     2.275169
      px      :     0.899641
      py      :     0.698960
      dz2     :     0.060626  d :     0.294332
      dxz     :     0.048461
      dyz     :     0.080040
      dx2y2   :     0.050060
      dxy     :     0.055145
      f0      :     0.004806  f :     0.028418
      f+1     :     0.003384
      f-1     :     0.006368
      f+2     :     0.003390
      f-2     :     0.003685
      f+3     :     0.003648
      f-3     :     0.003138

  9 C s       :     3.021336  s :     3.021336
      pz      :     0.721096  p :     2.166560
      px      :     0.706705
      py      :     0.738758
      dz2     :     0.059652  d :     0.362270
      dxz     :     0.082532
      dyz     :     0.077836
      dx2y2   :     0.062572
      dxy     :     0.079677
      f0      :     0.006545  f :     0.040405
      f+1     :     0.006356
      f-1     :     0.006363
      f+2     :     0.005820
      f-2     :     0.002619
      f+3     :     0.005049
      f-3     :     0.007652

 10 F s       :     3.916689  s :     3.916689
      pz      :     1.901541  p :     5.269812
      px      :     1.672174
      py      :     1.696097
      dz2     :     0.002048  d :     0.014469
      dxz     :     0.001664
      dyz     :     0.001645
      dx2y2   :     0.003329
      dxy     :     0.005784
      f0      :     0.000057  f :     0.000647
      f+1     :     0.000075
      f-1     :     0.000071
      f+2     :     0.000006
      f-2     :     0.000089
      f+3     :     0.000165
      f-3     :     0.000183

 11 F s       :     3.912767  s :     3.912767
      pz      :     1.579442  p :     5.274666
      px      :     1.795334
      py      :     1.899889
      dz2     :     0.004733  d :     0.014422
      dxz     :     0.005325
      dyz     :     0.002138
      dx2y2   :     0.001147
      dxy     :     0.001079
      f0      :     0.000132  f :     0.000650
      f+1     :     0.000253
      f-1     :     0.000057
      f+2     :     0.000105
      f-2     :     0.000077
      f+3     :     0.000012
      f-3     :     0.000015

 12 F s       :     3.913955  s :     3.913955
      pz      :     1.865948  p :     5.247142
      px      :     1.708785
      py      :     1.672408
      dz2     :     0.001892  d :     0.014649
      dxz     :     0.001968
      dyz     :     0.002062
      dx2y2   :     0.003269
      dxy     :     0.005458
      f0      :     0.000065  f :     0.000661
      f+1     :     0.000057
      f-1     :     0.000061
      f+2     :     0.000024
      f-2     :     0.000134
      f+3     :     0.000166
      f-3     :     0.000154

 13 F s       :     3.921697  s :     3.921697
      pz      :     1.492205  p :     5.242447
      px      :     1.868596
      py      :     1.881647
      dz2     :     0.006671  d :     0.015162
      dxz     :     0.004037
      dyz     :     0.003358
      dx2y2   :     0.000429
      dxy     :     0.000667
      f0      :     0.000242  f :     0.000672
      f+1     :     0.000197
      f-1     :     0.000139
      f+2     :     0.000037
      f-2     :     0.000050
      f+3     :     0.000003
      f-3     :     0.000003

 14 F s       :     3.919125  s :     3.919125
      pz      :     1.499906  p :     5.200665
      px      :     1.896614
      py      :     1.804145
      dz2     :     0.007080  d :     0.017217
      dxz     :     0.003738
      dyz     :     0.005243
      dx2y2   :     0.000656
      dxy     :     0.000501
      f0      :     0.000263  f :     0.000744
      f+1     :     0.000145
      f-1     :     0.000229
      f+2     :     0.000056
      f-2     :     0.000046
      f+3     :     0.000003
      f-3     :     0.000003

 15 F s       :     3.918691  s :     3.918691
      pz      :     1.595587  p :     5.226451
      px      :     1.800447
      py      :     1.830417
      dz2     :     0.004152  d :     0.015213
      dxz     :     0.004591
      dyz     :     0.003665
      dx2y2   :     0.001350
      dxy     :     0.001455
      f0      :     0.000106  f :     0.000675
      f+1     :     0.000183
      f-1     :     0.000129
      f+2     :     0.000090
      f-2     :     0.000128
      f+3     :     0.000017
      f-3     :     0.000021

 16 F s       :     3.918169  s :     3.918169
      pz      :     1.664563  p :     5.219208
      px      :     1.899905
      py      :     1.654739
      dz2     :     0.002971  d :     0.015581
      dxz     :     0.001785
      dyz     :     0.006323
      dx2y2   :     0.002618
      dxy     :     0.001884
      f0      :     0.000077  f :     0.000699
      f+1     :     0.000024
      f-1     :     0.000221
      f+2     :     0.000190
      f-2     :     0.000096
      f+3     :     0.000041
      f-3     :     0.000050

 17 F s       :     3.920891  s :     3.920891
      pz      :     1.723640  p :     5.221986
      px      :     1.883367
      py      :     1.614979
      dz2     :     0.002371  d :     0.015927
      dxz     :     0.001702
      dyz     :     0.005869
      dx2y2   :     0.003341
      dxy     :     0.002644
      f0      :     0.000077  f :     0.000707
      f+1     :     0.000018
      f-1     :     0.000165
      f+2     :     0.000184
      f-2     :     0.000118
      f+3     :     0.000068
      f-3     :     0.000078

 18 F s       :     3.922522  s :     3.922522
      pz      :     1.507352  p :     5.221148
      px      :     1.853825
      py      :     1.859972
      dz2     :     0.006270  d :     0.015936
      dxz     :     0.004381
      dyz     :     0.003717
      dx2y2   :     0.000832
      dxy     :     0.000737
      f0      :     0.000214  f :     0.000703
      f+1     :     0.000194
      f-1     :     0.000160
      f+2     :     0.000061
      f-2     :     0.000063
      f+3     :     0.000005
      f-3     :     0.000006

 19 F s       :     3.917585  s :     3.917585
      pz      :     1.842171  p :     5.214606
      px      :     1.876701
      py      :     1.495735
      dz2     :     0.002049  d :     0.015958
      dxz     :     0.000667
      dyz     :     0.004310
      dx2y2   :     0.005214
      dxy     :     0.003718
      f0      :     0.000077  f :     0.000710
      f+1     :     0.000009
      f-1     :     0.000116
      f+2     :     0.000144
      f-2     :     0.000061
      f+3     :     0.000139
      f-3     :     0.000165

 20 F s       :     3.915505  s :     3.915505
      pz      :     1.492517  p :     5.214329
      px      :     1.838530
      py      :     1.883282
      dz2     :     0.006789  d :     0.016057
      dxz     :     0.004926
      dyz     :     0.003067
      dx2y2   :     0.000726
      dxy     :     0.000549
      f0      :     0.000240  f :     0.000722
      f+1     :     0.000239
      f-1     :     0.000123
      f+2     :     0.000063
      f-2     :     0.000047
      f+3     :     0.000005
      f-3     :     0.000004

 21 F s       :     3.912774  s :     3.912774
      pz      :     1.869140  p :     5.207028
      px      :     1.855166
      py      :     1.482723
      dz2     :     0.002256  d :     0.016161
      dxz     :     0.000469
      dyz     :     0.003732
      dx2y2   :     0.005535
      dxy     :     0.004168
      f0      :     0.000073  f :     0.000759
      f+1     :     0.000019
      f-1     :     0.000134
      f+2     :     0.000106
      f-2     :     0.000050
      f+3     :     0.000194
      f-3     :     0.000183

 22 F s       :     3.911168  s :     3.911168
      pz      :     1.876071  p :     5.206160
      px      :     1.448783
      py      :     1.881306
      dz2     :     0.002324  d :     0.016184
      dxz     :     0.003802
      dyz     :     0.000215
      dx2y2   :     0.006320
      dxy     :     0.003523
      f0      :     0.000071  f :     0.000767
      f+1     :     0.000148
      f-1     :     0.000011
      f+2     :     0.000127
      f-2     :     0.000019
      f+3     :     0.000231
      f-3     :     0.000160

 23 F s       :     3.911275  s :     3.911275
      pz      :     1.458084  p :     5.205661
      px      :     1.875203
      py      :     1.872373
      dz2     :     0.008041  d :     0.016318
      dxz     :     0.003704
      dyz     :     0.003874
      dx2y2   :     0.000418
      dxy     :     0.000281
      f0      :     0.000327  f :     0.000772
      f+1     :     0.000182
      f-1     :     0.000196
      f+2     :     0.000034
      f-2     :     0.000028
      f+3     :     0.000002
      f-3     :     0.000002


SPIN
  0 C s       :    -0.000894  s :    -0.000894
      pz      :     0.001270  p :     0.000684
      px      :    -0.000153
      py      :    -0.000433
      dz2     :     0.000169  d :     0.000076
      dxz     :    -0.000033
      dyz     :     0.000082
      dx2y2   :     0.000002
      dxy     :    -0.000145
      f0      :    -0.000001  f :     0.000048
      f+1     :     0.000010
      f-1     :     0.000012
      f+2     :     0.000001
      f-2     :     0.000015
      f+3     :     0.000014
      f-3     :    -0.000001

  1 O s       :     0.000260  s :     0.000260
      pz      :     0.005969  p :     0.007970
      px      :     0.001605
      py      :     0.000396
      dz2     :    -0.000014  d :    -0.000013
      dxz     :     0.000006
      dyz     :    -0.000001
      dx2y2   :    -0.000001
      dxy     :    -0.000002
      f0      :    -0.000001  f :    -0.000004
      f+1     :    -0.000000
      f-1     :    -0.000001
      f+2     :    -0.000001
      f-2     :    -0.000001
      f+3     :    -0.000000
      f-3     :     0.000000

  2 O s       :     0.000195  s :     0.000195
      pz      :     0.000480  p :     0.001326
      px      :    -0.000392
      py      :     0.001237
      dz2     :     0.000001  d :     0.000003
      dxz     :    -0.000000
      dyz     :     0.000000
      dx2y2   :     0.000008
      dxy     :    -0.000006
      f0      :    -0.000000  f :     0.000001
      f+1     :     0.000000
      f-1     :     0.000000
      f+2     :    -0.000000
      f-2     :     0.000000
      f+3     :     0.000001
      f-3     :     0.000000

  3 C s       :    -0.000955  s :    -0.000955
      pz      :     0.000896  p :     0.013310
      px      :    -0.003895
      py      :     0.016310
      dz2     :    -0.000052  d :     0.000575
      dxz     :     0.000186
      dyz     :     0.000004
      dx2y2   :     0.000365
      dxy     :     0.000072
      f0      :    -0.000004  f :     0.000071
      f+1     :    -0.000006
      f-1     :     0.000006
      f+2     :    -0.000005
      f-2     :     0.000008
      f+3     :     0.000021
      f-3     :     0.000052

  4 C s       :    -0.014423  s :    -0.014423
      pz      :    -0.011077  p :    -0.016847
      px      :    -0.013883
      py      :     0.008112
      dz2     :     0.000559  d :     0.014519
      dxz     :    -0.000941
      dyz     :     0.001664
      dx2y2   :     0.000008
      dxy     :     0.013229
      f0      :     0.000024  f :     0.001271
      f+1     :     0.000115
      f-1     :     0.000030
      f+2     :    -0.000016
      f-2     :     0.000678
      f+3     :     0.000110
      f-3     :     0.000331

  5 C s       :     0.059959  s :     0.059959
      pz      :     0.059990  p :     0.792137
      px      :     0.055197
      py      :     0.676950
      dz2     :     0.001156  d :     0.004010
      dxz     :     0.000284
      dyz     :     0.002556
      dx2y2   :    -0.001593
      dxy     :     0.001607
      f0      :    -0.000327  f :    -0.002197
      f+1     :    -0.000053
      f-1     :    -0.000476
      f+2     :    -0.000488
      f-2     :    -0.000050
      f+3     :    -0.000575
      f-3     :    -0.000228

  6 C s       :    -0.010794  s :    -0.010794
      pz      :    -0.005369  p :    -0.036892
      px      :    -0.028721
      py      :    -0.002802
      dz2     :     0.000266  d :     0.021707
      dxz     :     0.003322
      dyz     :     0.001120
      dx2y2   :     0.001248
      dxy     :     0.015752
      f0      :     0.000026  f :     0.001107
      f+1     :     0.000036
      f-1     :     0.000119
      f+2     :     0.000031
      f-2     :     0.000062
      f+3     :     0.000272
      f-3     :     0.000561

  7 C s       :     0.000705  s :     0.000705
      pz      :     0.003259  p :     0.030244
      px      :     0.009411
      py      :     0.017574
      dz2     :     0.000500  d :     0.004815
      dxz     :     0.000439
      dyz     :     0.000088
      dx2y2   :     0.003503
      dxy     :     0.000285
      f0      :    -0.000008  f :    -0.000002
      f+1     :    -0.000005
      f-1     :    -0.000009
      f+2     :     0.000005
      f-2     :     0.000000
      f+3     :     0.000022
      f-3     :    -0.000007

  8 C s       :    -0.000782  s :    -0.000782
      pz      :     0.000022  p :     0.005916
      px      :     0.004409
      py      :     0.001485
      dz2     :     0.000042  d :     0.000850
      dxz     :     0.000111
      dyz     :     0.000026
      dx2y2   :     0.000246
      dxy     :     0.000425
      f0      :    -0.000003  f :     0.000025
      f+1     :     0.000000
      f-1     :     0.000003
      f+2     :    -0.000001
      f-2     :    -0.000003
      f+3     :     0.000001
      f-3     :     0.000028

  9 C s       :     0.001162  s :     0.001162
      pz      :     0.000588  p :     0.001440
      px      :    -0.000158
      py      :     0.001009
      dz2     :     0.000035  d :     0.000264
      dxz     :    -0.000015
      dyz     :     0.000034
      dx2y2   :     0.000212
      dxy     :    -0.000002
      f0      :    -0.000001  f :     0.000019
      f+1     :    -0.000001
      f-1     :    -0.000000
      f+2     :     0.000013
      f-2     :     0.000000
      f+3     :     0.000000
      f-3     :     0.000007

 10 F s       :     0.000669  s :     0.000669
      pz      :    -0.000086  p :    -0.000652
      px      :    -0.000753
      py      :     0.000187
      dz2     :     0.000016  d :     0.000103
      dxz     :     0.000009
      dyz     :     0.000001
      dx2y2   :     0.000030
      dxy     :     0.000045
      f0      :     0.000000  f :     0.000005
      f+1     :     0.000000
      f-1     :     0.000000
      f+2     :     0.000000
      f-2     :     0.000000
      f+3     :     0.000004
      f-3     :     0.000000

 11 F s       :     0.000076  s :     0.000076
      pz      :    -0.000272  p :     0.003133
      px      :     0.000654
      py      :     0.002751
      dz2     :     0.000013  d :     0.000034
      dxz     :    -0.000001
      dyz     :     0.000017
      dx2y2   :     0.000001
      dxy     :     0.000005
      f0      :     0.000000  f :     0.000000
      f+1     :    -0.000000
      f-1     :     0.000000
      f+2     :    -0.000000
      f-2     :     0.000000
      f+3     :    -0.000000
      f-3     :     0.000000

 12 F s       :     0.000130  s :     0.000130
      pz      :    -0.000138  p :     0.021796
      px      :     0.017042
      py      :     0.004892
      dz2     :    -0.000002  d :     0.000004
      dxz     :     0.000043
      dyz     :    -0.000006
      dx2y2   :    -0.000012
      dxy     :    -0.000019
      f0      :     0.000000  f :     0.000006
      f+1     :     0.000000
      f-1     :     0.000000
      f+2     :     0.000000
      f-2     :     0.000000
      f+3     :     0.000002
      f-3     :     0.000002

 13 F s       :    -0.000332  s :    -0.000332
      pz      :    -0.001503  p :     0.000573
      px      :     0.000758
      py      :     0.001318
      dz2     :     0.000021  d :     0.000031
      dxz     :    -0.000019
      dyz     :    -0.000001
      dx2y2   :    -0.000001
      dxy     :     0.000032
      f0      :    -0.000000  f :    -0.000000
      f+1     :    -0.000001
      f-1     :    -0.000000
      f+2     :    -0.000000
      f-2     :     0.000001
      f+3     :    -0.000000
      f-3     :    -0.000000

 14 F s       :     0.004671  s :     0.004671
      pz      :    -0.007415  p :     0.073890
      px      :     0.002396
      py      :     0.078909
      dz2     :     0.000424  d :     0.001583
      dxz     :     0.000109
      dyz     :     0.000878
      dx2y2   :     0.000152
      dxy     :     0.000019
      f0      :     0.000010  f :     0.000024
      f+1     :     0.000003
      f-1     :     0.000002
      f+2     :     0.000008
      f-2     :    -0.000001
      f+3     :     0.000001
      f-3     :     0.000001

 15 F s       :    -0.000270  s :    -0.000270
      pz      :     0.005662  p :     0.007654
      px      :     0.002372
      py      :    -0.000380
      dz2     :    -0.000016  d :    -0.000004
      dxz     :    -0.000019
      dyz     :    -0.000001
      dx2y2   :     0.000008
      dxy     :     0.000024
      f0      :     0.000000  f :     0.000004
      f+1     :     0.000002
      f-1     :    -0.000000
      f+2     :    -0.000000
      f-2     :     0.000001
      f+3     :     0.000001
[...]
       cm**-1   L/(mol*cm) km/mol    a.u.
----------------------------------------------------------------------------
  7:     19.00   0.001319    6.66  0.021665  (-0.126755 -0.059306 -0.045623)
  8:     29.67   0.000068    0.34  0.000715  ( 0.026659 -0.001808  0.001060)
  9:     31.34   0.000315    1.59  0.003133  (-0.015397  0.037432 -0.038663)
 10:     47.75   0.000027    0.14  0.000175  (-0.012713  0.002232 -0.002857)
 11:     58.24   0.000093    0.47  0.000499  ( 0.002053 -0.020740  0.008031)
 12:     62.50   0.000092    0.46  0.000458  (-0.014206 -0.004202  0.015431)
 13:     86.77   0.000249    1.26  0.000894  (-0.002835 -0.025835  0.014783)
 14:    105.48   0.000723    3.66  0.002140  ( 0.002242 -0.033581  0.031738)
 15:    115.56   0.001104    5.58  0.002982  ( 0.044948 -0.030047  0.007697)
 16:    160.70   0.000150    0.76  0.000291  ( 0.006009 -0.000746  0.015958)
 17:    172.57   0.000795    4.02  0.001438  (-0.024219  0.025056  0.014962)
 18:    180.48   0.000943    4.76  0.001630  (-0.016825  0.011551 -0.034837)
 19:    195.35   0.001240    6.27  0.001981  ( 0.020548  0.029605 -0.026118)
 20:    215.39   0.000802    4.05  0.001162  (-0.025111 -0.008455 -0.021436)
 21:    223.82   0.000035    0.18  0.000048  (-0.001254  0.006431 -0.002346)
 22:    234.14   0.000128    0.65  0.000170  (-0.000019 -0.011395 -0.006365)
 23:    235.74   0.000089    0.45  0.000118  ( 0.008027  0.001891 -0.007102)
 24:    247.30   0.000238    1.20  0.000301  ( 0.012521 -0.004102  0.011270)
 25:    276.02   0.001381    6.98  0.001561  (-0.039255  0.001161  0.004325)
 26:    279.27   0.000199    1.00  0.000222  ( 0.005980  0.003235  0.013263)
 27:    307.33   0.000150    0.76  0.000152  (-0.009826  0.007420  0.000737)
 28:    320.38   0.000263    1.33  0.000256  (-0.013421  0.008710 -0.000506)
 29:    335.72   0.000118    0.60  0.000110  ( 0.001598 -0.003260  0.009841)
 30:    347.66   0.000035    0.18  0.000031  (-0.005369  0.001372 -0.000779)
 31:    354.93   0.000339    1.71  0.000298  (-0.010272  0.008456 -0.011015)
 32:    359.85   0.000306    1.55  0.000265  ( 0.013090 -0.006684 -0.007014)
 33:    367.38   0.000040    0.20  0.000034  (-0.004797 -0.002796  0.001774)
 34:    391.85   0.000584    2.95  0.000465  (-0.016729 -0.013512 -0.001562)
 35:    426.02   0.000153    0.77  0.000112  (-0.000845  0.009396 -0.004798)
 36:    442.17   0.001095    5.53  0.000773  ( 0.015775 -0.020219  0.010730)
 37:    499.35   0.000484    2.45  0.000303  (-0.009627 -0.011615  0.008661)
 38:    515.41   0.007092   35.84  0.004294  (-0.063490  0.015401  0.005075)
 39:    537.16   0.000540    2.73  0.000314  ( 0.012657  0.009144 -0.008369)
 40:    545.80   0.004137   20.91  0.002365  ( 0.037814 -0.020511  0.022685)
 41:    560.42   0.003809   19.25  0.002121  (-0.023468  0.031334  0.024254)
 42:    573.18   0.007041   35.58  0.003833  (-0.047783 -0.038630 -0.007603)
 43:    588.54   0.002036   10.29  0.001079  ( 0.025313 -0.018806  0.009222)
 44:    618.03   0.006689   33.81  0.003378  ( 0.057781 -0.006059  0.001543)
 45:    643.78   0.009968   50.37  0.004832  (-0.064643  0.017608  0.018523)
 46:    678.35   0.018599   93.99  0.008556  (-0.091104  0.008395  0.013621)
 47:    686.80   0.007782   39.33  0.003536  ( 0.020851  0.041978  0.036591)
 48:    717.79   0.019019   96.11  0.008269  (-0.061357 -0.052103 -0.042299)
 49:    767.37   0.007996   40.41  0.003252  (-0.051882 -0.022429 -0.007535)
 50:    779.03   0.021993  111.14  0.008810  (-0.048694  0.008104  0.079832)
 51:    854.01   0.010058   50.83  0.003675  (-0.035205 -0.039394 -0.029735)
 52:    978.30   0.003600   18.19  0.001148  ( 0.006479 -0.028900  0.016465)
 53:   1031.22   0.042074  212.63  0.012732  (-0.105599 -0.039317  0.005937)
 54:   1070.86   0.057982  293.01  0.016897  (-0.092164 -0.070425 -0.058674)
 55:   1082.56   0.016767   84.74  0.004833  ( 0.023370  0.052766  0.038769)
 56:   1090.75   0.030873  156.02  0.008833  ( 0.028126 -0.070301  0.055672)
 57:   1110.99   0.095554  482.89  0.026840  ( 0.030643 -0.121254 -0.105822)
 58:   1118.20   0.037094  187.46  0.010352  (-0.013442  0.059352 -0.081540)
 59:   1128.82   0.005742   29.02  0.001587  ( 0.004617  0.011479  0.037871)
 60:   1135.74   0.054296  274.39  0.014919  ( 0.014866 -0.061295  0.104598)
 61:   1145.65   0.069315  350.29  0.018881  ( 0.050121  0.017492 -0.126738)
 62:   1156.37   0.110756  559.72  0.029889  ( 0.063650 -0.137964  0.082484)
 63:   1172.79   0.005641   28.51  0.001501  ( 0.037833 -0.005792 -0.006003)
 64:   1175.75   0.079161  400.05  0.021011  (-0.038139 -0.062470  0.125114)
 65:   1195.93   0.022752  114.98  0.005937  (-0.073155  0.000402  0.024186)
 66:   1246.87   0.003802   19.21  0.000951  ( 0.025593 -0.007872 -0.015313)
 67:   1307.89   0.020111  101.64  0.004799  (-0.015975 -0.028046 -0.061293)
 68:   1315.08   0.016597   83.87  0.003938  ( 0.050267  0.005578  0.037156)
 69:   1327.84   0.086021  434.72  0.020216  ( 0.108448 -0.026888 -0.087934)
 70:   1371.33   0.003377   17.07  0.000768  (-0.026195  0.008612 -0.002854)
 71:   1721.02   0.156872  792.77  0.028445  ( 0.111785  0.108969  0.063834)

* The epsilon (eps) is given for a Dirac delta lineshape.
** The dipole moment derivative (T) already includes vibrational overlap.

The first frequency considered to be a vibration is 7
The total number of vibrations considered is 65


--------------------------
THERMOCHEMISTRY AT 298.15K
--------------------------

Temperature         ...   298.15 K
Pressure            ...     1.00 atm
Total Mass          ...   394.06 AMU
Quasi RRHO          ...     True
Cut-Off Frequency   ...     1.00 cm^-1

Throughout the following assumptions are being made:
  (1) The electronic state is orbitally nondegenerate
      but the spin degeneracy is treated
  (2) There are no thermally accessible electronically excited states
  (3) Hindered rotations indicated by low frequency modes are not
      treated as such but are treated as vibrations and this may
      cause some error
  (4) All equations used are the standard statistical mechanics
      equations for an ideal gas
  (5) All vibrations are strictly harmonic

freq.      19.00  E(vib)   ...       0.57 
freq.      29.67  E(vib)   ...       0.55 
freq.      31.34  E(vib)   ...       0.55 
freq.      47.75  E(vib)   ...       0.53 
freq.      58.24  E(vib)   ...       0.51 
freq.      62.50  E(vib)   ...       0.51 
freq.      86.77  E(vib)   ...       0.48 
freq.     105.48  E(vib)   ...       0.45 
freq.     115.56  E(vib)   ...       0.44 
freq.     160.70  E(vib)   ...       0.39 
freq.     172.57  E(vib)   ...       0.38 
freq.     180.48  E(vib)   ...       0.37 
freq.     195.35  E(vib)   ...       0.36 
freq.     215.39  E(vib)   ...       0.34 
freq.     223.82  E(vib)   ...       0.33 
freq.     234.14  E(vib)   ...       0.32 
freq.     235.74  E(vib)   ...       0.32 
freq.     247.30  E(vib)   ...       0.31 
freq.     276.02  E(vib)   ...       0.28 
freq.     279.27  E(vib)   ...       0.28 
freq.     307.33  E(vib)   ...       0.26 
freq.     320.38  E(vib)   ...       0.25 
freq.     335.72  E(vib)   ...       0.24 
freq.     347.66  E(vib)   ...       0.23 
freq.     354.93  E(vib)   ...       0.22 
freq.     359.85  E(vib)   ...       0.22 
freq.     367.38  E(vib)   ...       0.21 
freq.     391.85  E(vib)   ...       0.20 
freq.     426.02  E(vib)   ...       0.18 
freq.     442.17  E(vib)   ...       0.17 
freq.     499.35  E(vib)   ...       0.14 
freq.     515.41  E(vib)   ...       0.13 
freq.     537.16  E(vib)   ...       0.12 
freq.     545.80  E(vib)   ...       0.12 
freq.     560.42  E(vib)   ...       0.11 
freq.     573.18  E(vib)   ...       0.11 
freq.     588.54  E(vib)   ...       0.10 
freq.     618.03  E(vib)   ...       0.09 
freq.     643.78  E(vib)   ...       0.09 
freq.     678.35  E(vib)   ...       0.08 
freq.     686.80  E(vib)   ...       0.07 
freq.     717.79  E(vib)   ...       0.07 
freq.     767.37  E(vib)   ...       0.06 
freq.     779.03  E(vib)   ...       0.05 
freq.     854.01  E(vib)   ...       0.04 
freq.     978.30  E(vib)   ...       0.03 
freq.    1031.22  E(vib)   ...       0.02 
freq.    1070.86  E(vib)   ...       0.02 
freq.    1082.56  E(vib)   ...       0.02 
freq.    1090.75  E(vib)   ...       0.02 
freq.    1110.99  E(vib)   ...       0.01 
freq.    1118.20  E(vib)   ...       0.01 
freq.    1128.82  E(vib)   ...       0.01 
freq.    1135.74  E(vib)   ...       0.01 
freq.    1145.65  E(vib)   ...       0.01 
freq.    1156.37  E(vib)   ...       0.01 
freq.    1172.79  E(vib)   ...       0.01 
freq.    1175.75  E(vib)   ...       0.01 
freq.    1195.93  E(vib)   ...       0.01 
freq.    1246.87  E(vib)   ...       0.01 
freq.    1307.89  E(vib)   ...       0.01 
freq.    1315.08  E(vib)   ...       0.01 
freq.    1327.84  E(vib)   ...       0.01 
freq.    1371.33  E(vib)   ...       0.01 
freq.    1721.02  E(vib)   ...       0.00 

------------
INNER ENERGY
------------

The inner energy is: U= E(el) + E(ZPE) + E(vib) + E(rot) + E(trans)
    E(el)   - is the total energy from the electronic structure calculation
              = E(kin-el) + E(nuc-el) + E(el-el) + E(nuc-nuc)
    E(ZPE)  - the the zero temperature vibrational energy from the frequency calculation
    E(vib)  - the the finite temperature correction to E(ZPE) due to population
              of excited vibrational states
    E(rot)  - is the rotational thermal energy
    E(trans)- is the translational thermal energy

Summary of contributions to the inner energy U:
Electronic energy                ...  -1853.95486050 Eh
Zero point energy                ...      0.09130750 Eh      57.30 kcal/mol
Thermal vibrational correction   ...      0.01925354 Eh      12.08 kcal/mol
Thermal rotational correction    ...      0.00141627 Eh       0.89 kcal/mol
Thermal translational correction ...      0.00141627 Eh       0.89 kcal/mol
-----------------------------------------------------------------------
Total thermal energy                  -1853.84146692 Eh


Summary of corrections to the electronic energy:
(perhaps to be used in another calculation)
Total thermal correction                  0.02208608 Eh      13.86 kcal/mol
Non-thermal (ZPE) correction              0.09130750 Eh      57.30 kcal/mol
-----------------------------------------------------------------------
Total correction                          0.11339358 Eh      71.16 kcal/mol


--------
ENTHALPY
--------

The enthalpy is H = U + kB*T
                kB is Boltzmann's constant
Total thermal energy              ...  -1853.84146692 Eh 
Thermal Enthalpy correction       ...      0.00094421 Eh       0.59 kcal/mol
-----------------------------------------------------------------------
Total Enthalpy                    ...  -1853.84052271 Eh


Note: Only C1 symmetry has been detected, increase convergence thresholds 
      if your molecule has a higher symmetry. Symmetry factor of 1.0 is   
      used for the rotational entropy correction. 
 

Note: Rotational entropy computed according to Herzberg 
Infrared and Raman Spectra, Chapter V,1, Van Nostrand Reinhold, 1945 
Point Group:  C1, Symmetry Number:   1  
Rotational constants in cm-1:     0.016097     0.004866     0.004466 

Vibrational entropy computed according to the QRRHO of S. Grimme
Chem.Eur.J. 2012 18 9955 using a reference frequency of 100.0 cm-1


-------
ENTROPY
-------

The entropy contributions are T*S = T*(S(el)+S(vib)+S(rot)+S(trans))
     S(el)   - electronic entropy
     S(vib)  - vibrational entropy
     S(rot)  - rotational entropy
     S(trans)- translational entropy
The entropies will be listed as multiplied by the temperature to get
units of energy

Electronic entropy                ...      0.00065446 Eh      0.41 kcal/mol
Vibrational entropy               ...      0.03465199 Eh     21.74 kcal/mol
Rotational entropy                ...      0.01652875 Eh     10.37 kcal/mol
Translational entropy             ...      0.02081341 Eh     13.06 kcal/mol
-----------------------------------------------------------------------
Final entropy term                ...      0.07264860 Eh     45.59 kcal/mol

In case the symmetry of your molecule has not been determined correctly
or in case you have a reason to use a different symmetry number we print 
out the resulting rotational entropy values for sn=1,12:

 non-linear molecules -----------------------------------
|  sn= 1 | S(rot)=       0.01652875 Eh     10.37 kcal/mol|
|  sn= 2 | S(rot)=       0.01587429 Eh      9.96 kcal/mol|
|  sn= 3 | S(rot)=       0.01549146 Eh      9.72 kcal/mol|
|  sn= 4 | S(rot)=       0.01521983 Eh      9.55 kcal/mol|
|  sn= 5 | S(rot)=       0.01500915 Eh      9.42 kcal/mol|
|  sn= 6 | S(rot)=       0.01483700 Eh      9.31 kcal/mol|
|  sn= 7 | S(rot)=       0.01469145 Eh      9.22 kcal/mol|
|  sn= 8 | S(rot)=       0.01456538 Eh      9.14 kcal/mol|
|  sn= 9 | S(rot)=       0.01445417 Eh      9.07 kcal/mol|
|  sn=10 | S(rot)=       0.01435469 Eh      9.01 kcal/mol|
|  sn=11 | S(rot)=       0.01426470 Eh      8.95 kcal/mol|
|  sn=12 | S(rot)=       0.01418254 Eh      8.90 kcal/mol|
 linear molecules ---------------------------------------
|  Dinfh | S(rot)=       0.01043491 Eh      6.55 kcal/mol|
|  Cinfv | S(rot)=       0.01108937 Eh      6.96 kcal/mol|
 --------------------------------------------------------


-------------------
GIBBS FREE ENERGY
-------------------

The Gibbs free energy is G = H - T*S

Total enthalpy                    ...  -1853.84052271 Eh 
Total entropy correction          ...     -0.07264860 Eh    -45.59 kcal/mol
-----------------------------------------------------------------------
Final Gibbs free energy         ...  -1853.91317131 Eh

For completeness - the Gibbs free energy minus the electronic energy
G-E(el)                           ...      0.04168919 Eh     26.16 kcal/mol


Maximum memory used throughout the entire PROP-calculation: 522.7 MB

--------------------------------
SUGGESTED CITATIONS FOR THIS RUN
--------------------------------

Below you find a list of papers that are relevant to this ORCA run
We neither can nor want to force you to cite these papers, but we appreciate if you do
You receive ORCA, which is the product of decades of hard work by many enthusiastic individuals, for free
The only thing we kindly ask in return is that you cite our papers,
We deeply appreciate it, if you show your appreciation for ORCA by not just citing the generic ORCA reference.

Please note that relegating all ORCA citations to the supporting information does *not* help us.
SI sections are not indexed - citations you put there will not count into any citation statistics
But we need these citations in order to attract the funding resources that allow us to do what we are doing

Therefore, if you are a happy ORCA user, please consider citing a few of the papers listed below in the main body of your paper

In addition to the list printed below, the program has created the file rf_mecn_freq_TP_C4_D_B.bibtex that contains the list in bibtex format
You can import this file easily into all common literature databanks and citation aid programs


List of essential papers. We consider these as the minimum necessary citations

  1. Neese,F.
     Software update: the ORCA program system, version 5.0
     WIRES Comput. Molec. Sci., 2022 12(1)e1606
     doi.org/10.1002/wcms.1606

List of papers to cite with high priority. The work reported in these papers was absolutely
necessary for this run to complete.
Our perspective: the developers of density functionals and basis sets usually get cited in chemistry papers
Good! But without the algorithms to do something with them, the functionals or basis sets would not do anything.
Hence, in our opinion, the algorithm design and method developments papers are equally worthy of getting cited

  1. Neese,F.
     An improvement of the resolution of the identity approximation for the formation of the Coulomb matrix
     J. Comp. Chem., 2003 24(14)1740-1747
     doi.org/10.1002/jcc.10318
  2. Neese,F.; Wennmohs,F.; Hansen,A.; Becker,U.
     Efficient, approximate and parallel Hartree-Fock and hybrid DFT calculations. A 'chain-of-spheres' algorithm for the Hartree-Fock exchange
     Chem. Phys., 2009 356(1-3)98-109
     doi.org/10.1016/j.chemphys.2008.10.036
  3. Bykov,D.; Petrenko,T.; Izsak,R.; Kossmann,S.; Becker,U.; Valeev,E.; Neese,F.
     Efficient implementation of the analytic second derivatives of Hartree-Fock and hybrid DFT energies: a detailed analysis of different approximations
     Molec. Phys., 2015 113 1961-1977
     doi.org/10.1080/00268976.2015.1025114
  4. Garcia-Rates,M.; Neese,F.
     Efficient implementation of the analytical second derivatives of hartree-fock and hybrid DFT energies within the framework of the conductor-like polarizable continuum model
     J. Comput. Chem., 2019 40 1816-1828
     doi.org/10.1002/jcc.25833
  5. Garcia-Rates,M.; Neese,F.
     Effect of the Solute Cavity on the Solvation Energy and its Derivatives within the Framework of the Gaussian Charge Scheme
     J. Comput. Chem., 2020 41 922-939
     doi.org/10.1002/jcc.26139
  6. Helmich-Paris,B.; de Souza,B.; Neese,F.; Izsák,R.
     An improved chain of spheres for exchange algorithm
     J. Chem. Phys., 2021 155 104109
     doi.org/doi: 10.1063/5.0058766.
  7. Neese,F.
     The SHARK Integral Generation and Digestion System
     J. Comp. Chem., 2022  1-16
     doi.org/10.1002/jcc.26942
  8. Grimme,S.; Antony,J.; Ehrlich,S.; Krieg,H.
     A consistent and accurate ab initio parametrization of density functional dispersion correction (DFT-D) for the 94 elements H-Pu
     J. Chem. Phys., 2010 132 154104
     doi.org/10.1063/1.3382344
  9. Grimme,S.; Ehrlich,S.; Goerigk,L.
     Effect of the damping function in dispersion corrected density functional theory
     J. Comput. Chem., 2011 32(7)1456-1465
     doi.org/10.1002/jcc.21759

List of suggested additional citations. These are papers that are important in the 'surrounding' of 
of this run, or papers that preceded the highly important papers. If you like your results we are grateful for a citation.

  1. Izsak,R.; Neese,F.
     An overlap fitted chain of spheres exchange method
     J. Chem. Phys., 2011 135 144105
     doi.org/10.1063/1.3646921
  2. Izsak,R.; Hansen,A.; Neese,F.
     The resolution of identity and chain of spheres approximations for the LPNO-CCSD singles Fock term
     Molec. Phys., 2012 110 2413-2417
     doi.org/10.1080/00268976.2012.687466
  3. Neese,F.
     The ORCA program system
     WIRES Comput. Molec. Sci., 2012 2(1)73-78
     doi.org/10.1002/wcms.81
  4. Izsak,R.; Neese,F.; Klopper,W.
     Robust fitting techniques in the chain of spheres approximation to the Fock exchange: The role of the complementary space
     J. Chem. Phys., 2013 139 
     doi.org/10.1063/1.4819264
  5. Neese,F.
     Software update: the ORCA program system, version 4.0
     WIRES Comput. Molec. Sci., 2018 8(1)1-6
     doi.org/10.1002/wcms.1327
  6. Neese,F.; Wennmohs,F.; Becker,U.; Riplinger,C.
     The ORCA quantum chemistry program package
     J. Chem. Phys., 2020 152 Art. No. L224108
     doi.org/10.1063/5.0004608

List of optional additional citations

  1. Neese,F.
     Approximate second-order SCF convergence for spin unrestricted wavefunctions
     Chem. Phys. Lett., 2000 325(1-3)93-98
     doi.org/10.1016/s0009-2614(00)00662-x

Timings for individual modules:

Sum of individual times          ...     1388.354 sec (=  23.139 min)
Startup calculation              ...        3.939 sec (=   0.066 min)   0.3 %
SCF iterations                   ...      101.025 sec (=   1.684 min)   7.3 %
Property integrals               ...      423.061 sec (=   7.051 min)  30.5 %
SCF Response                     ...      601.110 sec (=  10.019 min)  43.3 %
Property calculations            ...      259.219 sec (=   4.320 min)  18.7 %
                             ****ORCA TERMINATED NORMALLY****
TOTAL RUN TIME: 0 days 0 hours 23 minutes 9 seconds 93 msec
