
                                 *****************
                                 * O   R   C   A *
                                 *****************

                                            #,                                       
                                            ###                                      
                                            ####                                     
                                            #####                                    
                                            ######                                   
                                           ########,                                 
                                     ,,################,,,,,                         
                               ,,#################################,,                 
                          ,,##########################################,,             
                       ,#########################################, ''#####,          
                    ,#############################################,,   '####,        
                  ,##################################################,,,,####,       
                ,###########''''           ''''###############################       
              ,#####''   ,,,,##########,,,,          '''####'''          '####       
            ,##' ,,,,###########################,,,                        '##       
           ' ,,###''''                  '''############,,,                           
         ,,##''                                '''############,,,,        ,,,,,,###''
      ,#''                                            '''#######################'''  
     '                                                          ''''####''''         
             ,#######,   #######,   ,#######,      ##                                
            ,#'     '#,  ##    ##  ,#'     '#,    #''#        ,####,   ,####,        
            ##       ##  ##   ,#'  ##            #'  '#       #'       #'  '#        
            ##       ##  #######   ##           ,######,      #####,   #    #        
            '#,     ,#'  ##    ##  '#,     ,#' ,#      #,     #,   #   #,  ,#        
             '#######'   ##     ##  '#######'  #'      '#     '####' # '####'        



                #########################################################
                #                        -***-                          #
                #          Department of theory and spectroscopy        #
                #                                                       #
                #                      Frank Neese                      #
                #                                                       #
                #     Directorship, Architecture, Infrastructure        #
                #                    SHARK, DRIVERS                     #
                #        Core code/Algorithms in most modules           #
                #                                                       #
                #        Max Planck Institute fuer Kohlenforschung      #
                #                Kaiser Wilhelm Platz 1                 #
                #                 D-45470 Muelheim/Ruhr                 #
                #                      Germany                          #
                #                                                       #
                #                  All rights reserved                  #
                #                        -***-                          #
                #########################################################


                         Program Version 6.0.1  -  RELEASE   -


 With contributions from (in alphabetic order):
[Max-Planck-Institut fuer Kohlenforschung]                               
  Daniel Aravena         : Magnetic Suceptibility                        
  Michael Atanasov       : Ab Initio Ligand Field Theory (pilot matlab implementation)
  Alexander A. Auer      : GIAO ZORA, VPT2 properties, NMR spectrum      
  Ute Becker             : All parallelization in ORCA, NUMFREQ, NUMCALC 
  Giovanni Bistoni       : ED, misc. LED, open-shell LED, HFLD           
  Martin Brehm           : Molecular dynamics                            
  Dmytro Bykov           : pre 5.0 version of the SCF Hessian            
  Marcos Casanova-Páez   : Triplet and SCS-CIS(D). UHF-(DLPNO)-IP/EA/STEOM-CCSD. UHF-CVS-IP/STEOM-CCSD   
  Vijay G. Chilkuri      : MRCI spin determinant printing, contributions to CSF-ICE 
  Pauline Colinet        : FMM embedding                                 
  Dipayan Datta          : RHF DLPNO-CCSD density                        
  Achintya Kumar Dutta   : EOM-CC, STEOM-CC                              
  Nicolas Foglia         : Exact transition moments, OPA infrastructure, MCD improvements    
  Dmitry Ganyushin       : Spin-Orbit,Spin-Spin,Magnetic field MRCI      
  Miquel Garcia-Rates    : C-PCM and meta-GGA Hessian, CCSD/C-PCM, Gaussian charge scheme 
  Tiago L. C. Gouveia    : GS-ROHF, GS-ROCIS                             
  Yang Guo               : DLPNO-NEVPT2, F12-NEVPT2, CIM, IAO-localization        
  Andreas Hansen         : Spin unrestricted coupled pair/coupled cluster methods 
  Ingolf Harden          : AUTO-CI MPn and infrastructure                
  Benjamin Helmich-Paris : MC-RPA, TRAH-(SCF,CASSCF), AVAS, COSX integrals, SCF dyn. polar. 
  Lee Huntington         : MR-EOM, pCC                                   
  Robert Izsak           : Overlap fitted RIJCOSX, COSX-SCS-MP3, EOM     
  Riya Kayal             : Wick's Theorem for AUTO-CI, AUTO-CI UHF-CCSDT 
  Emily Kempfer          : AUTO-CI, RHF CISDT and CCSDT                  
  Christian Kollmar      : KDIIS, OOCD, Brueckner-CCSD(T), CCSD density, CASPT2, CASPT2-K, improved NEVPT2 
  Axel Koslowski         : Symmetry handling                             
  Simone Kossmann        : meta-GGA functionals, TD-DFT gradient, OOMP2, (MP2 Hessian; deprecated post 5.0) 
  Lucas Lang             : DCDCAS                                        
  Marvin Lechner         : AUTO-CI (C++ implementation), FIC-MRCC        
  Spencer Leger          : CASSCF response                               
  Dagmar Lenk            : GEPOL surface, SMD, ORCA-2-JSON               
  Dimitrios Liakos       : Extrapolation schemes; Compound Job, initial MDCI parallelization 
  Dimitrios Manganas     : Further ROCIS development; embedding schemes. LFT, Crystal Embedding 
  Dimitrios Pantazis     : SARC Basis sets                               
  Anastasios Papadopoulos: AUTO-CI, single reference methods and gradients 
  Taras Petrenko         : pre 6.0 DFT Hessian and TD-DFT gradient, (ASA, deprecated), ECA, 1-Electron XAS/XES, NRVS 
  Peter Pinski           : DLPNO-MP2, DLPNO-MP2 Gradient                 
  Christoph Reimann      : Effective Core Potentials                     
  Marius Retegan         : Local ZFS, SOC                                
  Christoph Riplinger    : Optimizer, TS searches, QM/MM, DLPNO-CCSD(T), (RO)-DLPNO pert. Triples 
  Michael Roemelt        : Original ROCIS implementation                 
  Masaaki Saitow         : Open-shell DLPNO-CCSD energy and density      
  Barbara Sandhoefer     : DKH picture change effects                    
  Kantharuban Sivalingam : CASSCF convergence/infrastructure, NEVPT2 and variants, FIC-MRCI 
  Bernardo de Souza      : ESD, SOC TD-DFT                               
  Georgi L. Stoychev     : AutoAux, RI-MP2 NMR, DLPNO-MP2 response, X2C  
  Van Anh Tran           : RI-MP2 g-tensors                              
  Willem Van den Heuvel  : Paramagnetic NMR                              
  Zikuan Wang            : NOTCH, Electric field optimization            
  Frank Wennmohs         : Technical directorship and infrastructure     
  Hang Xu                : AUTO-CI-Response properties                   
                                                                         
[FACCTs GmbH]                                                            
  Markus Bursch, Miquel Garcia-Rates, Christoph Riplinger, Bernardo de Souza, Georgi L. Stoychev 
                                                                 
  APM, Basis sets (HGBS, AHGBS, def-TZVP (Ac-Lr), def2-XVPD (La-Lu)), CI-OPT, improved COSX, DLPNO-Multilevel,           
  DOCKER, DRACO, updates on ESD, GOAT, IRC, LR-CPCM, MBIS, meta-GGA TD-DFT gradient, ML-optimized integration grids, 
  MM, NACMEs, nearIR, NEB, NEB-TS, NL-DFT gradient (VV10), 2- and 3-layer-ONIOM, interface openCOSMO-RS, QMMM,   
  Crystal-QMMM, SF, symmetry and pop. for TD-DFT, r2SCAN hybrids, SOLVATOR                                   
                                                                         
[Other institutions]                                                     
  V. Asgeirsson          : NEB                                           
  Christoph Bannwarth    : sTDA-DFT, sTD-DFT, PBEh-3c, B97-3c, D3        
  Sebastian Ehlert       : rSCAN, r2SCAN, r2SCAN-3c, D4, dhf basis sets  
  Marvin Friede          : D4 for Fr, Ra, Ac-Lr                          
  Lars Goerigk           : TD-DFT with DH, B97 family of functionals     
  Stefan Grimme          : VdW corrections, initial TS optimization, DFT functionals, gCP, sTDA/sTD-DF 
  Waldemar Hujo          : DFT-NL                                        
  H. Jonsson             : NEB                                           
  Holger Kruse           : gCP                                           
  Marcel Mueller         : wB97X-3c, vDZP basis set                      
  Hagen Neugebauer       : wr2SCAN                                       
  Tobias Risthaus        : range-separated hybrid DFT                    
  Lukas Wittmann         : regularized MP2, r2SCAN double-hybrids, wr2SCAN        
                                                                         
We gratefully acknowledge several colleagues who have allowed us to      
interface, adapt or use parts of their codes:                            
  Ed Valeev, F. Pavosevic, A. Kumar             : LibInt (2-el integral package), F12 methods 
  Garnet Chan, S. Sharma, J. Yang, R. Olivares  : DMRG                   
  Ulf Ekstrom                                   : XCFun DFT Library      
  Mihaly Kallay                                 : mrcc  (arbitrary order and MRCC methods)
  Frank Weinhold                                : gennbo (NPA and NBO analysis)           
  Simon Mueller                                 : openCOSMO-RS                            
  Christopher J. Cramer and Donald G. Truhlar   : smd solvation model                     
  S Lehtola, MJT Oliveira, MAL Marques          : LibXC Library                           
  Liviu Ungur et al                             : ANISO software                          


 Your calculation uses the libint2 library for the computation of 2-el integrals
 For citations please refer to: http://libint.valeyev.net

 Your ORCA version has been built with support for libXC version: 6.2.2
 For citations please refer to: https://libxc.gitlab.io

 This ORCA versions uses:
   CBLAS   interface :  Fast vector & matrix operations
   LAPACKE interface :  Fast linear algebra routines
   SCALAPACK package :  Parallel linear algebra routines
   Shared memory     :  Shared parallel matrices
   BLAS/LAPACK       :  OpenBLAS 0.3.27  USE64BITINT DYNAMIC_ARCH NO_AFFINITY SkylakeX SINGLE_THREADED
        Core in use  :  SkylakeX
   Copyright (c) 2011-2014, The OpenBLAS Project


NOTE: MaxCore=8000 MB was set to SCF,MP2,MDCI,CIPSI,MRCI and CIS
      => If you want to overwrite this, your respective input block should be placed after the MaxCore statement
Your calculation utilizes the atom-pairwise dispersion correction
with the Becke-Johnson damping scheme (D3BJ)


Your calculation utilizes the SMD solvation module
Please cite in your paper:
A.V. Marenich, C.J. Cramer, D.G. Truhlar J. Phys. Chem. B, 113, (2009), 6378 

Warning: RI is on but no J-basis has been assigned. Assigning Def2/J (nothing to worry about!)
================================================================================

----- Orbital basis set information -----
Your calculation utilizes the basis: def2-TZVP
   F. Weigend and R. Ahlrichs, Phys. Chem. Chem. Phys. 7, 3297 (2005).

----- AuxJ basis set information -----
Your calculation utilizes the auxiliary basis: def2/J
   F. Weigend, Phys. Chem. Chem. Phys. 8, 1057 (2006).

================================================================================
                                        WARNINGS
                       Please study these warnings very carefully!
================================================================================


WARNING: Geometry Optimization
  ===> : Switching off AutoStart
         For restart on a previous wavefunction, please use MOREAD

================================================================================
                                       INPUT FILE
================================================================================
NAME = rf_mecn_opt_TP_P_B.inp
|  1> !TPSSh def2-TZVP opt d3 TightSCF SlowConv defgrid2
|  2>  
|  3> %pal
|  4> nprocs 20
|  5> end
|  6>  
|  7> %scf
|  8> MaxIter 1500
|  9> end
| 10>  
| 11> %maxcore 8000
| 12>  
| 13> !CPCM
| 14> %cpcm smd true
| 15> SMDsolvent "ACETONITRILE"
| 16> end
| 17>  
| 18> * xyz 0 1
| 19> 6        4.790427000     -0.033865800     -0.529943200
| 20> 8        5.449345000     -1.206924000     -0.894594600
| 21> 8        4.978223000      1.323071000     -0.737377200
| 22> 6        3.506687600     -0.338741600      0.376153800
| 23> 6        2.222300000      0.400524800     -0.110681600
| 24> 6        0.900506800     -0.386389800      0.175703000
| 25> 6       -0.395261200      0.487294000      0.065549000
| 26> 6       -1.705693600     -0.364773800     -0.068373600
| 27> 6       -3.005136200      0.445344800      0.258164000
| 28> 6       -4.319880200     -0.214526000     -0.270540800
| 29> 9        3.211587400     -1.692050400      0.412735200
| 30> 9        3.741061800      0.055285800      1.689948800
| 31> 9        2.125696800      1.616867800      0.483236600
| 32> 9        2.314152400      0.589704000     -1.455769200
| 33> 9        0.794028800     -1.413561400     -0.700839000
| 34> 9        0.958350600     -0.884509000      1.435093400
| 35> 9       -0.498373400      1.260265600      1.173340200
| 36> 9       -0.299075000      1.289512600     -1.020910800
| 37> 9       -1.641790400     -1.418189000      0.779523800
| 38> 9       -1.792381400     -0.831391600     -1.336863600
| 39> 9       -2.918792200      1.679227200     -0.295171200
| 40> 9       -3.119771000      0.573779800      1.598579800
| 41> 9       -4.383115600     -1.504377600      0.089127600
| 42> 9       -5.365669800      0.430528600      0.260394200
| 43> 9       -4.396020400     -0.128550600     -1.602941800
| 44> 1        5.903122371     -2.014774547     -1.145719253
| 45> *
| 46> 
| 47>                          ****END OF INPUT****
================================================================================

                       *****************************
                       * Geometry Optimization Run *
                       *****************************

Geometry optimization settings:
Update method            Update   .... BFGS
Choice of coordinates    CoordSys .... (2022) Redundant Internals
Initial Hessian          InHess   .... Almloef's Model
Max. no of cycles        MaxIter  .... 78

Convergence Tolerances:
Energy Change            TolE     ....  5.0000e-06 Eh
Max. Gradient            TolMAXG  ....  3.0000e-04 Eh/bohr
RMS Gradient             TolRMSG  ....  1.0000e-04 Eh/bohr
Max. Displacement        TolMAXD  ....  4.0000e-03 bohr
RMS Displacement         TolRMSD  ....  2.0000e-03 bohr
Strict Convergence                .... False

------------------------------------------------------------------------------
                        ORCA OPTIMIZATION COORDINATE SETUP
------------------------------------------------------------------------------

The optimization will be done in redundant internal coordinates (2022)
Making redundant internal coordinates   ...  (2022 redundants) done
Evaluating the initial hessian          ...  (Almloef) done
Evaluating the coordinates              ...  done
Calculating the B-matrix                .... done
Calculating the G-matrix                .... done
Diagonalizing the G-matrix              .... done
Small eigenvalue found = 4.716e-03
Small eigenvalue found = 1.264e-02
Small eigenvalue found = 2.728e-02
The first mode is                       ....   42
The number of degrees of freedom        ....   72

    -----------------------------------------------------------------
                    Redundant Internal Coordinates


    -----------------------------------------------------------------
         Definition                    Initial Value    Approx d2E/dq
    -----------------------------------------------------------------
      1. B(O   1,C   0)                  1.3940         0.551454   
      2. B(O   2,C   0)                  1.3855         0.568952   
      3. B(C   3,C   0)                  1.6006         0.288221   
      4. B(C   4,C   3)                  1.5599         0.334759   
      5. B(C   5,C   4)                  1.5647         0.328824   
      6. B(C   6,C   5)                  1.5667         0.326486   
      7. B(C   7,C   6)                  1.5688         0.323927   
      8. B(C   8,C   7)                  1.5657         0.327637   
      9. B(C   9,C   8)                  1.5632         0.330714   
     10. B(F  10,C   3)                  1.3856         0.528443   
     11. B(F  11,C   3)                  1.3915         0.517117   
     12. B(F  12,C   4)                  1.3570         0.586881   
     13. B(F  13,C   4)                  1.3614         0.577499   
     14. B(F  14,C   5)                  1.3545         0.592326   
     15. B(F  15,C   5)                  1.3556         0.590092   
     16. B(F  16,C   6)                  1.3547         0.591865   
     17. B(F  17,C   6)                  1.3540         0.593567   
     18. B(F  18,C   7)                  1.3538         0.593973   
     19. B(F  19,C   7)                  1.3544         0.592672   
     20. B(F  20,C   8)                  1.3550         0.591238   
     21. B(F  21,C   8)                  1.3514         0.599114   
     22. B(F  22,C   9)                  1.3406         0.623533   
     23. B(F  23,C   9)                  1.3385         0.628179   
     24. B(F  24,C   9)                  1.3373         0.630929   
     25. B(H  25,O   1)                  0.9600         0.519956   
     26. A(O   2,C   0,C   3)          112.3347         0.371210   
     27. A(O   1,C   0,O   2)          136.1318         0.413163   
     28. A(O   1,C   0,C   3)          111.5249         0.369222   
     29. L(C   0,O   1,H  25,C   3, 2) 180.0000         0.362759   
     30. L(C   0,O   1,H  25,C   3, 1) 180.0000         0.362759   
     31. A(C   4,C   3,F  11)          107.4072         0.373095   
     32. A(C   0,C   3,F  11)          110.2099         0.363632   
     33. A(F  10,C   3,F  11)          106.7094         0.399684   
     34. A(C   4,C   3,F  10)          107.2033         0.374492   
     35. A(C   0,C   3,F  10)          111.8265         0.364982   
     36. A(C   0,C   3,C   4)          113.1687         0.341363   
     37. A(C   3,C   4,F  12)          110.2926         0.381351   
     38. A(F  12,C   4,F  13)          108.2194         0.415201   
     39. A(C   3,C   4,C   5)          113.5839         0.349005   
     40. A(C   5,C   4,F  13)          107.9208         0.379109   
     41. A(C   3,C   4,F  13)          108.5818         0.380286   
     42. A(C   5,C   4,F  12)          108.0911         0.380169   
     43. A(F  14,C   5,F  15)          109.0206         0.417483   
     44. A(C   4,C   5,C   6)          113.9128         0.347536   
     45. A(C   6,C   5,F  15)          107.7906         0.380059   
     46. A(C   4,C   5,F  15)          108.5900         0.380529   
     47. A(C   6,C   5,F  14)          108.2026         0.380308   
     48. A(C   4,C   5,F  14)          109.2282         0.380779   
     49. A(C   5,C   6,C   7)          113.2023         0.346660   
     50. A(F  16,C   6,F  17)          108.8752         0.417862   
     51. A(C   7,C   6,F  17)          108.2186         0.379927   
     52. A(C   5,C   6,F  17)          109.1523         0.380446   
     53. A(C   7,C   6,F  16)          108.4284         0.379738   
     54. A(C   5,C   6,F  16)          108.8835         0.380256   
     55. A(C   8,C   7,F  18)          108.1296         0.380723   
     56. A(C   6,C   7,F  18)          109.2524         0.379972   
     57. A(F  18,C   7,F  19)          108.7561         0.418014   
     58. A(C   6,C   7,C   8)          113.2298         0.346865   
     59. A(C   8,C   7,F  19)          108.6915         0.380579   
     60. A(C   6,C   7,F  19)          108.6955         0.379828   
     61. A(F  20,C   8,F  21)          108.8987         0.418476   
     62. A(C   9,C   8,F  21)          107.7127         0.381912   
     63. A(C   7,C   8,F  21)          109.0521         0.381293   
     64. A(C   9,C   8,F  20)          107.4499         0.381036   
     65. A(C   7,C   8,C   9)          114.1471         0.348078   
     66. A(C   7,C   8,F  20)          109.4572         0.380419   
     67. A(F  23,C   9,F  24)          108.6464         0.426961   
     68. A(F  22,C   9,F  24)          109.0552         0.426394   
     69. A(C   8,C   9,F  24)          110.9604         0.385362   
     70. A(F  22,C   9,F  23)          108.6877         0.426061   
     71. A(C   8,C   9,F  23)          108.6349         0.385069   
     72. A(C   8,C   9,F  22)          110.7995         0.384572   
     73. D(F  11,C   3,C   0,O   1)    108.6317         0.006601   
     74. D(C   4,C   3,C   0,O   2)     49.8076         0.006601   
     75. D(F  10,C   3,C   0,O   2)    171.0025         0.006601   
     76. D(F  11,C   3,C   0,O   2)    -70.4768         0.006601   
     77. D(C   4,C   3,C   0,O   1)   -131.0839         0.006601   
     78. D(F  10,C   3,C   0,O   1)     -9.8890         0.006601   
     79. D(C   5,C   4,C   3,C   0)    148.6429         0.009100   
     80. D(F  12,C   4,C   3,C   0)    -89.8453         0.009100   
     81. D(C   5,C   4,C   3,F  10)     24.8733         0.009100   
     82. D(F  12,C   4,C   3,F  10)    146.3851         0.009100   
     83. D(F  12,C   4,C   3,F  11)     32.0233         0.009100   
     84. D(C   5,C   4,C   3,F  11)    -89.4885         0.009100   
     85. D(C   6,C   5,C   4,F  12)     41.2001         0.008811   
     86. D(C   6,C   5,C   4,F  13)    -75.6292         0.008811   
     87. D(C   6,C   5,C   4,C   3)    163.9326         0.008811   
     88. D(F  14,C   5,C   4,F  13)     45.4721         0.008811   
     89. D(F  14,C   5,C   4,F  12)    162.3014         0.008811   
     90. D(F  14,C   5,C   4,C   3)    -74.9661         0.008811   
     91. D(F  16,C   6,C   5,F  15)     44.2190         0.008700   
     92. D(F  16,C   6,C   5,F  14)    161.9826         0.008700   
     93. D(F  16,C   6,C   5,C   4)    -76.3465         0.008700   
     94. D(C   7,C   6,C   5,F  14)     41.3107         0.008700   
     95. D(C   7,C   6,C   5,C   4)    162.9815         0.008700   
     96. D(C   7,C   6,C   5,F  15)    -76.4529         0.008700   
     97. D(F  18,C   7,C   6,F  17)    162.9167         0.008578   
     98. D(F  18,C   7,C   6,F  16)    -79.1358         0.008578   
     99. D(F  18,C   7,C   6,C   5)     41.7939         0.008578   
    100. D(C   8,C   7,C   6,F  17)    -76.5134         0.008578   
    101. D(C   8,C   7,C   6,F  16)     41.4341         0.008578   
    102. D(C   8,C   7,C   6,C   5)    162.3638         0.008578   
    103. D(C   9,C   8,C   7,C   6)    162.4166         0.008755   
    104. D(F  20,C   8,C   7,F  19)    -78.9355         0.008755   
    105. D(F  20,C   8,C   7,F  18)    163.1633         0.008755   
    106. D(F  20,C   8,C   7,C   6)     41.9584         0.008755   
    107. D(C   9,C   8,C   7,F  19)     41.5227         0.008755   
    108. D(C   9,C   8,C   7,F  18)    -76.3785         0.008755   
    109. D(F  23,C   9,C   8,F  21)     48.1091         0.008903   
    110. D(F  23,C   9,C   8,F  20)    -69.0724         0.008903   
    111. D(F  23,C   9,C   8,C   7)    169.3552         0.008903   
    112. D(F  22,C   9,C   8,F  21)    -71.2185         0.008903   
    113. D(F  22,C   9,C   8,F  20)    171.5999         0.008903   
    114. D(F  22,C   9,C   8,C   7)     50.0276         0.008903   
    -----------------------------------------------------------------

Number of atoms                         .... 26
Number of degrees of freedom            .... 114


         *************************************************************
         *                GEOMETRY OPTIMIZATION CYCLE   1            *
         *************************************************************
---------------------------------
CARTESIAN COORDINATES (ANGSTROEM)
---------------------------------
  C      4.790427   -0.033866   -0.529943
  O      5.449345   -1.206924   -0.894595
  O      4.978223    1.323071   -0.737377
  C      3.506688   -0.338742    0.376154
  C      2.222300    0.400525   -0.110682
  C      0.900507   -0.386390    0.175703
  C     -0.395261    0.487294    0.065549
  C     -1.705694   -0.364774   -0.068374
  C     -3.005136    0.445345    0.258164
  C     -4.319880   -0.214526   -0.270541
  F      3.211587   -1.692050    0.412735
  F      3.741062    0.055286    1.689949
  F      2.125697    1.616868    0.483237
  F      2.314152    0.589704   -1.455769
  F      0.794029   -1.413561   -0.700839
  F      0.958351   -0.884509    1.435093
  F     -0.498373    1.260266    1.173340
  F     -0.299075    1.289513   -1.020911
  F     -1.641790   -1.418189    0.779524
  F     -1.792381   -0.831392   -1.336864
  F     -2.918792    1.679227   -0.295171
  F     -3.119771    0.573780    1.598580
  F     -4.383116   -1.504378    0.089128
  F     -5.365670    0.430529    0.260394
  F     -4.396020   -0.128551   -1.602942
  H      5.903122   -2.014775   -1.145719

----------------------------
CARTESIAN COORDINATES (A.U.)
----------------------------
  NO LB      ZA    FRAG     MASS         X           Y           Z
   0 C     6.0000    0    12.011    9.052595   -0.063997   -1.001448
   1 O     8.0000    0    15.999   10.297770   -2.280756   -1.690539
   2 O     8.0000    0    15.999    9.407478    2.500242   -1.393441
   3 C     6.0000    0    12.011    6.626679   -0.640129    0.710828
   4 C     6.0000    0    12.011    4.199538    0.756882   -0.209158
   5 C     6.0000    0    12.011    1.701711   -0.730171    0.332031
   6 C     6.0000    0    12.011   -0.746935    0.920852    0.123870
   7 C     6.0000    0    12.011   -3.223294   -0.689323   -0.129207
   8 C     6.0000    0    12.011   -5.678884    0.841580    0.487859
   9 C     6.0000    0    12.011   -8.163391   -0.405395   -0.511248
  10 F     9.0000    0    18.998    6.069021   -3.197512    0.779956
  11 F     9.0000    0    18.998    7.069582    0.104475    3.193540
  12 F     9.0000    0    18.998    4.016985    3.055437    0.913185
  13 F     9.0000    0    18.998    4.373114    1.114379   -2.751005
  14 F     9.0000    0    18.998    1.500497   -2.671244   -1.324394
  15 F     9.0000    0    18.998    1.811020   -1.671480    2.711934
  16 F     9.0000    0    18.998   -0.941789    2.381557    2.217292
  17 F     9.0000    0    18.998   -0.565170    2.436826   -1.929242
  18 F     9.0000    0    18.998   -3.102534   -2.679989    1.473086
  19 F     9.0000    0    18.998   -3.387110   -1.571102   -2.526306
  20 F     9.0000    0    18.998   -5.515718    3.173280   -0.557793
  21 F     9.0000    0    18.998   -5.895513    1.084287    3.020878
  22 F     9.0000    0    18.998   -8.282888   -2.842862    0.168427
  23 F     9.0000    0    18.998  -10.139646    0.813581    0.492074
  24 F     9.0000    0    18.998   -8.307275   -0.242925   -3.029121
  25 H     1.0000    0     1.008   11.155285   -3.807372   -2.165096

--------------------------------
INTERNAL COORDINATES (ANGSTROEM)
--------------------------------
 C      0   0   0     0.000000000000     0.00000000     0.00000000
 O      1   0   0     1.393990356793     0.00000000     0.00000000
 O      1   2   0     1.385486802956   136.13177198     0.00000000
 C      1   2   3     1.600608594862   111.52489317   181.18992567
 C      4   1   2     1.559863783763   113.16872737   228.91614990
 C      5   4   1     1.564732561934   113.58394786   148.64287440
 C      6   5   4     1.566675459667   113.91280616   163.93256239
 C      7   6   5     1.568817348692   113.20226571   162.98152714
 C      8   7   6     1.565717094808   113.22984595   162.36375422
 C      9   8   7     1.563173062643   114.14707705   162.41661495
 F      4   1   2     1.385592665621   111.82651119   350.11101305
 F      4   1   2     1.391490625050   110.20991618   108.63170802
 F      5   4   1     1.357041377479   110.29260564   270.15468021
 F      5   4   1     1.361428031433   108.58179722    28.57841973
 F      6   5   4     1.354527570075   109.22822656   285.03385927
 F      6   5   4     1.355556277776   108.59004089    43.81583148
 F      7   6   5     1.354739297058   108.88346185   283.65347401
 F      7   6   5     1.353957667090   109.15230848    42.38718856
 F      8   7   6     1.353771473879   109.25240264    41.79387651
 F      8   7   6     1.354368423305   108.69554158   283.25540020
 F      9   8   7     1.355028009646   109.45719767    41.95842364
 F      9   8   7     1.351425618925   109.05210362   282.91820052
 F     10   9   8     1.340551089588   110.79953142    50.02756898
 F     10   9   8     1.338530275591   108.63493714   169.35523750
 F     10   9   8     1.337341214598   110.96044107   288.72891896
 H      2   1   3     0.960000000033   180.00000000     0.00000000

---------------------------
INTERNAL COORDINATES (A.U.)
---------------------------
 C      0   0   0     0.000000000000     0.00000000     0.00000000
 O      1   0   0     2.634260007667     0.00000000     0.00000000
 O      1   2   0     2.618190619750   136.13177198     0.00000000
 C      1   2   3     3.024711891890   111.52489317   181.18992567
 C      4   1   2     2.947715357535   113.16872737   228.91614990
 C      5   4   1     2.956916014884   113.58394786   148.64287440
 C      6   5   4     2.960587559506   113.91280616   163.93256239
 C      7   6   5     2.964635143173   113.20226571   162.98152714
 C      8   7   6     2.958776512386   113.22984595   162.36375422
 C      9   8   7     2.953968988318   114.14707705   162.41661495
 F      4   1   2     2.618390671194   111.82651119   350.11101305
 F      4   1   2     2.629536199263   110.20991618   108.63170802
 F      5   4   1     2.564436555835   110.29260564   270.15468021
 F      5   4   1     2.572726130452   108.58179722    28.57841973
 F      6   5   4     2.559686148288   109.22822656   285.03385927
 F      6   5   4     2.561630124115   108.59004089    43.81583148
 F      7   6   5     2.560086254300   108.88346185   283.65347401
 F      7   6   5     2.558609187723   109.15230848    42.38718856
 F      8   7   6     2.558257333546   109.25240264    41.79387651
 F      8   7   6     2.559385404477   108.69554158   283.25540020
 F      9   8   7     2.560631842023   109.45719767    41.95842364
 F      9   8   7     2.553824310132   109.05210362   282.91820052
 F     10   9   8     2.533274427850   110.79953142    50.02756898
 F     10   9   8     2.529455642830   108.63493714   169.35523750
 F     10   9   8     2.527208643196   110.96044107   288.72891896
 H      2   1   3     1.814137088628   180.00000000     0.00000000

---------------------
BASIS SET INFORMATION
---------------------
There are 4 groups of distinct atoms

 Group   1 Type C   : 11s6p2d1f contracted to 5s3p2d1f pattern {62111/411/11/1}
 Group   2 Type O   : 11s6p2d1f contracted to 5s3p2d1f pattern {62111/411/11/1}
 Group   3 Type F   : 11s6p2d1f contracted to 5s3p2d1f pattern {62111/411/11/1}
 Group   4 Type H   : 5s1p contracted to 3s1p pattern {311/1}

Atom   0C    basis set group =>   1
Atom   1O    basis set group =>   2
Atom   2O    basis set group =>   2
Atom   3C    basis set group =>   1
Atom   4C    basis set group =>   1
Atom   5C    basis set group =>   1
Atom   6C    basis set group =>   1
Atom   7C    basis set group =>   1
Atom   8C    basis set group =>   1
Atom   9C    basis set group =>   1
Atom  10F    basis set group =>   3
Atom  11F    basis set group =>   3
Atom  12F    basis set group =>   3
Atom  13F    basis set group =>   3
Atom  14F    basis set group =>   3
Atom  15F    basis set group =>   3
Atom  16F    basis set group =>   3
Atom  17F    basis set group =>   3
Atom  18F    basis set group =>   3
Atom  19F    basis set group =>   3
Atom  20F    basis set group =>   3
Atom  21F    basis set group =>   3
Atom  22F    basis set group =>   3
Atom  23F    basis set group =>   3
Atom  24F    basis set group =>   3
Atom  25H    basis set group =>   4
---------------------------------
AUXILIARY/J BASIS SET INFORMATION
---------------------------------
There are 4 groups of distinct atoms

 Group   1 Type C   : 12s5p4d2f1g contracted to 6s4p3d1f1g pattern {711111/2111/211/2/1}
 Group   2 Type O   : 12s5p4d2f1g contracted to 6s4p3d1f1g pattern {711111/2111/211/2/1}
 Group   3 Type F   : 12s5p4d2f1g contracted to 6s4p3d1f1g pattern {711111/2111/211/2/1}
 Group   4 Type H   : 5s2p1d contracted to 3s1p1d pattern {311/2/1}

Atom   0C    basis set group =>   1
Atom   1O    basis set group =>   2
Atom   2O    basis set group =>   2
Atom   3C    basis set group =>   1
Atom   4C    basis set group =>   1
Atom   5C    basis set group =>   1
Atom   6C    basis set group =>   1
Atom   7C    basis set group =>   1
Atom   8C    basis set group =>   1
Atom   9C    basis set group =>   1
Atom  10F    basis set group =>   3
Atom  11F    basis set group =>   3
Atom  12F    basis set group =>   3
Atom  13F    basis set group =>   3
Atom  14F    basis set group =>   3
Atom  15F    basis set group =>   3
Atom  16F    basis set group =>   3
Atom  17F    basis set group =>   3
Atom  18F    basis set group =>   3
Atom  19F    basis set group =>   3
Atom  20F    basis set group =>   3
Atom  21F    basis set group =>   3
Atom  22F    basis set group =>   3
Atom  23F    basis set group =>   3
Atom  24F    basis set group =>   3
Atom  25H    basis set group =>   4


           ************************************************************
           *        Program running with 20 parallel MPI-processes    *
           *              working on a common directory               *
           ************************************************************
------------------------------------------------------------------------------
                             ORCA STARTUP CALCULATIONS
                           -- RI-GTO INTEGRALS CHOSEN --
------------------------------------------------------------------------------
------------------------------------------------------------------------------
                   ___                                                        
                  /   \      - P O W E R E D   B Y -                         
                 /     \                                                     
                 |  |  |   _    _      __       _____    __    __             
                 |  |  |  | |  | |    /  \     |  _  \  |  |  /  |          
                  \  \/   | |  | |   /    \    | | | |  |  | /  /          
                 / \  \   | |__| |  /  /\  \   | |_| |  |  |/  /          
                |  |  |   |  __  | /  /__\  \  |    /   |      \           
                |  |  |   | |  | | |   __   |  |    \   |  |\   \          
                \     /   | |  | | |  |  |  |  | |\  \  |  | \   \       
                 \___/    |_|  |_| |__|  |__|  |_| \__\ |__|  \__/        
                                                                              
                      - O R C A' S   B I G   F R I E N D -                    
                                      &                                       
                       - I N T E G R A L  F E E D E R -                       
                                                                              
 v1 FN, 2020, v2 2021, v3 2022-2024                                           
------------------------------------------------------------------------------


----------------------
SHARK INTEGRAL PACKAGE
----------------------

Number of atoms                             ...     26
Number of basis functions                   ...    781
Number of shells                            ...    279
Maximum angular momentum                    ...      3
Integral batch strategy                     ... SHARK/LIBINT Hybrid
RI-J (if used) integral strategy            ... SPLIT-RIJ (Revised 2003 algorithm where possible)
Printlevel                                  ...      1
Contraction scheme used                     ... SEGMENTED contraction
Prescreening option                         ... SCHWARTZ
   Thresh                                   ... 2.500e-11
   Tcut                                     ... 2.500e-12
   Tpresel                                  ... 2.500e-12 
Coulomb Range Separation                    ... NOT USED
Exchange Range Separation                   ... NOT USED
Multipole approximations                    ... NOT USED
Finite Nucleus Model                        ... NOT USED
CABS basis                                  ... NOT available
Auxiliary Coulomb fitting basis             ... AVAILABLE
   # of basis functions in Aux-J            ...   1236
   # of shells in Aux-J                     ...    380
   Maximum angular momentum in Aux-J        ...      4
Auxiliary J/K fitting basis                 ... NOT available
Auxiliary Correlation fitting basis         ... NOT available
Auxiliary 'external' fitting basis          ... NOT available

Checking pre-screening integrals            ... done (  0.0 sec) Dimension = 279
Check shell pair data                       ... done (  0.0 sec)
Shell pair information
Shell pair cut-off parameter TPreSel        ...   2.5e-12
Total number of shell pairs                 ...     39060
Shell pairs after pre-screening             ...     23834
Total number of primitive shell pairs       ...    128824
Primitive shell pairs kept                  ...     50343
          la=0 lb=0:   4538 shell pairs
          la=1 lb=0:   6518 shell pairs
          la=1 lb=1:   2258 shell pairs
          la=2 lb=0:   3530 shell pairs
          la=2 lb=1:   2590 shell pairs
          la=2 lb=2:    727 shell pairs
          la=3 lb=0:   1601 shell pairs
          la=3 lb=1:   1246 shell pairs
          la=3 lb=2:    666 shell pairs
          la=3 lb=3:    160 shell pairs

Calculating one electron integrals          ... done (  0.0 sec)
Calculating RI/J V-Matrix + Cholesky decomp.... done (  0.1 sec)
Calculating Nuclear repulsion               ... done (  0.0 sec) ENN=   2882.920911014247 Eh

Diagonalization of the overlap matrix:
Smallest eigenvalue                        ... 6.007e-05
Time for diagonalization                   ...    0.139 sec
Threshold for overlap eigenvalues          ... 1.000e-07
Number of eigenvalues below threshold      ... 0
Time for construction of square roots      ...    0.061 sec
Total time needed                          ...    0.208 sec

-------------------
DFT GRID GENERATION
-------------------

General Integration Accuracy     IntAcc      ... 4.388
Radial Grid Type                 RadialGrid  ... OptM3 with GC (2021)
Angular Grid (max. ang.)         AngularGrid ... 4 (Lebedev-302)
Angular grid pruning method      GridPruning ... 4 (adaptive)
Weight generation scheme         WeightScheme... mBecke (2022)
Basis function cutoff            BFCut       ... 1.0000e-11
Integration weight cutoff        WCut        ... 1.0000e-14
Partially contracted basis set               ... off
Rotationally invariant grid construction     ... off
Angular grids for H and He will be reduced by one unit

Total number of grid points                  ...   154735
Total number of batches                      ...     2429
Average number of points per batch           ...       63
Average number of grid points per atom       ...     5951

--------------------
COSX GRID GENERATION
--------------------

GRIDX 1
-------
General Integration Accuracy     IntAcc      ... 3.816
Radial Grid Type                 RadialGrid  ... OptM3 with GC (2021)
Angular Grid (max. ang.)         AngularGrid ... 1 (Lebedev-50)
Angular grid pruning method      GridPruning ... 4 (adaptive)
Weight generation scheme         WeightScheme... mBecke (2022)
Basis function cutoff            BFCut       ... 1.0000e-11
Integration weight cutoff        WCut        ... 1.0000e-14
Partially contracted basis set               ... on
Rotationally invariant grid construction     ... off
Angular grids for H and He will be reduced by one unit

Total number of grid points                  ...    19462
Total number of batches                      ...      164
Average number of points per batch           ...      118
Average number of grid points per atom       ...      749
UseSFitting                                  ... on

GRIDX 2
-------
General Integration Accuracy     IntAcc      ... 4.020
Radial Grid Type                 RadialGrid  ... OptM3 with GC (2021)
Angular Grid (max. ang.)         AngularGrid ... 2 (Lebedev-110)
Angular grid pruning method      GridPruning ... 4 (adaptive)
Weight generation scheme         WeightScheme... mBecke (2022)
Basis function cutoff            BFCut       ... 1.0000e-11
Integration weight cutoff        WCut        ... 1.0000e-14
Partially contracted basis set               ... on
Rotationally invariant grid construction     ... off
Angular grids for H and He will be reduced by one unit

Total number of grid points                  ...    45841
Total number of batches                      ...      374
Average number of points per batch           ...      122
Average number of grid points per atom       ...     1763
UseSFitting                                  ... on

GRIDX 3
-------
General Integration Accuracy     IntAcc      ... 4.338
Radial Grid Type                 RadialGrid  ... OptM3 with GC (2021)
Angular Grid (max. ang.)         AngularGrid ... 3 (Lebedev-194)
Angular grid pruning method      GridPruning ... 4 (adaptive)
Weight generation scheme         WeightScheme... mBecke (2022)
Basis function cutoff            BFCut       ... 1.0000e-11
Integration weight cutoff        WCut        ... 1.0000e-14
Partially contracted basis set               ... on
Rotationally invariant grid construction     ... off
Angular grids for H and He will be reduced by one unit

Total number of grid points                  ...   101470
Total number of batches                      ...      802
Average number of points per batch           ...      126
Average number of grid points per atom       ...     3903
UseSFitting                                  ... on
Initializing property integral containers    ... done (  0.0 sec)

SHARK setup successfully completed in   4.0 seconds

Maximum memory used throughout the entire STARTUP-calculation: 60.6 MB


           ************************************************************
           *        Program running with 20 parallel MPI-processes    *
           *              working on a common directory               *
           ************************************************************
-------------------------------------------------------------------------------
                                 ORCA GUESS
                   Start orbitals & Density for SCF / CASSCF
-------------------------------------------------------------------------------

------------
SCF SETTINGS
------------
Hamiltonian:
 Density Functional     Method          .... DFT(GTOs)
 Exchange Functional    Exchange        .... TPSS
 Correlation Functional Correlation     .... TPSS
 LDA part of GGA corr.  LDAOpt          .... PW91-LDA
 Gradients option       PostSCFGGA      .... off
 Hybrid DFT is turned on
   Fraction HF Exchange ScalHFX         ....  0.100000
   Scaling of DF-GGA-X  ScalDFX         ....  0.900000
   Scaling of DF-GGA-C  ScalDFC         ....  1.000000
   Scaling of DF-LDA-C  ScalLDAC        ....  1.000000
   Perturbative correction              ....  0.000000
   NL short-range parameter             ....  5.200000
 RI-approximation to the Coulomb term is turned on
   Number of AuxJ basis functions       .... 1236
   RIJ-COSX (HFX calculated with COS-X)).... on


General Settings:
 Integral files         IntName         .... rf_mecn_opt_TP_P_B
 Hartree-Fock type      HFTyp           .... RHF
 Total Charge           Charge          ....    0
 Multiplicity           Mult            ....    1
 Number of Electrons    NEL             ....  200
 Basis Dimension        Dim             ....  781
 Nuclear Repulsion      ENuc            ....   2882.9209110142 Eh

Convergence Acceleration:
 AO-DIIS                CNVDIIS         .... on
   Start iteration      DIISMaxIt       ....     0
   Startup error        DIISStart       ....  0.200000
   # of expansion vecs  DIISMaxEq       ....     5
   Bias factor          DIISBfac        ....   1.050
   Max. coefficient     DIISMaxC        ....  10.000
 MO-DIIS                CNVKDIIS        .... off
 Trust-Rad. Augm. Hess. CNVTRAH         .... auto
   Auto Start mean grad. ratio tolernc. ....  1.125000
   Auto Start start iteration           ....    50
   Auto Start num. interpolation iter.  ....    10
   Max. Number of Micro iterations      ....    24
   Max. Number of Macro iterations      .... Maxiter - #DIIS iter
   Number of Davidson start vectors     ....     2
   Converg. threshold    (grad. norm)   ....   1.000e-05
   Grad. Scal. Fac. for Micro threshold ....   0.100
   Minimum threshold for Micro iter.    ....   1.000e-02
   NR start threshold (gradient norm)   ....   1.000e-04
   Initial trust radius                 ....   0.400
   Minimum AH scaling param. (alpha)    ....   1.000
   Maximum AH scaling param. (alpha)    .... 1000.000
   Quad. conv. algorithm                .... NR
   White noise on init. David. guess    .... on
   Maximum white noise                  ....   0.010
   Pseudo random numbers                .... off
   Inactive MOs                         .... canonical
   Orbital update algorithm             .... Taylor
   Preconditioner                       .... Diag
   Full preconditioner red. dimension   ....   250
 SOSCF                  CNVSOSCF        .... on
   Start iteration      SOSCFMaxIt      ....   150
   Startup grad/error   SOSCFStart      ....  0.001000
   Hessian update       SOSCFHessUp     .... L-BFGS
 Level Shifting         CNVShift        .... on
   Level shift para.    LevelShift      ....    0.2500
   Turn off err/grad.   ShiftErr        ....    0.0000
 Zerner damping         CNVZerner       .... off
 Static damping         CNVDamp         .... on
   Fraction old density DampFac         ....    0.8500
   Max. Damping (<1)    DampMax         ....    0.9800
   Min. Damping (>=0)   DampMin         ....    0.0000
   Turn off err/grad.   DampErr         ....    0.0300

SCF Procedure:
 Maximum # iterations   MaxIter         ....  1500
 SCF integral mode      SCFMode         .... Direct
   Integral package                     .... SHARK and LIBINT hybrid scheme
 Reset frequency        DirectResetFreq ....    20
 Integral Threshold     Thresh          ....  2.500e-11 Eh
 Primitive CutOff       TCut            ....  2.500e-12 Eh

Convergence Tolerance:
 Convergence Check Mode ConvCheckMode   .... Total+1el-Energy
 Convergence forced     ConvForced      .... 0
 Energy Change          TolE            ....  1.000e-08 Eh
 1-El. energy change                    ....  1.000e-05 Eh
 Orbital Gradient       TolG            ....  1.000e-05
 Orbital Rotation angle TolX            ....  1.000e-05
 DIIS Error             TolErr          ....  5.000e-07

------------------------------
INITIAL GUESS: MODEL POTENTIAL
------------------------------
Loading Hartree-Fock densities                     ... done
Calculating cut-offs                               ... done
Initializing the effective Hamiltonian             ... done
Setting up the integral package (SHARK)            ... done
Starting the Coulomb interaction                   ... done (   0.2 sec)
Making the grid                                    ... done (   0.5 sec)
Mapping shells                                     ... done
Starting the XC term evaluation                    ... done (   0.2 sec)
  promolecular density results
     # of electrons  =    200.000344366
     EX              =   -207.425187988
     EC              =     -7.016318633
     EX+EC           =   -214.441506621
Transforming the Hamiltonian                       ... done (   0.1 sec)
Diagonalizing the Hamiltonian                      ... done (   0.1 sec)
Back transforming the eigenvectors                 ... done (   0.0 sec)
Now organizing SCF variables                       ... done
                      ------------------
                      INITIAL GUESS DONE (   1.2 sec)
                      ------------------
             **** ENERGY FILE WAS UPDATED (rf_mecn_opt_TP_P_B.en.tmp) ****
Finished Guess after   2.1 sec
Maximum memory used throughout the entire GUESS-calculation: 49.4 MB


           ************************************************************
           *        Program running with 20 parallel MPI-processes    *
           *              working on a common directory               *
           ************************************************************

-------------------------------------------------------------------------------------------
                                      ORCA LEAN-SCF
                              memory conserving SCF solver
-------------------------------------------------------------------------------------------

--------------------
CPCM SOLVATION MODEL
--------------------
CPCM parameters:
  Epsilon                                         ...      35.6880
  Refrac                                          ...       1.3442
  Rsolv                                           ...       1.3000
  Surface type                                    ... GAUSSIAN VDW
  Discretization scheme                           ... Constant charge density
    Threshold for H atoms                         ...       5.0000 (charges/Ang^2)
    Threshold for non-H atoms                     ...       5.0000 (charges/Ang^2)
  Epsilon function type                           ...         CPCM
Solvent:                                          ... ACETONITRILE
SMD-CDS solvent descriptors:
  Soln                                            ...       1.3442
  Soln25                                          ...       1.3416
  Sola                                            ...       0.0700
  Solb                                            ...       0.3200
  Solg                                            ...      41.2500
  Solc                                            ...       0.0000
  Solh                                            ...       0.0000
Radii:
  Scheme                                          ... Element-dependent radii
  Radius for C  used is    3.4960 Bohr (=   1.8500 Ang.)
  Radius for O  used is    4.0969 Bohr (=   2.1680 Ang.)
  Radius for F  used is    3.2692 Bohr (=   1.7300 Ang.)
  Radius for H  used is    2.2677 Bohr (=   1.2000 Ang.)
Calculating surface                               ...        done! (  0.0s)
Cavity surface points                             ...         2192
Cavity Volume                                     ...    2190.7008
Cavity Surface-area                               ...    1131.4869
Calculating surface distance matrix               ...        done! (  0.1s)
Performing Cholesky decomposition & store         ...        done! (  0.1s)
Overall time for CPCM initialization              ...                 0.2s

----------------------------------------D-I-I-S--------------------------------------------
Iteration    Energy (Eh)           Delta-E    RMSDP     MaxDP     DIISErr   Damp  Time(sec)
-------------------------------------------------------------------------------------------
               ***  Starting incremental Fock matrix formation  ***
    1    -1953.7631930306383765     0.00e+00  4.13e-04  3.28e-02  2.86e-01  0.850   7.2
    2    -1953.9169460702819379    -1.54e-01  3.74e-04  2.88e-02  1.72e-01  0.850   4.4
                               ***Turning on AO-DIIS***
    3    -1953.9912489785206162    -7.43e-02  1.56e-04  8.73e-03  9.79e-02  0.850   4.1
    4    -1954.0343465699456829    -4.31e-02  9.69e-05  6.75e-03  6.90e-02  0.850   3.9
    5    -1954.0646728742726737    -3.03e-02  7.81e-05  7.11e-03  5.46e-02  0.850   3.7
    6    -1954.0888026208453994    -2.41e-02  6.91e-05  6.74e-03  4.99e-02  0.850   3.6
    7    -1954.1091046971000651    -2.03e-02  6.41e-05  6.15e-03  4.21e-02  0.850   3.5
    8    -1954.1264735276486135    -1.74e-02  5.60e-05  5.42e-03  3.49e-02  0.850   3.7
    9    -1954.1409913041402433    -1.45e-02  4.74e-05  4.63e-03  2.89e-02  0.850   3.5
   10    -1954.1530309665217828    -1.20e-02  2.63e-04  2.60e-02  2.33e-02  0.000   3.6
   11    -1954.2178798138997990    -6.48e-02  3.39e-05  3.73e-03  4.55e-03  0.000   4.5
   12    -1954.2178423011250743     3.75e-05  1.25e-05  1.96e-03  8.87e-03  0.000   3.3
   13    -1954.2179533980820452    -1.11e-04  6.17e-06  4.69e-04  2.04e-03  0.000   3.2
                              *** Initializing SOSCF ***
---------------------------------------S-O-S-C-F--------------------------------------
Iteration    Energy (Eh)           Delta-E    RMSDP     MaxDP     MaxGrad    Time(sec)
--------------------------------------------------------------------------------------
   14    -1954.2179660574097397    -1.27e-05  1.95e-06  1.58e-04  4.55e-04     3.3
               *** Restarting incremental Fock matrix formation ***
   15    -1954.2179761937036346    -1.01e-05  2.04e-06  1.63e-04  1.02e-04     6.9
   16    -1954.2179760522999459     1.41e-07  1.05e-06  1.13e-04  1.98e-04     3.7
   17    -1954.2179763153285421    -2.63e-07  7.15e-07  4.24e-05  1.24e-05     3.2
   18    -1954.2179762892769759     2.61e-08  3.23e-07  2.21e-05  1.40e-05     3.5
   19    -1954.2179762967803072    -7.50e-09  1.89e-07  9.83e-06  3.16e-06     3.2
                 **** Energy Check signals convergence ****

               *****************************************************
               *                     SUCCESS                       *
               *           SCF CONVERGED AFTER  19 CYCLES          *
               *****************************************************

Recomputing exchange energy using gridx3       ... done (    8.836 sec)
Old exchange energy                            :    -20.890280352 Eh
New exchange energy                            :    -20.890291291 Eh
Exchange energy change after final integration :     -0.000010939 Eh
Total energy after final integration           :  -1954.217987236 Eh

SMD CDS free energy correction energy :                 3.74045     Kcal/mol
Total Energy after SMD CDS correction =             -1954.212026451 Eh
             **** ENERGY FILE WAS UPDATED (rf_mecn_opt_TP_P_B.en.tmp) ****

----------------
TOTAL SCF ENERGY
----------------

Total Energy       :      -1954.21202645111293 Eh          -53176.81270 eV

Components:
Nuclear Repulsion  :       2882.92091101424694 Eh           78448.26622 eV
Electronic Energy  :      -4837.12313619652650 Eh         -131624.81221 eV
One Electron Energy:      -8456.30682059724859 Eh         -230107.80704 eV
Two Electron Energy:       3619.18368440072209 Eh           98482.99483 eV
CPCM Dielectric    :         -0.01575111450065 Eh              -0.42861 eV
SMD CDS (Gcds)     :          0.00596078508000 Eh               0.16220 eV

Virial components:
Potential Energy   :      -3900.75923676118828 Eh         -106145.05514 eV
Kinetic Energy     :       1946.54721031007534 Eh           52968.24245 eV
Virial Ratio       :          2.00393764718392

DFT components:
N(Alpha)           :       99.999965946014 electrons
N(Beta)            :       99.999965946014 electrons
N(Total)           :      199.999931892027 electrons
E(X)               :     -189.896562683619 Eh       
E(C)               :       -7.034154590673 Eh       
E(XC)              :     -196.930717274292 Eh       

CPCM Solvation Model Properties:
Surface-charge          :         -0.00850434827689
Corrected charge        :         -0.00000000000000
Outlying charge corr.   :          0.00000391937962 Eh               0.00011 eV
Free-energy (cav+disp)  :          0.00596078508000 Eh               0.16220 eV

---------------
SCF CONVERGENCE
---------------

  Last Energy change         ...    7.5033e-09  Tolerance :   1.0000e-08
  Last MAX-Density change    ...    9.8258e-06  Tolerance :   1.0000e-07
  Last RMS-Density change    ...    1.8929e-07  Tolerance :   5.0000e-09
  Last DIIS Error            ...    4.5515e-04  Tolerance :   5.0000e-07
  Last Orbital Gradient      ...    3.1556e-06  Tolerance :   1.0000e-05
  Last Orbital Rotation      ...    9.0438e-06  Tolerance :   1.0000e-05


----------------
ORBITAL ENERGIES
----------------

  NO   OCC          E(Eh)            E(eV) 
   0   2.0000     -24.663171      -671.1190 
   1   2.0000     -24.662868      -671.1108 
   2   2.0000     -24.662677      -671.1056 
   3   2.0000     -24.662247      -671.0939 
   4   2.0000     -24.662194      -671.0924 
   5   2.0000     -24.662081      -671.0894 
   6   2.0000     -24.661890      -671.0841 
   7   2.0000     -24.661258      -671.0670 
   8   2.0000     -24.661253      -671.0668 
   9   2.0000     -24.661121      -671.0632 
  10   2.0000     -24.659716      -671.0250 
  11   2.0000     -24.658252      -670.9852 
  12   2.0000     -24.655848      -670.9197 
  13   2.0000     -24.649708      -670.7526 
  14   2.0000     -24.649623      -670.7503 
  15   2.0000     -19.130682      -520.5723 
  16   2.0000     -19.098960      -519.7091 
  17   2.0000     -10.398522      -282.9582 
  18   2.0000     -10.349587      -281.6266 
  19   2.0000     -10.349052      -281.6120 
  20   2.0000     -10.347545      -281.5710 
  21   2.0000     -10.347340      -281.5654 
  22   2.0000     -10.346329      -281.5379 
  23   2.0000     -10.345402      -281.5127 
  24   2.0000     -10.340883      -281.3897 
  25   2.0000      -1.322361       -35.9833 
  26   2.0000      -1.303457       -35.4689 
  27   2.0000      -1.290415       -35.1140 
  28   2.0000      -1.279419       -34.8147 
  29   2.0000      -1.277963       -34.7751 
  30   2.0000      -1.274122       -34.6706 
  31   2.0000      -1.257312       -34.2132 
  32   2.0000      -1.239647       -33.7325 
  33   2.0000      -1.234928       -33.6041 
  34   2.0000      -1.232365       -33.5343 
  35   2.0000      -1.228990       -33.4425 
  36   2.0000      -1.224306       -33.3151 
  37   2.0000      -1.222947       -33.2781 
  38   2.0000      -1.220191       -33.2031 
  39   2.0000      -1.205127       -32.7932 
  40   2.0000      -1.066959       -29.0334 
  41   2.0000      -0.980117       -26.6703 
  42   2.0000      -0.831154       -22.6169 
  43   2.0000      -0.815060       -22.1789 
  44   2.0000      -0.789376       -21.4800 
  45   2.0000      -0.755387       -20.5551 
  46   2.0000      -0.721312       -19.6279 
  47   2.0000      -0.689565       -18.7640 
  48   2.0000      -0.664861       -18.0918 
  49   2.0000      -0.652787       -17.7632 
  50   2.0000      -0.626571       -17.0499 
  51   2.0000      -0.622170       -16.9301 
  52   2.0000      -0.613169       -16.6852 
  53   2.0000      -0.608086       -16.5469 
  54   2.0000      -0.605743       -16.4831 
  55   2.0000      -0.603435       -16.4203 
  56   2.0000      -0.592019       -16.1097 
  57   2.0000      -0.586804       -15.9677 
  58   2.0000      -0.583698       -15.8832 
  59   2.0000      -0.577374       -15.7111 
  60   2.0000      -0.570717       -15.5300 
  61   2.0000      -0.563965       -15.3463 
  62   2.0000      -0.561585       -15.2815 
  63   2.0000      -0.555905       -15.1269 
  64   2.0000      -0.546658       -14.8753 
  65   2.0000      -0.490506       -13.3474 
  66   2.0000      -0.487199       -13.2574 
  67   2.0000      -0.482337       -13.1251 
  68   2.0000      -0.481411       -13.0999 
  69   2.0000      -0.477053       -12.9813 
  70   2.0000      -0.472860       -12.8672 
  71   2.0000      -0.471538       -12.8312 
  72   2.0000      -0.468658       -12.7528 
  73   2.0000      -0.463175       -12.6036 
  74   2.0000      -0.459973       -12.5165 
  75   2.0000      -0.459108       -12.4930 
  76   2.0000      -0.453216       -12.3326 
  77   2.0000      -0.449979       -12.2446 
  78   2.0000      -0.448995       -12.2178 
  79   2.0000      -0.442042       -12.0286 
  80   2.0000      -0.438961       -11.9447 
  81   2.0000      -0.435848       -11.8600 
  82   2.0000      -0.429028       -11.6745 
  83   2.0000      -0.426914       -11.6169 
  84   2.0000      -0.425621       -11.5817 
  85   2.0000      -0.423462       -11.5230 
  86   2.0000      -0.421946       -11.4817 
  87   2.0000      -0.420285       -11.4365 
  88   2.0000      -0.418320       -11.3831 
  89   2.0000      -0.416054       -11.3214 
  90   2.0000      -0.414158       -11.2698 
  91   2.0000      -0.412571       -11.2266 
  92   2.0000      -0.409674       -11.1478 
  93   2.0000      -0.407224       -11.0811 
  94   2.0000      -0.393327       -10.7030 
  95   2.0000      -0.366833        -9.9820 
  96   2.0000      -0.343723        -9.3532 
  97   2.0000      -0.328363        -8.9352 
  98   2.0000      -0.326379        -8.8812 
  99   2.0000      -0.298481        -8.1221 
 100   0.0000      -0.111185        -3.0255 
 101   0.0000      -0.037130        -1.0104 
 102   0.0000      -0.018275        -0.4973 
 103   0.0000      -0.011112        -0.3024 
 104   0.0000       0.012837         0.3493 
 105   0.0000       0.021993         0.5984 
 106   0.0000       0.058674         1.5966 
 107   0.0000       0.068299         1.8585 
 108   0.0000       0.091238         2.4827 
 109   0.0000       0.093601         2.5470 
 110   0.0000       0.099368         2.7039 
*Only the first 10 virtual orbitals were printed.

                    ********************************
                    * MULLIKEN POPULATION ANALYSIS *
                    ********************************

-----------------------
MULLIKEN ATOMIC CHARGES
-----------------------
   0 C :    0.340029
   1 O :   -0.427973
   2 O :   -0.366863
   3 C :    0.345368
   4 C :    0.302508
   5 C :    0.295052
   6 C :    0.288876
   7 C :    0.274617
   8 C :    0.296825
   9 C :    0.408762
  10 F :   -0.163138
  11 F :   -0.164187
  12 F :   -0.150639
  13 F :   -0.155388
  14 F :   -0.148145
  15 F :   -0.148987
  16 F :   -0.147457
  17 F :   -0.147267
  18 F :   -0.147893
  19 F :   -0.147616
  20 F :   -0.146770
  21 F :   -0.143345
  22 F :   -0.135974
  23 F :   -0.131815
  24 F :   -0.132742
  25 H :    0.454160
Sum of atomic charges:   -0.0000000

--------------------------------
MULLIKEN REDUCED ORBITAL CHARGES
--------------------------------
  0 C s       :     3.172908  s :     3.172908
      pz      :     0.790585  p :     2.253097
      px      :     0.801129
      py      :     0.661383
      dz2     :     0.016457  d :     0.215915
      dxz     :     0.015308
      dyz     :     0.059884
      dx2y2   :     0.054657
      dxy     :     0.069610
      f0      :     0.001777  f :     0.018051
      f+1     :     0.001070
      f-1     :     0.002332
      f+2     :     0.002565
      f-2     :     0.001953
      f+3     :     0.003868
      f-3     :     0.004486

  1 O s       :     3.667444  s :     3.667444
      pz      :     1.716082  p :     4.743766
      px      :     1.684769
      py      :     1.342915
      dz2     :     0.001653  d :     0.013921
      dxz     :     0.001190
      dyz     :     0.003042
      dx2y2   :     0.003132
      dxy     :     0.004904
      f0      :     0.000275  f :     0.002842
      f+1     :     0.000129
      f-1     :     0.000381
      f+2     :     0.000245
      f-2     :     0.000432
      f+3     :     0.000941
      f-3     :     0.000440

  2 O s       :     3.884710  s :     3.884710
      pz      :     1.533039  p :     4.456953
      px      :     1.687785
      py      :     1.236128
      dz2     :     0.003114  d :     0.023886
      dxz     :     0.000328
      dyz     :     0.006328
      dx2y2   :     0.008805
      dxy     :     0.005310
      f0      :     0.000118  f :     0.001315
      f+1     :     0.000012
      f-1     :     0.000225
      f+2     :     0.000230
      f-2     :     0.000030
      f+3     :     0.000297
      f-3     :     0.000404

  3 C s       :     3.095067  s :     3.095067
      pz      :     0.687871  p :     2.259695
      px      :     0.919684
      py      :     0.652140
      dz2     :     0.048423  d :     0.274183
      dxz     :     0.055576
      dyz     :     0.067924
      dx2y2   :     0.046784
      dxy     :     0.055476
      f0      :     0.005385  f :     0.025687
      f+1     :     0.003639
      f-1     :     0.003964
      f+2     :     0.003696
      f-2     :     0.002118
      f+3     :     0.003825
      f-3     :     0.003060

  4 C s       :     3.107079  s :     3.107079
      pz      :     0.619800  p :     2.265329
      px      :     0.936563
      py      :     0.708966
      dz2     :     0.063699  d :     0.297117
      dxz     :     0.062407
      dyz     :     0.071225
      dx2y2   :     0.036753
      dxy     :     0.063033
      f0      :     0.003620  f :     0.027967
      f+1     :     0.004992
      f-1     :     0.008114
      f+2     :     0.002409
      f-2     :     0.002716
      f+3     :     0.003608
      f-3     :     0.002508

  5 C s       :     3.139647  s :     3.139647
      pz      :     0.599511  p :     2.231856
      px      :     0.910833
      py      :     0.721511
      dz2     :     0.078863  d :     0.305154
      dxz     :     0.064943
      dyz     :     0.061798
      dx2y2   :     0.035773
      dxy     :     0.063778
      f0      :     0.005044  f :     0.028291
      f+1     :     0.004500
      f-1     :     0.006135
      f+2     :     0.003356
      f-2     :     0.004405
      f+3     :     0.002626
      f-3     :     0.002225

  6 C s       :     3.131786  s :     3.131786
      pz      :     0.590948  p :     2.247852
      px      :     0.924703
      py      :     0.732202
      dz2     :     0.083817  d :     0.303242
      dxz     :     0.064537
      dyz     :     0.056775
      dx2y2   :     0.035317
      dxy     :     0.062796
      f0      :     0.006282  f :     0.028244
      f+1     :     0.004042
      f-1     :     0.004282
      f+2     :     0.004222
      f-2     :     0.005249
      f+3     :     0.002184
      f-3     :     0.001984

  7 C s       :     3.133419  s :     3.133419
      pz      :     0.600184  p :     2.261040
      px      :     0.938010
      py      :     0.722846
      dz2     :     0.076955  d :     0.302696
      dxz     :     0.064582
      dyz     :     0.063159
      dx2y2   :     0.035514
      dxy     :     0.062486
      f0      :     0.004848  f :     0.028227
      f+1     :     0.004464
      f-1     :     0.006476
      f+2     :     0.003216
      f-2     :     0.004327
      f+3     :     0.002720
      f-3     :     0.002176

  8 C s       :     3.103409  s :     3.103409
      pz      :     0.630726  p :     2.275450
      px      :     0.941932
      py      :     0.702793
      dz2     :     0.060900  d :     0.296065
      dxz     :     0.063078
      dyz     :     0.074079
      dx2y2   :     0.036630
      dxy     :     0.061378
      f0      :     0.003603  f :     0.028250
      f+1     :     0.005058
      f-1     :     0.008352
      f+2     :     0.002417
      f-2     :     0.002485
      f+3     :     0.003860
      f-3     :     0.002475

  9 C s       :     3.022322  s :     3.022322
      pz      :     0.666576  p :     2.167054
      px      :     0.821652
      py      :     0.678825
      dz2     :     0.067726  d :     0.361734
      dxz     :     0.071243
      dyz     :     0.088226
      dx2y2   :     0.065204
      dxy     :     0.069334
      f0      :     0.004464  f :     0.040128
      f+1     :     0.008027
      f-1     :     0.008957
      f+2     :     0.004506
      f-2     :     0.003179
      f+3     :     0.007530
      f-3     :     0.003466

 10 F s       :     3.922530  s :     3.922530
      pz      :     1.891073  p :     5.225412
      px      :     1.881953
      py      :     1.452386
      dz2     :     0.002052  d :     0.014564
      dxz     :     0.000303
      dyz     :     0.002795
      dx2y2   :     0.005522
      dxy     :     0.003891
      f0      :     0.000050  f :     0.000633
      f+1     :     0.000016
      f-1     :     0.000127
      f+2     :     0.000071
      f-2     :     0.000018
      f+3     :     0.000168
      f-3     :     0.000182

 11 F s       :     3.921897  s :     3.921897
      pz      :     1.467645  p :     5.227572
      px      :     1.897446
      py      :     1.862481
      dz2     :     0.006374  d :     0.014094
      dxz     :     0.003318
      dyz     :     0.003535
      dx2y2   :     0.000430
      dxy     :     0.000437
      f0      :     0.000225  f :     0.000623
      f+1     :     0.000135
      f-1     :     0.000182
      f+2     :     0.000037
      f-2     :     0.000038
      f+3     :     0.000003
      f-3     :     0.000003

 12 F s       :     3.918913  s :     3.918913
      pz      :     1.803805  p :     5.215276
      px      :     1.899673
      py      :     1.511798
      dz2     :     0.002006  d :     0.015751
      dxz     :     0.000778
      dyz     :     0.005079
      dx2y2   :     0.004685
      dxy     :     0.003203
      f0      :     0.000080  f :     0.000699
      f+1     :     0.000004
      f-1     :     0.000122
      f+2     :     0.000188
      f-2     :     0.000063
      f+3     :     0.000107
      f-3     :     0.000136

 13 F s       :     3.921519  s :     3.921519
      pz      :     1.439503  p :     5.217590
      px      :     1.901867
      py      :     1.876220
      dz2     :     0.008031  d :     0.015590
      dxz     :     0.003593
      dyz     :     0.003409
      dx2y2   :     0.000274
      dxy     :     0.000282
      f0      :     0.000344  f :     0.000689
      f+1     :     0.000152
      f-1     :     0.000163
      f+2     :     0.000011
      f-2     :     0.000017
      f+3     :     0.000001
      f-3     :     0.000001

 14 F s       :     3.918618  s :     3.918618
      pz      :     1.698434  p :     5.212952
      px      :     1.898577
      py      :     1.615942
      dz2     :     0.002587  d :     0.015873
      dxz     :     0.001566
      dyz     :     0.006260
      dx2y2   :     0.002997
      dxy     :     0.002463
      f0      :     0.000078  f :     0.000702
      f+1     :     0.000013
      f-1     :     0.000189
      f+2     :     0.000196
      f-2     :     0.000104
      f+3     :     0.000058
      f-3     :     0.000063

 15 F s       :     3.918739  s :     3.918739
      pz      :     1.491886  p :     5.213700
      px      :     1.901919
      py      :     1.819894
      dz2     :     0.006511  d :     0.015848
      dxz     :     0.003178
      dyz     :     0.004756
      dx2y2   :     0.000618
      dxy     :     0.000784
      f0      :     0.000234  f :     0.000701
      f+1     :     0.000107
      f-1     :     0.000242
      f+2     :     0.000052
      f-2     :     0.000058
      f+3     :     0.000005
      f-3     :     0.000004

 16 F s       :     3.919330  s :     3.919330
      pz      :     1.583427  p :     5.211532
      px      :     1.898005
      py      :     1.730100
      dz2     :     0.004330  d :     0.015894
      dxz     :     0.002519
      dyz     :     0.006033
      dx2y2   :     0.001497
      dxy     :     0.001515
      f0      :     0.000118  f :     0.000702
      f+1     :     0.000055
      f-1     :     0.000263
      f+2     :     0.000127
      f-2     :     0.000100
      f+3     :     0.000021
      f-3     :     0.000018

 17 F s       :     3.919295  s :     3.919295
      pz      :     1.594445  p :     5.211334
      px      :     1.898749
      py      :     1.718140
      dz2     :     0.004116  d :     0.015934
      dxz     :     0.002424
      dyz     :     0.006148
      dx2y2   :     0.001632
      dxy     :     0.001614
      f0      :     0.000110  f :     0.000704
      f+1     :     0.000049
      f-1     :     0.000260
      f+2     :     0.000137
      f-2     :     0.000102
      f+3     :     0.000024
      f-3     :     0.000022

 18 F s       :     3.919550  s :     3.919550
      pz      :     1.710343  p :     5.211680
      px      :     1.900122
      py      :     1.601215
      dz2     :     0.002482  d :     0.015959
      dxz     :     0.001463
      dyz     :     0.006248
      dx2y2   :     0.003216
      dxy     :     0.002550
      f0      :     0.000078  f :     0.000704
      f+1     :     0.000010
      f-1     :     0.000181
      f+2     :     0.000203
      f-2     :     0.000098
      f+3     :     0.000063
      f-3     :     0.000071

 19 F s       :     3.919531  s :     3.919531
      pz      :     1.485948  p :     5.211447
      px      :     1.899065
      py      :     1.826433
      dz2     :     0.006717  d :     0.015934
      dxz     :     0.003329
      dyz     :     0.004628
      dx2y2   :     0.000572
      dxy     :     0.000688
      f0      :     0.000246  f :     0.000703
      f+1     :     0.000115
      f-1     :     0.000234
      f+2     :     0.000046
      f-2     :     0.000054
      f+3     :     0.000004
      f-3     :     0.000003

 20 F s       :     3.918857  s :     3.918857
      pz      :     1.813614  p :     5.211387
      px      :     1.897262
      py      :     1.500510
      dz2     :     0.002005  d :     0.015827
      dxz     :     0.000642
      dyz     :     0.004916
      dx2y2   :     0.004918
      dxy     :     0.003345
      f0      :     0.000079  f :     0.000700
      f+1     :     0.000004
      f-1     :     0.000120
      f+2     :     0.000182
      f-2     :     0.000055
      f+3     :     0.000114
      f-3     :     0.000147

 21 F s       :     3.916385  s :     3.916385
      pz      :     1.434245  p :     5.210233
      px      :     1.897111
      py      :     1.878876
      dz2     :     0.008363  d :     0.016010
      dxz     :     0.003839
      dyz     :     0.003393
      dx2y2   :     0.000205
      dxy     :     0.000210
      f0      :     0.000365  f :     0.000717
      f+1     :     0.000168
      f-1     :     0.000160
      f+2     :     0.000009
      f-2     :     0.000013
      f+3     :     0.000001
      f-3     :     0.000001

 22 F s       :     3.913460  s :     3.913460
      pz      :     1.854050  p :     5.205714
      px      :     1.888066
      py      :     1.463598
      dz2     :     0.002187  d :     0.016049
      dxz     :     0.000330
      dyz     :     0.004179
      dx2y2   :     0.005933
      dxy     :     0.003420
      f0      :     0.000077  f :     0.000751
      f+1     :     0.000008
      f-1     :     0.000137
      f+2     :     0.000152
      f-2     :     0.000028
      f+3     :     0.000139
      f-3     :     0.000211

 23 F s       :     3.911646  s :     3.911646
      pz      :     1.819077  p :     5.203236
      px      :     1.600510
      py      :     1.783650
      dz2     :     0.002143  d :     0.016167
      dxz     :     0.003860
      dyz     :     0.001837
      dx2y2   :     0.003600
      dxy     :     0.004728
      f0      :     0.000086  f :     0.000765
      f+1     :     0.000099
      f-1     :     0.000039
      f+2     :     0.000080
      f-2     :     0.000169
      f+3     :     0.000121
      f-3     :     0.000169

 24 F s       :     3.911988  s :     3.911988
      pz      :     1.434002  p :     5.203759
      px      :     1.886776
      py      :     1.882981
      dz2     :     0.008806  d :     0.016229
      dxz     :     0.003677
      dyz     :     0.003397
      dx2y2   :     0.000197
      dxy     :     0.000151
      f0      :     0.000402  f :     0.000766
      f+1     :     0.000172
      f-1     :     0.000171
      f+2     :     0.000011
      f-2     :     0.000008
      f+3     :     0.000001
      f-3     :     0.000001

 25 H s       :     0.495482  s :     0.495482
      pz      :     0.014262  p :     0.050358
      px      :     0.016216
      py      :     0.019880



                     *******************************
                     * LOEWDIN POPULATION ANALYSIS *
                     *******************************

----------------------
LOEWDIN ATOMIC CHARGES
----------------------
   0 C :   -0.237194
   1 O :    0.108329
   2 O :   -0.042774
   3 C :   -0.381528
   4 C :   -0.444093
   5 C :   -0.452447
   6 C :   -0.450727
   7 C :   -0.452358
   8 C :   -0.458320
   9 C :   -0.659164
  10 F :    0.176112
  11 F :    0.165878
  12 F :    0.218761
  13 F :    0.213628
  14 F :    0.223182
  15 F :    0.220776
  16 F :    0.223111
  17 F :    0.223824
  18 F :    0.224407
  19 F :    0.223202
  20 F :    0.220892
  21 F :    0.223470
  22 F :    0.222888
  23 F :    0.225694
  24 F :    0.225788
  25 H :    0.238664

-------------------------------
LOEWDIN REDUCED ORBITAL CHARGES
-------------------------------
  0 C s       :     2.837358  s :     2.837358
      pz      :     0.804185  p :     2.532130
      px      :     0.850744
      py      :     0.877201
      dz2     :     0.076254  d :     0.771627
      dxz     :     0.066495
      dyz     :     0.176152
      dx2y2   :     0.238024
      dxy     :     0.214703
      f0      :     0.008211  f :     0.096080
      f+1     :     0.004226
      f-1     :     0.015392
      f+2     :     0.010978
      f-2     :     0.012358
      f+3     :     0.019878
      f-3     :     0.025036

  1 O s       :     3.259502  s :     3.259502
      pz      :     1.614619  p :     4.591430
      px      :     1.595972
      py      :     1.380839
      dz2     :     0.003915  d :     0.035809
      dxz     :     0.003425
      dyz     :     0.007923
      dx2y2   :     0.008584
      dxy     :     0.011963
      f0      :     0.000509  f :     0.004930
      f+1     :     0.000196
      f-1     :     0.000618
      f+2     :     0.000380
      f-2     :     0.000759
      f+3     :     0.001862
      f-3     :     0.000607

  2 O s       :     3.554386  s :     3.554386
      pz      :     1.469036  p :     4.437974
      px      :     1.605538
      py      :     1.363401
      dz2     :     0.007108  d :     0.047207
      dxz     :     0.000460
      dyz     :     0.009416
      dx2y2   :     0.021159
      dxy     :     0.009065
      f0      :     0.000247  f :     0.003205
      f+1     :     0.000035
      f-1     :     0.000658
      f+2     :     0.000430
      f-2     :     0.000059
      f+3     :     0.000617
      f-3     :     0.001159

  3 C s       :     2.790721  s :     2.790721
      pz      :     0.806287  p :     2.569110
      px      :     0.992116
      py      :     0.770707
[...]
      px      :     1.818484
      py      :     1.659211
      dz2     :     0.005692  d :     0.031234
      dxz     :     0.004149
      dyz     :     0.012836
      dx2y2   :     0.004373
      dxy     :     0.004184
      f0      :     0.000210  f :     0.001548
      f+1     :     0.000061
      f-1     :     0.000446
      f+2     :     0.000351
      f-2     :     0.000287
      f+3     :     0.000116
      f-3     :     0.000076

 17 F s       :     3.597079  s :     3.597079
      pz      :     1.587862  p :     5.141353
      px      :     1.814921
      py      :     1.738570
      dz2     :     0.010277  d :     0.031239
      dxz     :     0.006463
      dyz     :     0.010707
      dx2y2   :     0.001646
      dxy     :     0.002146
      f0      :     0.000375  f :     0.001549
      f+1     :     0.000225
      f-1     :     0.000505
      f+2     :     0.000171
      f-2     :     0.000227
      f+3     :     0.000027
      f-3     :     0.000017

 18 F s       :     3.597550  s :     3.597550
      pz      :     1.661080  p :     5.141464
      px      :     1.818529
      py      :     1.661855
      dz2     :     0.005797  d :     0.031189
      dxz     :     0.004201
      dyz     :     0.012831
      dx2y2   :     0.004249
      dxy     :     0.004110
      f0      :     0.000214  f :     0.001546
      f+1     :     0.000064
      f-1     :     0.000451
      f+2     :     0.000346
      f-2     :     0.000287
      f+3     :     0.000111
      f-3     :     0.000073

 19 F s       :     3.597386  s :     3.597386
      pz      :     1.589790  p :     5.141034
      px      :     1.815894
      py      :     1.735350
      dz2     :     0.010127  d :     0.031262
      dxz     :     0.006368
      dyz     :     0.010871
      dx2y2   :     0.001707
      dxy     :     0.002190
      f0      :     0.000370  f :     0.001551
      f+1     :     0.000216
      f-1     :     0.000509
      f+2     :     0.000177
      f-2     :     0.000231
      f+3     :     0.000029
      f-3     :     0.000018

 20 F s       :     3.598977  s :     3.598977
      pz      :     1.732490  p :     5.142747
      px      :     1.815186
      py      :     1.595071
      dz2     :     0.003847  d :     0.031037
      dxz     :     0.002374
      dyz     :     0.011031
      dx2y2   :     0.007562
      dxy     :     0.006222
      f0      :     0.000160  f :     0.001544
      f+1     :     0.000013
      f-1     :     0.000321
      f+2     :     0.000385
      f-2     :     0.000231
      f+3     :     0.000241
      f-3     :     0.000194

 21 F s       :     3.597715  s :     3.597715
      pz      :     1.536410  p :     5.141780
      px      :     1.819668
      py      :     1.785702
      dz2     :     0.014832  d :     0.031335
      dxz     :     0.007586
      dyz     :     0.007629
      dx2y2   :     0.000494
      dxy     :     0.000794
      f0      :     0.000606  f :     0.001570
      f+1     :     0.000376
      f-1     :     0.000441
      f+2     :     0.000040
      f-2     :     0.000100
      f+3     :     0.000005
      f-3     :     0.000002

 22 F s       :     3.600745  s :     3.600745
      pz      :     1.762111  p :     5.139752
      px      :     1.803251
      py      :     1.574390
      dz2     :     0.003906  d :     0.030898
      dxz     :     0.001186
      dyz     :     0.009931
      dx2y2   :     0.009677
      dxy     :     0.006198
      f0      :     0.000167  f :     0.001628
      f+1     :     0.000011
      f-1     :     0.000307
      f+2     :     0.000396
      f-2     :     0.000141
      f+3     :     0.000294
      f-3     :     0.000311

 23 F s       :     3.600813  s :     3.600813
      pz      :     1.784834  p :     5.138997
      px      :     1.639144
      py      :     1.715019
      dz2     :     0.004148  d :     0.031031
      dxz     :     0.005210
      dyz     :     0.003791
      dx2y2   :     0.006705
      dxy     :     0.011177
      f0      :     0.000155  f :     0.001647
      f+1     :     0.000197
      f-1     :     0.000128
      f+2     :     0.000090
      f-2     :     0.000342
      f+3     :     0.000353
      f-3     :     0.000381

 24 F s       :     3.599232  s :     3.599232
      pz      :     1.527463  p :     5.138633
      px      :     1.805616
      py      :     1.805554
      dz2     :     0.017740  d :     0.031158
      dxz     :     0.006956
      dyz     :     0.005954
      dx2y2   :     0.000215
      dxy     :     0.000293
      f0      :     0.000796  f :     0.001651
      f+1     :     0.000407
      f-1     :     0.000393
      f+2     :     0.000018
      f-2     :     0.000033
      f+3     :     0.000001
      f-3     :     0.000002

 25 H s       :     0.623070  s :     0.623070
      pz      :     0.035849  p :     0.142835
      px      :     0.066722
      py      :     0.040264



                      *****************************
                      * MAYER POPULATION ANALYSIS *
                      *****************************

  NA   - Mulliken gross atomic population
  ZA   - Total nuclear charge
  QA   - Mulliken gross atomic charge
  VA   - Mayer's total valence
  BVA  - Mayer's bonded valence
  FA   - Mayer's free valence

  ATOM       NA         ZA         QA         VA         BVA        FA
  0 C      5.7768     6.0000     0.2232     4.4104     4.4104    -0.0000
  1 O      8.3382     8.0000    -0.3382     2.1992     2.1992    -0.0000
  2 O      8.2875     8.0000    -0.2875     2.2149     2.2149    -0.0000
  3 C      5.6229     6.0000     0.3771     4.1778     4.1778     0.0000
  4 C      5.7336     6.0000     0.2664     4.2139     4.2139    -0.0000
  5 C      5.7096     6.0000     0.2904     4.2608     4.2608    -0.0000
  6 C      5.7026     6.0000     0.2974     4.2492     4.2492    -0.0000
  7 C      5.7275     6.0000     0.2725     4.2282     4.2282    -0.0000
  8 C      5.7039     6.0000     0.2961     4.2519     4.2519    -0.0000
  9 C      5.5914     6.0000     0.4086     4.5727     4.5727     0.0000
 10 F      9.1590     9.0000    -0.1590     1.1621     1.1621     0.0000
 11 F      9.1542     9.0000    -0.1542     1.1706     1.1706     0.0000
 12 F      9.1519     9.0000    -0.1519     1.1787     1.1787    -0.0000
 13 F      9.1528     9.0000    -0.1528     1.1764     1.1764     0.0000
 14 F      9.1483     9.0000    -0.1483     1.1811     1.1811     0.0000
 15 F      9.1465     9.0000    -0.1465     1.1831     1.1831    -0.0000
 16 F      9.1466     9.0000    -0.1466     1.1833     1.1833    -0.0000
 17 F      9.1467     9.0000    -0.1467     1.1832     1.1832    -0.0000
 18 F      9.1476     9.0000    -0.1476     1.1834     1.1834     0.0000
 19 F      9.1465     9.0000    -0.1465     1.1834     1.1834     0.0000
 20 F      9.1462     9.0000    -0.1462     1.1817     1.1817    -0.0000
 21 F      9.1426     9.0000    -0.1426     1.1840     1.1840     0.0000
 22 F      9.1352     9.0000    -0.1352     1.1898     1.1898    -0.0000
 23 F      9.1320     9.0000    -0.1320     1.1932     1.1932     0.0000
 24 F      9.1325     9.0000    -0.1325     1.1936     1.1936     0.0000
 25 H      0.6172     1.0000     0.3828     0.8785     0.8785    -0.0000

  Mayer bond orders larger than 0.100000
B(  0-C ,  1-O ) :   1.3155 B(  0-C ,  2-O ) :   2.0733 B(  0-C ,  3-C ) :   0.9053 
B(  1-O , 25-H ) :   0.8193 B(  3-C ,  4-C ) :   0.9582 B(  3-C , 10-F ) :   1.0995 
B(  3-C , 11-F ) :   1.1193 B(  4-C ,  5-C ) :   0.9499 B(  4-C , 12-F ) :   1.0935 
B(  4-C , 13-F ) :   1.0901 B(  5-C ,  6-C ) :   0.9551 B(  5-C , 14-F ) :   1.0964 
B(  5-C , 15-F ) :   1.0988 B(  6-C ,  7-C ) :   0.9486 B(  6-C , 16-F ) :   1.0966 
B(  6-C , 17-F ) :   1.0951 B(  7-C ,  8-C ) :   0.9435 B(  7-C , 18-F ) :   1.0961 
B(  7-C , 19-F ) :   1.1048 B(  8-C ,  9-C ) :   0.9707 B(  8-C , 20-F ) :   1.1005 
B(  8-C , 21-F ) :   1.1133 B(  9-C , 22-F ) :   1.1598 B(  9-C , 23-F ) :   1.1627 
B(  9-C , 24-F ) :   1.1717 

-------
TIMINGS
-------

Total SCF time: 0 days 0 hours 0 min 47 sec 

Total time                  ....      47.181 sec
Sum of individual times     ....      46.529 sec  ( 98.6%)

SCF preparation             ....       1.402 sec  (  3.0%)
Fock matrix formation       ....      39.530 sec  ( 83.8%)
  Startup                   ....       0.170 sec  (  0.4% of F)
  Split-RI-J                ....       3.578 sec  (  9.1% of F)
  Chain of spheres X        ....      24.319 sec  ( 61.5% of F)
  XC integration            ....       8.127 sec  ( 20.6% of F)
    Basis function eval.    ....       0.758 sec  (  9.3% of XC)
    Density eval.           ....       1.831 sec  ( 22.5% of XC)
    XC-Functional eval.     ....       0.125 sec  (  1.5% of XC)
    XC-Potential eval.      ....       1.637 sec  ( 20.1% of XC)
  CPCM terms                ....       3.025 sec  (  7.7% of F)
Diagonalization             ....       0.000 sec  (  0.0%)
Density matrix formation    ....       0.568 sec  (  1.2%)
Total Energy calculation    ....       0.303 sec  (  0.6%)
Population analysis         ....       0.406 sec  (  0.9%)
Orbital Transformation      ....       0.558 sec  (  1.2%)
Orbital Orthonormalization  ....       0.000 sec  (  0.0%)
DIIS solution               ....       2.560 sec  (  5.4%)
SOSCF solution              ....       1.201 sec  (  2.5%)
Finished LeanSCF after  47.6 sec

Maximum memory used throughout the entire LEANSCF-calculation: 102.2 MB


-------------------------------------------------------------------------------
                          DFT DISPERSION CORRECTION                            
                                                                               
                              DFTD3 V3.1  Rev 1                                
                          USING Becke-Johnson damping                          
-------------------------------------------------------------------------------
The TPSSH functional is recognized
Active option DFTDOPT                   ...         4   

molecular C6(AA) [au] = 6840.789887 


            DFT-D V3
 parameters
 s6 scaling factor         :     1.0000 
 a1 scaling factor         :     0.4529 
 s8 scaling factor         :     2.2382 
 a2 scaling factor         :     4.6550 
 ad hoc parameters k1-k3   :    16.0000     1.3333    -4.0000 

 Edisp/kcal,au: -19.560983479664  -0.031172408070 
 E6   /kcal   :  -9.514935555 
 E8   /kcal   : -10.046047925 
 % E8         :  51.357580949 

-------------------------   ----------------
Dispersion correction           -0.031172408
-------------------------   ----------------


-------------------------   --------------------
FINAL SINGLE POINT ENERGY     -1954.345337568961
-------------------------   --------------------

                                *** OPTIMIZATION RUN DONE ***



           ************************************************************
           *        Program running with 20 parallel MPI-processes    *
           *              working on a common directory               *
           ************************************************************

------------------------------------------------------------------------------
                              ORCA PROPERTY CALCULATIONS
------------------------------------------------------------------------------

GBWName                                 ... rf_mecn_opt_TP_P_B.gbw
Number of atoms                         ...     26
Number of basis functions               ...    781
Max core memory                         ...   8000 MB

Electric properties:
Dipole moment                           ... YES
Quadrupole moment                       ...  NO
Static polarizability (Dipole/Dipole)   ...  NO
Static polarizability (Dipole/Quad.)    ...  NO
Static polarizability (Quad./Quad.)     ...  NO
Static polarizability (Velocity)        ...  NO

Atomic electric properties:
Dipole moment                           ...  NO
Quadrupole moment                       ...  NO
Static polarizability                   ...  NO

Choice of electric origin               ... Center of mass
Position of electric origin             ...    -0.083064    -0.145435     0.025229

General magnetic properties:
Magnetizability                         ...  NO

EPR properties:
g-Tensor (aka g-matrix)                 ...  NO
Zero-Field splitting spin-orbit         ...  NO
Zero-field splitting spin-spin          ...  NO
Hyperfine couplings                     ...  NO (   0 nuclei)
Quadrupole couplings                    ...  NO (   0 nuclei)
Contact density                         ...  NO (   0 nuclei)

NMR properties:
Chemical shifts                         ...  NO (   0 nuclei)
Spin-rotation constants                 ...  NO (   0 nuclei)
Spin-spin couplings                     ...  NO (   0 nuclei,    0 pairs)

Choice of magnetic origin               ... GIAO
Position of magnetic origin             ...     0.000000     0.000000     0.000000

Properties with geometric perturbations:
SCF Hessian                             ...  NO
IR spectrum                             ...  NO
VCD spectrum                            ...  NO
X-ray spectroscopy properties:
SCF XES/XAS/RIXS spectra                ...  NO


-------------
DIPOLE MOMENT
-------------

Method             : SCF
Type of density    : Electron Density
Multiplicity       :   1
Irrep              :   0
Energy             : -1954.3141651608914344 Eh
Relativity type    : 
Basis              : AO
                                X                 Y                 Z
Electronic contribution:    -14.947221251      -0.306548649       1.595902384
Nuclear contribution   :     15.675948152      -0.086623298      -2.475132494
                        -----------------------------------------
Total Dipole Moment    :      0.728726901      -0.393171947      -0.879230110
                        -----------------------------------------
Magnitude (a.u.)       :      1.207755217
Magnitude (Debye)      :      3.069869795



--------------------
Rotational spectrum 
--------------------
 
Rotational constants in cm-1:             0.021210             0.003676             0.003637 
Rotational constants in MHz :           635.869159           110.198022           109.021496 

Dipole components along the rotational axes: 
x,y,z [a.u.] :     0.735208    -0.389623     0.875406 
x,y,z [Debye]:     1.868750    -0.990343     2.225105 

 

Dipole moment calculation done in   0.1 sec 

Maximum memory used throughout the entire PROP-calculation: 55.5 MB

--------------------------------
SUGGESTED CITATIONS FOR THIS RUN
--------------------------------

Below you find a list of papers that are relevant to this ORCA run
We neither can nor want to force you to cite these papers, but we appreciate if you do
You receive ORCA, which is the product of decades of hard work by many enthusiastic individuals, for free
The only thing we kindly ask in return is that you cite our papers,
We deeply appreciate it, if you show your appreciation for ORCA by not just citing the generic ORCA reference.

Please note that relegating all ORCA citations to the supporting information does *not* help us.
SI sections are not indexed - citations you put there will not count into any citation statistics
But we need these citations in order to attract the funding resources that allow us to do what we are doing

Therefore, if you are a happy ORCA user, please consider citing a few of the papers listed below in the main body of your paper

In addition to the list printed below, the program has created the file rf_mecn_opt_TP_P_B.bibtex that contains the list in bibtex format
You can import this file easily into all common literature databanks and citation aid programs


List of essential papers. We consider these as the minimum necessary citations

  1. Neese,F.
     Software update: the ORCA program system, version 5.0
     WIRES Comput. Molec. Sci., 2022 12(1)e1606
     doi.org/10.1002/wcms.1606

List of papers to cite with high priority. The work reported in these papers was absolutely
necessary for this run to complete.
Our perspective: the developers of density functionals and basis sets usually get cited in chemistry papers
Good! But without the algorithms to do something with them, the functionals or basis sets would not do anything.
Hence, in our opinion, the algorithm design and method developments papers are equally worthy of getting cited

  1. Neese,F.
     An improvement of the resolution of the identity approximation for the formation of the Coulomb matrix
     J. Comp. Chem., 2003 24(14)1740-1747
     doi.org/10.1002/jcc.10318
  2. Neese,F.; Wennmohs,F.; Hansen,A.; Becker,U.
     Efficient, approximate and parallel Hartree-Fock and hybrid DFT calculations. A 'chain-of-spheres' algorithm for the Hartree-Fock exchange
     Chem. Phys., 2009 356(1-3)98-109
     doi.org/10.1016/j.chemphys.2008.10.036
  3. Garcia-Rates,M.; Neese,F.
     Effect of the Solute Cavity on the Solvation Energy and its Derivatives within the Framework of the Gaussian Charge Scheme
     J. Comput. Chem., 2020 41 922-939
     doi.org/10.1002/jcc.26139
  4. Helmich-Paris,B.; de Souza,B.; Neese,F.; Izsák,R.
     An improved chain of spheres for exchange algorithm
     J. Chem. Phys., 2021 155 104109
     doi.org/doi: 10.1063/5.0058766.
  5. Neese,F.
     The SHARK Integral Generation and Digestion System
     J. Comp. Chem., 2022  1-16
     doi.org/10.1002/jcc.26942
  6. Grimme,S.; Antony,J.; Ehrlich,S.; Krieg,H.
     A consistent and accurate ab initio parametrization of density functional dispersion correction (DFT-D) for the 94 elements H-Pu
     J. Chem. Phys., 2010 132 154104
     doi.org/10.1063/1.3382344
  7. Grimme,S.; Ehrlich,S.; Goerigk,L.
     Effect of the damping function in dispersion corrected density functional theory
     J. Comput. Chem., 2011 32(7)1456-1465
     doi.org/10.1002/jcc.21759

List of suggested additional citations. These are papers that are important in the 'surrounding' of 
of this run, or papers that preceded the highly important papers. If you like your results we are grateful for a citation.

  1. Izsak,R.; Neese,F.
     An overlap fitted chain of spheres exchange method
     J. Chem. Phys., 2011 135 144105
     doi.org/10.1063/1.3646921
  2. Izsak,R.; Hansen,A.; Neese,F.
     The resolution of identity and chain of spheres approximations for the LPNO-CCSD singles Fock term
     Molec. Phys., 2012 110 2413-2417
     doi.org/10.1080/00268976.2012.687466
  3. Neese,F.
     The ORCA program system
     WIRES Comput. Molec. Sci., 2012 2(1)73-78
     doi.org/10.1002/wcms.81
  4. Izsak,R.; Neese,F.; Klopper,W.
     Robust fitting techniques in the chain of spheres approximation to the Fock exchange: The role of the complementary space
     J. Chem. Phys., 2013 139 
     doi.org/10.1063/1.4819264
  5. Neese,F.
     Software update: the ORCA program system, version 4.0
     WIRES Comput. Molec. Sci., 2018 8(1)1-6
     doi.org/10.1002/wcms.1327
  6. Neese,F.; Wennmohs,F.; Becker,U.; Riplinger,C.
     The ORCA quantum chemistry program package
     J. Chem. Phys., 2020 152 Art. No. L224108
     doi.org/10.1063/5.0004608

List of optional additional citations

  1. Neese,F.
     Approximate second-order SCF convergence for spin unrestricted wavefunctions
     Chem. Phys. Lett., 2000 325(1-3)93-98
     doi.org/10.1016/s0009-2614(00)00662-x

Timings for individual modules:

Sum of individual times          ...     3481.790 sec (=  58.030 min)
Startup calculation              ...      194.365 sec (=   3.239 min)   5.6 %
SCF iterations                   ...     2443.516 sec (=  40.725 min)  70.2 %
Property calculations            ...        1.068 sec (=   0.018 min)   0.0 %
SCF Gradient evaluation          ...      842.024 sec (=  14.034 min)  24.2 %
Geometry relaxation              ...        0.817 sec (=   0.014 min)   0.0 %
                             ****ORCA TERMINATED NORMALLY****
TOTAL RUN TIME: 0 days 0 hours 58 minutes 32 seconds 204 msec
