
                                 *****************
                                 * O   R   C   A *
                                 *****************

                                            #,                                       
                                            ###                                      
                                            ####                                     
                                            #####                                    
                                            ######                                   
                                           ########,                                 
                                     ,,################,,,,,                         
                               ,,#################################,,                 
                          ,,##########################################,,             
                       ,#########################################, ''#####,          
                    ,#############################################,,   '####,        
                  ,##################################################,,,,####,       
                ,###########''''           ''''###############################       
              ,#####''   ,,,,##########,,,,          '''####'''          '####       
            ,##' ,,,,###########################,,,                        '##       
           ' ,,###''''                  '''############,,,                           
         ,,##''                                '''############,,,,        ,,,,,,###''
      ,#''                                            '''#######################'''  
     '                                                          ''''####''''         
             ,#######,   #######,   ,#######,      ##                                
            ,#'     '#,  ##    ##  ,#'     '#,    #''#        ,####,   ,####,        
            ##       ##  ##   ,#'  ##            #'  '#       #'       #'  '#        
            ##       ##  #######   ##           ,######,      #####,   #    #        
            '#,     ,#'  ##    ##  '#,     ,#' ,#      #,     #,   #   #,  ,#        
             '#######'   ##     ##  '#######'  #'      '#     '####' # '####'        



                #########################################################
                #                        -***-                          #
                #          Department of theory and spectroscopy        #
                #                                                       #
                #                      Frank Neese                      #
                #                                                       #
                #     Directorship, Architecture, Infrastructure        #
                #                    SHARK, DRIVERS                     #
                #        Core code/Algorithms in most modules           #
                #                                                       #
                #        Max Planck Institute fuer Kohlenforschung      #
                #                Kaiser Wilhelm Platz 1                 #
                #                 D-45470 Muelheim/Ruhr                 #
                #                      Germany                          #
                #                                                       #
                #                  All rights reserved                  #
                #                        -***-                          #
                #########################################################


                         Program Version 6.0.1  -  RELEASE   -


 With contributions from (in alphabetic order):
[Max-Planck-Institut fuer Kohlenforschung]                               
  Daniel Aravena         : Magnetic Suceptibility                        
  Michael Atanasov       : Ab Initio Ligand Field Theory (pilot matlab implementation)
  Alexander A. Auer      : GIAO ZORA, VPT2 properties, NMR spectrum      
  Ute Becker             : All parallelization in ORCA, NUMFREQ, NUMCALC 
  Giovanni Bistoni       : ED, misc. LED, open-shell LED, HFLD           
  Martin Brehm           : Molecular dynamics                            
  Dmytro Bykov           : pre 5.0 version of the SCF Hessian            
  Marcos Casanova-Páez   : Triplet and SCS-CIS(D). UHF-(DLPNO)-IP/EA/STEOM-CCSD. UHF-CVS-IP/STEOM-CCSD   
  Vijay G. Chilkuri      : MRCI spin determinant printing, contributions to CSF-ICE 
  Pauline Colinet        : FMM embedding                                 
  Dipayan Datta          : RHF DLPNO-CCSD density                        
  Achintya Kumar Dutta   : EOM-CC, STEOM-CC                              
  Nicolas Foglia         : Exact transition moments, OPA infrastructure, MCD improvements    
  Dmitry Ganyushin       : Spin-Orbit,Spin-Spin,Magnetic field MRCI      
  Miquel Garcia-Rates    : C-PCM and meta-GGA Hessian, CCSD/C-PCM, Gaussian charge scheme 
  Tiago L. C. Gouveia    : GS-ROHF, GS-ROCIS                             
  Yang Guo               : DLPNO-NEVPT2, F12-NEVPT2, CIM, IAO-localization        
  Andreas Hansen         : Spin unrestricted coupled pair/coupled cluster methods 
  Ingolf Harden          : AUTO-CI MPn and infrastructure                
  Benjamin Helmich-Paris : MC-RPA, TRAH-(SCF,CASSCF), AVAS, COSX integrals, SCF dyn. polar. 
  Lee Huntington         : MR-EOM, pCC                                   
  Robert Izsak           : Overlap fitted RIJCOSX, COSX-SCS-MP3, EOM     
  Riya Kayal             : Wick's Theorem for AUTO-CI, AUTO-CI UHF-CCSDT 
  Emily Kempfer          : AUTO-CI, RHF CISDT and CCSDT                  
  Christian Kollmar      : KDIIS, OOCD, Brueckner-CCSD(T), CCSD density, CASPT2, CASPT2-K, improved NEVPT2 
  Axel Koslowski         : Symmetry handling                             
  Simone Kossmann        : meta-GGA functionals, TD-DFT gradient, OOMP2, (MP2 Hessian; deprecated post 5.0) 
  Lucas Lang             : DCDCAS                                        
  Marvin Lechner         : AUTO-CI (C++ implementation), FIC-MRCC        
  Spencer Leger          : CASSCF response                               
  Dagmar Lenk            : GEPOL surface, SMD, ORCA-2-JSON               
  Dimitrios Liakos       : Extrapolation schemes; Compound Job, initial MDCI parallelization 
  Dimitrios Manganas     : Further ROCIS development; embedding schemes. LFT, Crystal Embedding 
  Dimitrios Pantazis     : SARC Basis sets                               
  Anastasios Papadopoulos: AUTO-CI, single reference methods and gradients 
  Taras Petrenko         : pre 6.0 DFT Hessian and TD-DFT gradient, (ASA, deprecated), ECA, 1-Electron XAS/XES, NRVS 
  Peter Pinski           : DLPNO-MP2, DLPNO-MP2 Gradient                 
  Christoph Reimann      : Effective Core Potentials                     
  Marius Retegan         : Local ZFS, SOC                                
  Christoph Riplinger    : Optimizer, TS searches, QM/MM, DLPNO-CCSD(T), (RO)-DLPNO pert. Triples 
  Michael Roemelt        : Original ROCIS implementation                 
  Masaaki Saitow         : Open-shell DLPNO-CCSD energy and density      
  Barbara Sandhoefer     : DKH picture change effects                    
  Kantharuban Sivalingam : CASSCF convergence/infrastructure, NEVPT2 and variants, FIC-MRCI 
  Bernardo de Souza      : ESD, SOC TD-DFT                               
  Georgi L. Stoychev     : AutoAux, RI-MP2 NMR, DLPNO-MP2 response, X2C  
  Van Anh Tran           : RI-MP2 g-tensors                              
  Willem Van den Heuvel  : Paramagnetic NMR                              
  Zikuan Wang            : NOTCH, Electric field optimization            
  Frank Wennmohs         : Technical directorship and infrastructure     
  Hang Xu                : AUTO-CI-Response properties                   
                                                                         
[FACCTs GmbH]                                                            
  Markus Bursch, Miquel Garcia-Rates, Christoph Riplinger, Bernardo de Souza, Georgi L. Stoychev 
                                                                 
  APM, Basis sets (HGBS, AHGBS, def-TZVP (Ac-Lr), def2-XVPD (La-Lu)), CI-OPT, improved COSX, DLPNO-Multilevel,           
  DOCKER, DRACO, updates on ESD, GOAT, IRC, LR-CPCM, MBIS, meta-GGA TD-DFT gradient, ML-optimized integration grids, 
  MM, NACMEs, nearIR, NEB, NEB-TS, NL-DFT gradient (VV10), 2- and 3-layer-ONIOM, interface openCOSMO-RS, QMMM,   
  Crystal-QMMM, SF, symmetry and pop. for TD-DFT, r2SCAN hybrids, SOLVATOR                                   
                                                                         
[Other institutions]                                                     
  V. Asgeirsson          : NEB                                           
  Christoph Bannwarth    : sTDA-DFT, sTD-DFT, PBEh-3c, B97-3c, D3        
  Sebastian Ehlert       : rSCAN, r2SCAN, r2SCAN-3c, D4, dhf basis sets  
  Marvin Friede          : D4 for Fr, Ra, Ac-Lr                          
  Lars Goerigk           : TD-DFT with DH, B97 family of functionals     
  Stefan Grimme          : VdW corrections, initial TS optimization, DFT functionals, gCP, sTDA/sTD-DF 
  Waldemar Hujo          : DFT-NL                                        
  H. Jonsson             : NEB                                           
  Holger Kruse           : gCP                                           
  Marcel Mueller         : wB97X-3c, vDZP basis set                      
  Hagen Neugebauer       : wr2SCAN                                       
  Tobias Risthaus        : range-separated hybrid DFT                    
  Lukas Wittmann         : regularized MP2, r2SCAN double-hybrids, wr2SCAN        
                                                                         
We gratefully acknowledge several colleagues who have allowed us to      
interface, adapt or use parts of their codes:                            
  Ed Valeev, F. Pavosevic, A. Kumar             : LibInt (2-el integral package), F12 methods 
  Garnet Chan, S. Sharma, J. Yang, R. Olivares  : DMRG                   
  Ulf Ekstrom                                   : XCFun DFT Library      
  Mihaly Kallay                                 : mrcc  (arbitrary order and MRCC methods)
  Frank Weinhold                                : gennbo (NPA and NBO analysis)           
  Simon Mueller                                 : openCOSMO-RS                            
  Christopher J. Cramer and Donald G. Truhlar   : smd solvation model                     
  S Lehtola, MJT Oliveira, MAL Marques          : LibXC Library                           
  Liviu Ungur et al                             : ANISO software                          


 Your calculation uses the libint2 library for the computation of 2-el integrals
 For citations please refer to: http://libint.valeyev.net

 Your ORCA version has been built with support for libXC version: 6.2.2
 For citations please refer to: https://libxc.gitlab.io

 This ORCA versions uses:
   CBLAS   interface :  Fast vector & matrix operations
   LAPACKE interface :  Fast linear algebra routines
   SCALAPACK package :  Parallel linear algebra routines
   Shared memory     :  Shared parallel matrices
   BLAS/LAPACK       :  OpenBLAS 0.3.27  USE64BITINT DYNAMIC_ARCH NO_AFFINITY SkylakeX SINGLE_THREADED
        Core in use  :  SkylakeX
   Copyright (c) 2011-2014, The OpenBLAS Project


NOTE: MaxCore=8000 MB was set to SCF,MP2,MDCI,CIPSI,MRCI and CIS
      => If you want to overwrite this, your respective input block should be placed after the MaxCore statement
Your calculation utilizes the atom-pairwise dispersion correction
with the Becke-Johnson damping scheme (D3BJ)


Your calculation utilizes the SMD solvation module
Please cite in your paper:
A.V. Marenich, C.J. Cramer, D.G. Truhlar J. Phys. Chem. B, 113, (2009), 6378 

Warning: RI is on but no J-basis has been assigned. Assigning Def2/J (nothing to worry about!)
================================================================================

----- Orbital basis set information -----
Your calculation utilizes the basis: def2-TZVP
   F. Weigend and R. Ahlrichs, Phys. Chem. Chem. Phys. 7, 3297 (2005).

----- AuxJ basis set information -----
Your calculation utilizes the auxiliary basis: def2/J
   F. Weigend, Phys. Chem. Chem. Phys. 8, 1057 (2006).

================================================================================
                                        WARNINGS
                       Please study these warnings very carefully!
================================================================================



WARNING: SCAN, rSCAN, or r2SCAN functional requested.
  ===> : libXC variant has now been activated.



WARNING: your system is open-shell and RHF/RKS was chosen
  ===> : WILL SWITCH to UHF/UKS


WARNING: Geometry Optimization
  ===> : Switching off AutoStart
         For restart on a previous wavefunction, please use MOREAD

================================================================================
                                       INPUT FILE
================================================================================
NAME = rf_mecn_opt_r2s_C4_P_B.inp
|  1> !r2scanh def2-TZVP opt d3 TightSCF SlowConv defgrid2
|  2>  
|  3> %pal
|  4> nprocs 20
|  5> end
|  6>  
|  7> %scf
|  8> MaxIter 1500
|  9> end
| 10>  
| 11> %maxcore 8000
| 12>  
| 13> !CPCM
| 14> %cpcm smd true
| 15> SMDsolvent "ACETONITRILE"
| 16> end
| 17>  
| 18> * xyz 0 2
| 19> 6        4.790427000     -0.033865800     -0.529943200
| 20> 8        5.449345000     -1.206924000     -0.894594600
| 21> 8        4.978223000      1.323071000     -0.737377200
| 22> 6        3.506687600     -0.338741600      0.376153800
| 23> 6        2.222300000      0.400524800     -0.110681600
| 24> 6        0.900506800     -0.386389800      0.175703000
| 25> 6       -0.395261200      0.487294000      0.065549000
| 26> 6       -1.705693600     -0.364773800     -0.068373600
| 27> 6       -3.005136200      0.445344800      0.258164000
| 28> 6       -4.319880200     -0.214526000     -0.270540800
| 29> 9        3.211587400     -1.692050400      0.412735200
| 30> 9        3.741061800      0.055285800      1.689948800
| 31> 9        2.125696800      1.616867800      0.483236600
| 32> 9        2.314152400      0.589704000     -1.455769200
| 33> 9        0.794028800     -1.413561400     -0.700839000
| 34> 9       -0.498373400      1.260265600      1.173340200
| 35> 9       -0.299075000      1.289512600     -1.020910800
| 36> 9       -1.641790400     -1.418189000      0.779523800
| 37> 9       -1.792381400     -0.831391600     -1.336863600
| 38> 9       -2.918792200      1.679227200     -0.295171200
| 39> 9       -3.119771000      0.573779800      1.598579800
| 40> 9       -4.383115600     -1.504377600      0.089127600
| 41> 9       -5.365669800      0.430528600      0.260394200
| 42> 9       -4.396020400     -0.128550600     -1.602941800
| 43> 1        5.903122371     -2.014774547     -1.145719253
| 44> *
| 45> 
| 46>                          ****END OF INPUT****
================================================================================

                       *****************************
                       * Geometry Optimization Run *
                       *****************************

Geometry optimization settings:
Update method            Update   .... BFGS
Choice of coordinates    CoordSys .... (2022) Redundant Internals
Initial Hessian          InHess   .... Almloef's Model
Max. no of cycles        MaxIter  .... 75

Convergence Tolerances:
Energy Change            TolE     ....  5.0000e-06 Eh
Max. Gradient            TolMAXG  ....  3.0000e-04 Eh/bohr
RMS Gradient             TolRMSG  ....  1.0000e-04 Eh/bohr
Max. Displacement        TolMAXD  ....  4.0000e-03 bohr
RMS Displacement         TolRMSD  ....  2.0000e-03 bohr
Strict Convergence                .... False

------------------------------------------------------------------------------
                        ORCA OPTIMIZATION COORDINATE SETUP
------------------------------------------------------------------------------

The optimization will be done in redundant internal coordinates (2022)
Making redundant internal coordinates   ...  (2022 redundants) done
Evaluating the initial hessian          ...  (Almloef) done
Evaluating the coordinates              ...  done
Calculating the B-matrix                .... done
Calculating the G-matrix                .... done
Diagonalizing the G-matrix              .... done
Small eigenvalue found = 4.721e-03
Small eigenvalue found = 1.266e-02
Small eigenvalue found = 2.865e-02
Small eigenvalue found = 2.987e-02
The first mode is                       ....   39
The number of degrees of freedom        ....   69

    -----------------------------------------------------------------
                    Redundant Internal Coordinates


    -----------------------------------------------------------------
         Definition                    Initial Value    Approx d2E/dq
    -----------------------------------------------------------------
      1. B(O   1,C   0)                  1.3940         0.551454   
      2. B(O   2,C   0)                  1.3855         0.568952   
      3. B(C   3,C   0)                  1.6006         0.288221   
      4. B(C   4,C   3)                  1.5599         0.334759   
      5. B(C   5,C   4)                  1.5647         0.328824   
      6. B(C   6,C   5)                  1.5667         0.326486   
      7. B(C   7,C   6)                  1.5688         0.323927   
      8. B(C   8,C   7)                  1.5657         0.327637   
      9. B(C   9,C   8)                  1.5632         0.330714   
     10. B(F  10,C   3)                  1.3856         0.528443   
     11. B(F  11,C   3)                  1.3915         0.517117   
     12. B(F  12,C   4)                  1.3570         0.586881   
     13. B(F  13,C   4)                  1.3614         0.577499   
     14. B(F  14,C   5)                  1.3545         0.592326   
     15. B(F  15,C   6)                  1.3547         0.591865   
     16. B(F  16,C   6)                  1.3540         0.593567   
     17. B(F  17,C   7)                  1.3538         0.593973   
     18. B(F  18,C   7)                  1.3544         0.592672   
     19. B(F  19,C   8)                  1.3550         0.591238   
     20. B(F  20,C   8)                  1.3514         0.599114   
     21. B(F  21,C   9)                  1.3406         0.623533   
     22. B(F  22,C   9)                  1.3385         0.628179   
     23. B(F  23,C   9)                  1.3373         0.630929   
     24. B(H  24,O   1)                  0.9600         0.519956   
     25. A(O   1,C   0,C   3)          111.5249         0.369222   
     26. A(O   1,C   0,O   2)          136.1318         0.413163   
     27. A(O   2,C   0,C   3)          112.3347         0.371210   
     28. L(C   0,O   1,H  24,C   3, 1) 180.0000         0.362759   
     29. L(C   0,O   1,H  24,C   3, 2) 180.0000         0.362759   
     30. A(F  10,C   3,F  11)          106.7094         0.399684   
     31. A(C   0,C   3,F  11)          110.2099         0.363632   
     32. A(C   4,C   3,F  11)          107.4072         0.373095   
     33. A(C   0,C   3,F  10)          111.8265         0.364982   
     34. A(C   4,C   3,F  10)          107.2033         0.374492   
     35. A(C   0,C   3,C   4)          113.1687         0.341363   
     36. A(C   3,C   4,F  12)          110.2926         0.381351   
     37. A(C   3,C   4,C   5)          113.5839         0.349005   
     38. A(C   5,C   4,F  13)          107.9208         0.379109   
     39. A(C   3,C   4,F  13)          108.5818         0.380286   
     40. A(C   5,C   4,F  12)          108.0911         0.380169   
     41. A(F  12,C   4,F  13)          108.2194         0.415201   
     42. A(C   6,C   5,F  14)          108.2026         0.380308   
     43. A(C   4,C   5,F  14)          109.2282         0.380779   
     44. A(C   4,C   5,C   6)          113.9128         0.347536   
     45. A(C   5,C   6,C   7)          113.2023         0.346660   
     46. A(F  15,C   6,F  16)          108.8752         0.417862   
     47. A(C   7,C   6,F  16)          108.2186         0.379927   
     48. A(C   5,C   6,F  16)          109.1523         0.380446   
     49. A(C   7,C   6,F  15)          108.4284         0.379738   
     50. A(C   5,C   6,F  15)          108.8835         0.380256   
     51. A(C   8,C   7,F  18)          108.6915         0.380579   
     52. A(C   6,C   7,F  18)          108.6955         0.379828   
     53. A(C   8,C   7,F  17)          108.1296         0.380723   
     54. A(F  17,C   7,F  18)          108.7561         0.418014   
     55. A(C   6,C   7,F  17)          109.2524         0.379972   
     56. A(C   6,C   7,C   8)          113.2298         0.346865   
     57. A(F  19,C   8,F  20)          108.8987         0.418476   
     58. A(C   7,C   8,C   9)          114.1471         0.348078   
     59. A(C   9,C   8,F  20)          107.7127         0.381912   
     60. A(C   7,C   8,F  20)          109.0521         0.381293   
     61. A(C   9,C   8,F  19)          107.4499         0.381036   
     62. A(C   7,C   8,F  19)          109.4572         0.380419   
     63. A(F  22,C   9,F  23)          108.6464         0.426961   
     64. A(F  21,C   9,F  23)          109.0552         0.426394   
     65. A(C   8,C   9,F  23)          110.9604         0.385362   
     66. A(F  21,C   9,F  22)          108.6877         0.426061   
     67. A(C   8,C   9,F  22)          108.6349         0.385069   
     68. A(C   8,C   9,F  21)          110.7995         0.384572   
     69. D(C   4,C   3,C   0,O   1)   -131.0839         0.006601   
     70. D(F  10,C   3,C   0,O   1)     -9.8890         0.006601   
     71. D(F  11,C   3,C   0,O   1)    108.6317         0.006601   
     72. D(F  10,C   3,C   0,O   2)    171.0025         0.006601   
     73. D(F  11,C   3,C   0,O   2)    -70.4768         0.006601   
     74. D(C   4,C   3,C   0,O   2)     49.8076         0.006601   
     75. D(C   5,C   4,C   3,C   0)    148.6429         0.009100   
     76. D(F  12,C   4,C   3,F  11)     32.0233         0.009100   
     77. D(F  12,C   4,C   3,C   0)    -89.8453         0.009100   
     78. D(C   5,C   4,C   3,F  11)    -89.4885         0.009100   
     79. D(F  12,C   4,C   3,F  10)    146.3851         0.009100   
     80. D(C   5,C   4,C   3,F  10)     24.8733         0.009100   
     81. D(C   6,C   5,C   4,F  13)    -75.6292         0.008276   
     82. D(C   6,C   5,C   4,F  12)     41.2001         0.008276   
     83. D(C   6,C   5,C   4,C   3)    163.9326         0.008276   
     84. D(F  14,C   5,C   4,F  12)    162.3014         0.008276   
     85. D(F  14,C   5,C   4,C   3)    -74.9661         0.008276   
     86. D(F  16,C   6,C   5,C   4)     42.3872         0.008172   
     87. D(F  15,C   6,C   5,F  14)    161.9826         0.008172   
     88. D(F  15,C   6,C   5,C   4)    -76.3465         0.008172   
     89. D(C   7,C   6,C   5,F  14)     41.3107         0.008172   
     90. D(C   7,C   6,C   5,C   4)    162.9815         0.008172   
     91. D(F  17,C   7,C   6,F  16)    162.9167         0.008578   
     92. D(F  17,C   7,C   6,F  15)    -79.1358         0.008578   
     93. D(F  17,C   7,C   6,C   5)     41.7939         0.008578   
     94. D(C   8,C   7,C   6,F  16)    -76.5134         0.008578   
     95. D(C   8,C   7,C   6,F  15)     41.4341         0.008578   
     96. D(C   8,C   7,C   6,C   5)    162.3638         0.008578   
     97. D(C   9,C   8,C   7,F  18)     41.5227         0.008755   
     98. D(C   9,C   8,C   7,F  17)    -76.3785         0.008755   
     99. D(C   9,C   8,C   7,C   6)    162.4166         0.008755   
    100. D(F  19,C   8,C   7,F  18)    -78.9355         0.008755   
    101. D(F  19,C   8,C   7,F  17)    163.1633         0.008755   
    102. D(F  19,C   8,C   7,C   6)     41.9584         0.008755   
    103. D(F  22,C   9,C   8,F  20)     48.1091         0.008903   
    104. D(F  22,C   9,C   8,F  19)    -69.0724         0.008903   
    105. D(F  22,C   9,C   8,C   7)    169.3552         0.008903   
    106. D(F  21,C   9,C   8,F  20)    -71.2185         0.008903   
    107. D(F  21,C   9,C   8,F  19)    171.5999         0.008903   
    108. D(F  21,C   9,C   8,C   7)     50.0276         0.008903   
    -----------------------------------------------------------------

Number of atoms                         .... 25
Number of degrees of freedom            .... 108


         *************************************************************
         *                GEOMETRY OPTIMIZATION CYCLE   1            *
         *************************************************************
---------------------------------
CARTESIAN COORDINATES (ANGSTROEM)
---------------------------------
  C      4.790427   -0.033866   -0.529943
  O      5.449345   -1.206924   -0.894595
  O      4.978223    1.323071   -0.737377
  C      3.506688   -0.338742    0.376154
  C      2.222300    0.400525   -0.110682
  C      0.900507   -0.386390    0.175703
  C     -0.395261    0.487294    0.065549
  C     -1.705694   -0.364774   -0.068374
  C     -3.005136    0.445345    0.258164
  C     -4.319880   -0.214526   -0.270541
  F      3.211587   -1.692050    0.412735
  F      3.741062    0.055286    1.689949
  F      2.125697    1.616868    0.483237
  F      2.314152    0.589704   -1.455769
  F      0.794029   -1.413561   -0.700839
  F     -0.498373    1.260266    1.173340
  F     -0.299075    1.289513   -1.020911
  F     -1.641790   -1.418189    0.779524
  F     -1.792381   -0.831392   -1.336864
  F     -2.918792    1.679227   -0.295171
  F     -3.119771    0.573780    1.598580
  F     -4.383116   -1.504378    0.089128
  F     -5.365670    0.430529    0.260394
  F     -4.396020   -0.128551   -1.602942
  H      5.903122   -2.014775   -1.145719

----------------------------
CARTESIAN COORDINATES (A.U.)
----------------------------
  NO LB      ZA    FRAG     MASS         X           Y           Z
   0 C     6.0000    0    12.011    9.052595   -0.063997   -1.001448
   1 O     8.0000    0    15.999   10.297770   -2.280756   -1.690539
   2 O     8.0000    0    15.999    9.407478    2.500242   -1.393441
   3 C     6.0000    0    12.011    6.626679   -0.640129    0.710828
   4 C     6.0000    0    12.011    4.199538    0.756882   -0.209158
   5 C     6.0000    0    12.011    1.701711   -0.730171    0.332031
   6 C     6.0000    0    12.011   -0.746935    0.920852    0.123870
   7 C     6.0000    0    12.011   -3.223294   -0.689323   -0.129207
   8 C     6.0000    0    12.011   -5.678884    0.841580    0.487859
   9 C     6.0000    0    12.011   -8.163391   -0.405395   -0.511248
  10 F     9.0000    0    18.998    6.069021   -3.197512    0.779956
  11 F     9.0000    0    18.998    7.069582    0.104475    3.193540
  12 F     9.0000    0    18.998    4.016985    3.055437    0.913185
  13 F     9.0000    0    18.998    4.373114    1.114379   -2.751005
  14 F     9.0000    0    18.998    1.500497   -2.671244   -1.324394
  15 F     9.0000    0    18.998   -0.941789    2.381557    2.217292
  16 F     9.0000    0    18.998   -0.565170    2.436826   -1.929242
  17 F     9.0000    0    18.998   -3.102534   -2.679989    1.473086
  18 F     9.0000    0    18.998   -3.387110   -1.571102   -2.526306
  19 F     9.0000    0    18.998   -5.515718    3.173280   -0.557793
  20 F     9.0000    0    18.998   -5.895513    1.084287    3.020878
  21 F     9.0000    0    18.998   -8.282888   -2.842862    0.168427
  22 F     9.0000    0    18.998  -10.139646    0.813581    0.492074
  23 F     9.0000    0    18.998   -8.307275   -0.242925   -3.029121
  24 H     1.0000    0     1.008   11.155285   -3.807372   -2.165096

--------------------------------
INTERNAL COORDINATES (ANGSTROEM)
--------------------------------
 C      0   0   0     0.000000000000     0.00000000     0.00000000
 O      1   0   0     1.393990356793     0.00000000     0.00000000
 O      1   2   0     1.385486802956   136.13177198     0.00000000
 C      1   2   3     1.600608594862   111.52489317   181.18992567
 C      4   1   2     1.559863783763   113.16872737   228.91614990
 C      5   4   1     1.564732561934   113.58394786   148.64287440
 C      6   5   4     1.566675459667   113.91280616   163.93256239
 C      7   6   5     1.568817348692   113.20226571   162.98152714
 C      8   7   6     1.565717094808   113.22984595   162.36375422
 C      9   8   7     1.563173062643   114.14707705   162.41661495
 F      4   1   2     1.385592665621   111.82651119   350.11101305
 F      4   1   2     1.391490625050   110.20991618   108.63170802
 F      5   4   1     1.357041377479   110.29260564   270.15468021
 F      5   4   1     1.361428031433   108.58179722    28.57841973
 F      6   5   4     1.354527570075   109.22822656   285.03385927
 F      7   6   5     1.354739297058   108.88346185   283.65347401
 F      7   6   5     1.353957667090   109.15230848    42.38718856
 F      8   7   6     1.353771473879   109.25240264    41.79387651
 F      8   7   6     1.354368423305   108.69554158   283.25540020
 F      9   8   7     1.355028009646   109.45719767    41.95842364
 F      9   8   7     1.351425618925   109.05210362   282.91820052
 F     10   9   8     1.340551089588   110.79953142    50.02756898
 F     10   9   8     1.338530275591   108.63493714   169.35523750
 F     10   9   8     1.337341214598   110.96044107   288.72891896
 H      2   1   3     0.960000000033   180.00000000     0.00000000

---------------------------
INTERNAL COORDINATES (A.U.)
---------------------------
 C      0   0   0     0.000000000000     0.00000000     0.00000000
 O      1   0   0     2.634260007667     0.00000000     0.00000000
 O      1   2   0     2.618190619750   136.13177198     0.00000000
 C      1   2   3     3.024711891890   111.52489317   181.18992567
 C      4   1   2     2.947715357535   113.16872737   228.91614990
 C      5   4   1     2.956916014884   113.58394786   148.64287440
 C      6   5   4     2.960587559506   113.91280616   163.93256239
 C      7   6   5     2.964635143173   113.20226571   162.98152714
 C      8   7   6     2.958776512386   113.22984595   162.36375422
 C      9   8   7     2.953968988318   114.14707705   162.41661495
 F      4   1   2     2.618390671194   111.82651119   350.11101305
 F      4   1   2     2.629536199263   110.20991618   108.63170802
 F      5   4   1     2.564436555835   110.29260564   270.15468021
 F      5   4   1     2.572726130452   108.58179722    28.57841973
 F      6   5   4     2.559686148288   109.22822656   285.03385927
 F      7   6   5     2.560086254300   108.88346185   283.65347401
 F      7   6   5     2.558609187723   109.15230848    42.38718856
 F      8   7   6     2.558257333546   109.25240264    41.79387651
 F      8   7   6     2.559385404477   108.69554158   283.25540020
 F      9   8   7     2.560631842023   109.45719767    41.95842364
 F      9   8   7     2.553824310132   109.05210362   282.91820052
 F     10   9   8     2.533274427850   110.79953142    50.02756898
 F     10   9   8     2.529455642830   108.63493714   169.35523750
 F     10   9   8     2.527208643196   110.96044107   288.72891896
 H      2   1   3     1.814137088628   180.00000000     0.00000000

---------------------
BASIS SET INFORMATION
---------------------
There are 4 groups of distinct atoms

 Group   1 Type C   : 11s6p2d1f contracted to 5s3p2d1f pattern {62111/411/11/1}
 Group   2 Type O   : 11s6p2d1f contracted to 5s3p2d1f pattern {62111/411/11/1}
 Group   3 Type F   : 11s6p2d1f contracted to 5s3p2d1f pattern {62111/411/11/1}
 Group   4 Type H   : 5s1p contracted to 3s1p pattern {311/1}

Atom   0C    basis set group =>   1
Atom   1O    basis set group =>   2
Atom   2O    basis set group =>   2
Atom   3C    basis set group =>   1
Atom   4C    basis set group =>   1
Atom   5C    basis set group =>   1
Atom   6C    basis set group =>   1
Atom   7C    basis set group =>   1
Atom   8C    basis set group =>   1
Atom   9C    basis set group =>   1
Atom  10F    basis set group =>   3
Atom  11F    basis set group =>   3
Atom  12F    basis set group =>   3
Atom  13F    basis set group =>   3
Atom  14F    basis set group =>   3
Atom  15F    basis set group =>   3
Atom  16F    basis set group =>   3
Atom  17F    basis set group =>   3
Atom  18F    basis set group =>   3
Atom  19F    basis set group =>   3
Atom  20F    basis set group =>   3
Atom  21F    basis set group =>   3
Atom  22F    basis set group =>   3
Atom  23F    basis set group =>   3
Atom  24H    basis set group =>   4
---------------------------------
AUXILIARY/J BASIS SET INFORMATION
---------------------------------
There are 4 groups of distinct atoms

 Group   1 Type C   : 12s5p4d2f1g contracted to 6s4p3d1f1g pattern {711111/2111/211/2/1}
 Group   2 Type O   : 12s5p4d2f1g contracted to 6s4p3d1f1g pattern {711111/2111/211/2/1}
 Group   3 Type F   : 12s5p4d2f1g contracted to 6s4p3d1f1g pattern {711111/2111/211/2/1}
 Group   4 Type H   : 5s2p1d contracted to 3s1p1d pattern {311/2/1}

Atom   0C    basis set group =>   1
Atom   1O    basis set group =>   2
Atom   2O    basis set group =>   2
Atom   3C    basis set group =>   1
Atom   4C    basis set group =>   1
Atom   5C    basis set group =>   1
Atom   6C    basis set group =>   1
Atom   7C    basis set group =>   1
Atom   8C    basis set group =>   1
Atom   9C    basis set group =>   1
Atom  10F    basis set group =>   3
Atom  11F    basis set group =>   3
Atom  12F    basis set group =>   3
Atom  13F    basis set group =>   3
Atom  14F    basis set group =>   3
Atom  15F    basis set group =>   3
Atom  16F    basis set group =>   3
Atom  17F    basis set group =>   3
Atom  18F    basis set group =>   3
Atom  19F    basis set group =>   3
Atom  20F    basis set group =>   3
Atom  21F    basis set group =>   3
Atom  22F    basis set group =>   3
Atom  23F    basis set group =>   3
Atom  24H    basis set group =>   4


           ************************************************************
           *        Program running with 20 parallel MPI-processes    *
           *              working on a common directory               *
           ************************************************************
------------------------------------------------------------------------------
                             ORCA STARTUP CALCULATIONS
                           -- RI-GTO INTEGRALS CHOSEN --
------------------------------------------------------------------------------
------------------------------------------------------------------------------
                   ___                                                        
                  /   \      - P O W E R E D   B Y -                         
                 /     \                                                     
                 |  |  |   _    _      __       _____    __    __             
                 |  |  |  | |  | |    /  \     |  _  \  |  |  /  |          
                  \  \/   | |  | |   /    \    | | | |  |  | /  /          
                 / \  \   | |__| |  /  /\  \   | |_| |  |  |/  /          
                |  |  |   |  __  | /  /__\  \  |    /   |      \           
                |  |  |   | |  | | |   __   |  |    \   |  |\   \          
                \     /   | |  | | |  |  |  |  | |\  \  |  | \   \       
                 \___/    |_|  |_| |__|  |__|  |_| \__\ |__|  \__/        
                                                                              
                      - O R C A' S   B I G   F R I E N D -                    
                                      &                                       
                       - I N T E G R A L  F E E D E R -                       
                                                                              
 v1 FN, 2020, v2 2021, v3 2022-2024                                           
------------------------------------------------------------------------------


----------------------
SHARK INTEGRAL PACKAGE
----------------------

Number of atoms                             ...     25
Number of basis functions                   ...    750
Number of shells                            ...    268
Maximum angular momentum                    ...      3
Integral batch strategy                     ... SHARK/LIBINT Hybrid
RI-J (if used) integral strategy            ... SPLIT-RIJ (Revised 2003 algorithm where possible)
Printlevel                                  ...      1
Contraction scheme used                     ... SEGMENTED contraction
Prescreening option                         ... SCHWARTZ
   Thresh                                   ... 2.500e-11
   Tcut                                     ... 2.500e-12
   Tpresel                                  ... 2.500e-12 
Coulomb Range Separation                    ... NOT USED
Exchange Range Separation                   ... NOT USED
Multipole approximations                    ... NOT USED
Finite Nucleus Model                        ... NOT USED
CABS basis                                  ... NOT available
Auxiliary Coulomb fitting basis             ... AVAILABLE
   # of basis functions in Aux-J            ...   1187
   # of shells in Aux-J                     ...    365
   Maximum angular momentum in Aux-J        ...      4
Auxiliary J/K fitting basis                 ... NOT available
Auxiliary Correlation fitting basis         ... NOT available
Auxiliary 'external' fitting basis          ... NOT available

Checking pre-screening integrals            ... done (  0.0 sec) Dimension = 268
Check shell pair data                       ... done (  0.0 sec)
Shell pair information
Shell pair cut-off parameter TPreSel        ...   2.5e-12
Total number of shell pairs                 ...     36046
Shell pairs after pre-screening             ...     21894
Total number of primitive shell pairs       ...    118872
Primitive shell pairs kept                  ...     46507
          la=0 lb=0:   4183 shell pairs
          la=1 lb=0:   5977 shell pairs
          la=1 lb=1:   2069 shell pairs
          la=2 lb=0:   3244 shell pairs
          la=2 lb=1:   2370 shell pairs
          la=2 lb=2:    670 shell pairs
          la=3 lb=0:   1480 shell pairs
          la=3 lb=1:   1140 shell pairs
          la=3 lb=2:    613 shell pairs
          la=3 lb=3:    148 shell pairs

Calculating one electron integrals          ... done (  0.1 sec)
Calculating RI/J V-Matrix + Cholesky decomp.... done (  0.1 sec)
Calculating Nuclear repulsion               ... done (  0.0 sec) ENN=   2611.980599108676 Eh

Diagonalization of the overlap matrix:
Smallest eigenvalue                        ... 6.561e-05
Time for diagonalization                   ...    0.127 sec
Threshold for overlap eigenvalues          ... 1.000e-07
Number of eigenvalues below threshold      ... 0
Time for construction of square roots      ...    0.052 sec
Total time needed                          ...    0.187 sec

-------------------
DFT GRID GENERATION
-------------------

General Integration Accuracy     IntAcc      ... 4.388
Radial Grid Type                 RadialGrid  ... OptM3 with GC (2021)
Angular Grid (max. ang.)         AngularGrid ... 4 (Lebedev-302)
Angular grid pruning method      GridPruning ... 4 (adaptive)
Weight generation scheme         WeightScheme... mBecke (2022)
Basis function cutoff            BFCut       ... 1.0000e-11
Integration weight cutoff        WCut        ... 1.0000e-14
Partially contracted basis set               ... off
Rotationally invariant grid construction     ... off
Angular grids for H and He will be reduced by one unit

Total number of grid points                  ...   148770
Total number of batches                      ...     2335
Average number of points per batch           ...       63
Average number of grid points per atom       ...     5951

--------------------
COSX GRID GENERATION
--------------------

GRIDX 1
-------
General Integration Accuracy     IntAcc      ... 3.816
Radial Grid Type                 RadialGrid  ... OptM3 with GC (2021)
Angular Grid (max. ang.)         AngularGrid ... 1 (Lebedev-50)
Angular grid pruning method      GridPruning ... 4 (adaptive)
Weight generation scheme         WeightScheme... mBecke (2022)
Basis function cutoff            BFCut       ... 1.0000e-11
Integration weight cutoff        WCut        ... 1.0000e-14
Partially contracted basis set               ... on
Rotationally invariant grid construction     ... off
Angular grids for H and He will be reduced by one unit

Total number of grid points                  ...    18722
Total number of batches                      ...      158
Average number of points per batch           ...      118
Average number of grid points per atom       ...      749
UseSFitting                                  ... on

GRIDX 2
-------
General Integration Accuracy     IntAcc      ... 4.020
Radial Grid Type                 RadialGrid  ... OptM3 with GC (2021)
Angular Grid (max. ang.)         AngularGrid ... 2 (Lebedev-110)
Angular grid pruning method      GridPruning ... 4 (adaptive)
Weight generation scheme         WeightScheme... mBecke (2022)
Basis function cutoff            BFCut       ... 1.0000e-11
Integration weight cutoff        WCut        ... 1.0000e-14
Partially contracted basis set               ... on
Rotationally invariant grid construction     ... off
Angular grids for H and He will be reduced by one unit

Total number of grid points                  ...    44133
Total number of batches                      ...      358
Average number of points per batch           ...      123
Average number of grid points per atom       ...     1765
UseSFitting                                  ... on

GRIDX 3
-------
General Integration Accuracy     IntAcc      ... 4.338
Radial Grid Type                 RadialGrid  ... OptM3 with GC (2021)
Angular Grid (max. ang.)         AngularGrid ... 3 (Lebedev-194)
Angular grid pruning method      GridPruning ... 4 (adaptive)
Weight generation scheme         WeightScheme... mBecke (2022)
Basis function cutoff            BFCut       ... 1.0000e-11
Integration weight cutoff        WCut        ... 1.0000e-14
Partially contracted basis set               ... on
Rotationally invariant grid construction     ... off
Angular grids for H and He will be reduced by one unit

Total number of grid points                  ...    97728
Total number of batches                      ...      774
Average number of points per batch           ...      126
Average number of grid points per atom       ...     3909
UseSFitting                                  ... on
Initializing property integral containers    ... done (  0.0 sec)

SHARK setup successfully completed in   3.8 seconds

Maximum memory used throughout the entire STARTUP-calculation: 56.8 MB


           ************************************************************
           *        Program running with 20 parallel MPI-processes    *
           *              working on a common directory               *
           ************************************************************
-------------------------------------------------------------------------------
                                 ORCA GUESS
                   Start orbitals & Density for SCF / CASSCF
-------------------------------------------------------------------------------

------------
SCF SETTINGS
------------
Hamiltonian:
 Density Functional     Method          .... DFT(GTOs)
  Functional kind                       .... Exchange
  Functional name                       .... Re-regularized SCAN exchange by Furness et al
  Functional family                     .... MGGA
  Functional refs                              
    [ 0] J. W. Furness, A. D. Kaplan, J. Ning, J. P. Perdew, and J. Sun.,  J. Phys. Chem. Lett. 11, 8208-8215 (2020), doi: 10.1021/acs.jpclett.0c02405
    [ 1] J. W. Furness, A. D. Kaplan, J. Ning, J. P. Perdew, and J. Sun.,  J. Phys. Chem. Lett. 11, 9248-9248 (2020), doi: 10.1021/acs.jpclett.0c03077
  Functional external parameters        .... 6
    Parameter  0 _c1        =  6.670000e-01 : c1 parameter        
    Parameter  1 _c2        =  8.000000e-01 : c2 parameter        
    Parameter  2 _d         =  1.240000e+00 : d parameter         
    Parameter  3 _k1        =  6.500000e-02 : k1 parameter        
    Parameter  4 _eta       =  1.000000e-03 : eta parameter       
    Parameter  5 _dp2       =  3.610000e-01 : dp2 parameter       
  Functional kind                       .... Correlation
  Functional name                       .... Re-regularized SCAN correlation by Furness et al
  Functional family                     .... MGGA
  Functional refs                              
    [ 0] J. W. Furness, A. D. Kaplan, J. Ning, J. P. Perdew, and J. Sun.,  J. Phys. Chem. Lett. 11, 8208-8215 (2020), doi: 10.1021/acs.jpclett.0c02405
    [ 1] J. W. Furness, A. D. Kaplan, J. Ning, J. P. Perdew, and J. Sun.,  J. Phys. Chem. Lett. 11, 9248-9248 (2020), doi: 10.1021/acs.jpclett.0c03077
  Functional external parameters        .... 1
    Parameter  0 _eta       =  1.000000e-03 : Regularization parameter
 Gradients option       PostSCFGGA      .... off
 Hybrid DFT is turned on
   Fraction HF Exchange ScalHFX         ....  0.100000
   Scaling of DF-GGA-X  ScalDFX         ....  0.900000
   Scaling of DF-GGA-C  ScalDFC         ....  1.000000
   Scaling of DF-LDA-C  ScalLDAC        ....  1.000000
   Perturbative correction              ....  0.000000
   NL short-range parameter             .... 11.900000
 RI-approximation to the Coulomb term is turned on
   Number of AuxJ basis functions       .... 1187
   RIJ-COSX (HFX calculated with COS-X)).... on


General Settings:
 Integral files         IntName         .... rf_mecn_opt_r2s_C4_P_B
 Hartree-Fock type      HFTyp           .... UHF
 Total Charge           Charge          ....    0
 Multiplicity           Mult            ....    2
 Number of Electrons    NEL             ....  191
 Basis Dimension        Dim             ....  750
 Nuclear Repulsion      ENuc            ....   2611.9805991087 Eh

Convergence Acceleration:
 AO-DIIS                CNVDIIS         .... on
   Start iteration      DIISMaxIt       ....     0
   Startup error        DIISStart       ....  0.200000
   # of expansion vecs  DIISMaxEq       ....     5
   Bias factor          DIISBfac        ....   1.050
   Max. coefficient     DIISMaxC        ....  10.000
 MO-DIIS                CNVKDIIS        .... off
 Trust-Rad. Augm. Hess. CNVTRAH         .... auto
   Auto Start mean grad. ratio tolernc. ....  1.125000
   Auto Start start iteration           ....    50
   Auto Start num. interpolation iter.  ....    10
   Max. Number of Micro iterations      ....    24
   Max. Number of Macro iterations      .... Maxiter - #DIIS iter
   Number of Davidson start vectors     ....     2
   Converg. threshold    (grad. norm)   ....   1.000e-05
   Grad. Scal. Fac. for Micro threshold ....   0.100
   Minimum threshold for Micro iter.    ....   1.000e-02
   NR start threshold (gradient norm)   ....   1.000e-04
   Initial trust radius                 ....   0.400
   Minimum AH scaling param. (alpha)    ....   1.000
   Maximum AH scaling param. (alpha)    .... 1000.000
   Quad. conv. algorithm                .... NR
   White noise on init. David. guess    .... on
   Maximum white noise                  ....   0.010
   Pseudo random numbers                .... off
   Inactive MOs                         .... canonical
   Orbital update algorithm             .... Taylor
   Preconditioner                       .... Diag
   Full preconditioner red. dimension   ....   250
 SOSCF                  CNVSOSCF        .... on
   Start iteration      SOSCFMaxIt      ....   150
   Startup grad/error   SOSCFStart      ....  0.001000
   Hessian update       SOSCFHessUp     .... L-BFGS
 Level Shifting         CNVShift        .... on
   Level shift para.    LevelShift      ....    0.2500
   Turn off err/grad.   ShiftErr        ....    0.0000
 Zerner damping         CNVZerner       .... off
 Static damping         CNVDamp         .... on
   Fraction old density DampFac         ....    0.8500
   Max. Damping (<1)    DampMax         ....    0.9800
   Min. Damping (>=0)   DampMin         ....    0.0000
   Turn off err/grad.   DampErr         ....    0.0300

SCF Procedure:
 Maximum # iterations   MaxIter         ....  1500
 SCF integral mode      SCFMode         .... Direct
   Integral package                     .... SHARK and LIBINT hybrid scheme
 Reset frequency        DirectResetFreq ....    20
 Integral Threshold     Thresh          ....  2.500e-11 Eh
 Primitive CutOff       TCut            ....  2.500e-12 Eh

Convergence Tolerance:
 Convergence Check Mode ConvCheckMode   .... Total+1el-Energy
 Convergence forced     ConvForced      .... 0
 Energy Change          TolE            ....  1.000e-08 Eh
 1-El. energy change                    ....  1.000e-05 Eh
 Orbital Gradient       TolG            ....  1.000e-05
 Orbital Rotation angle TolX            ....  1.000e-05
 DIIS Error             TolErr          ....  5.000e-07

------------------------------
INITIAL GUESS: MODEL POTENTIAL
------------------------------
Loading Hartree-Fock densities                     ... done
Calculating cut-offs                               ... done
Initializing the effective Hamiltonian             ... done
Setting up the integral package (SHARK)            ... done
Starting the Coulomb interaction                   ... done (   0.3 sec)
Making the grid                                    ... done (   0.5 sec)
Mapping shells                                     ... done
Starting the XC term evaluation                    ... done (   0.2 sec)
  promolecular density results
     # of electrons  =    191.000203496
     EX              =   -197.375318456
     EC              =     -6.682522191
     EX+EC           =   -204.057840647
Transforming the Hamiltonian                       ... done (   0.1 sec)
Diagonalizing the Hamiltonian                      ... done (   0.1 sec)
Back transforming the eigenvectors                 ... done (   0.0 sec)
Now organizing SCF variables                       ... done
                      ------------------
                      INITIAL GUESS DONE (   1.3 sec)
                      ------------------
             **** ENERGY FILE WAS UPDATED (rf_mecn_opt_r2s_C4_P_B.en.tmp) ****
Finished Guess after   2.1 sec
Maximum memory used throughout the entire GUESS-calculation: 45.7 MB


           ************************************************************
           *        Program running with 20 parallel MPI-processes    *
           *              working on a common directory               *
           ************************************************************

-------------------------------------------------------------------------------------------
                                      ORCA LEAN-SCF
                              memory conserving SCF solver
-------------------------------------------------------------------------------------------

--------------------
CPCM SOLVATION MODEL
--------------------
CPCM parameters:
  Epsilon                                         ...      35.6880
  Refrac                                          ...       1.3442
  Rsolv                                           ...       1.3000
  Surface type                                    ... GAUSSIAN VDW
  Discretization scheme                           ... Constant charge density
    Threshold for H atoms                         ...       5.0000 (charges/Ang^2)
    Threshold for non-H atoms                     ...       5.0000 (charges/Ang^2)
  Epsilon function type                           ...         CPCM
Solvent:                                          ... ACETONITRILE
SMD-CDS solvent descriptors:
  Soln                                            ...       1.3442
  Soln25                                          ...       1.3416
  Sola                                            ...       0.0700
  Solb                                            ...       0.3200
  Solg                                            ...      41.2500
  Solc                                            ...       0.0000
  Solh                                            ...       0.0000
Radii:
  Scheme                                          ... Element-dependent radii
  Radius for C  used is    3.4960 Bohr (=   1.8500 Ang.)
  Radius for O  used is    4.0969 Bohr (=   2.1680 Ang.)
  Radius for F  used is    3.2692 Bohr (=   1.7300 Ang.)
  Radius for H  used is    2.2677 Bohr (=   1.2000 Ang.)
Calculating surface                               ...        done! (  0.0s)
Cavity surface points                             ...         2170
Cavity Volume                                     ...    2134.8130
Cavity Surface-area                               ...    1120.2556
Calculating surface distance matrix               ...        done! (  0.1s)
Performing Cholesky decomposition & store         ...        done! (  0.1s)
Overall time for CPCM initialization              ...                 0.2s

----------------------------------------D-I-I-S--------------------------------------------
Iteration    Energy (Eh)           Delta-E    RMSDP     MaxDP     DIISErr   Damp  Time(sec)
-------------------------------------------------------------------------------------------
               ***  Starting incremental Fock matrix formation  ***
    1    -1853.0209437751868791     0.00e+00  2.05e-04  1.60e-02  1.45e-01  0.850   8.1
Warning: op=1 Small HOMO/LUMO gap (   0.042) - skipping pre-diagonalization
         Will do a full diagonalization
    2    -1853.1574705874559186    -1.37e-01  1.93e-04  1.47e-02  8.96e-02  0.850   6.0
                               ***Turning on AO-DIIS***
    3    -1853.2261665471846754    -6.87e-02  8.81e-05  4.55e-03  5.21e-02  0.850   5.0
    4    -1853.2669940892378690    -4.08e-02  5.87e-05  3.87e-03  3.86e-02  0.850   4.8
    5    -1853.2960303205049968    -2.90e-02  4.84e-05  4.15e-03  3.07e-02  0.850   4.5
    6    -1853.3192319151353331    -2.32e-02  4.31e-05  3.92e-03  2.74e-02  0.850   4.7
    7    -1853.3387989794514397    -1.96e-02  2.66e-04  2.35e-02  2.33e-02  0.000   4.4
    8    -1853.4430235115328287    -1.04e-01  5.48e-05  7.87e-03  1.34e-02  0.000   4.7
    9    -1853.4431675541068216    -1.44e-04  1.99e-05  2.64e-03  1.24e-02  0.000   4.2
   10    -1853.4441174608878100    -9.50e-04  8.85e-06  8.27e-04  3.34e-03  0.000   4.0
                              *** Initializing SOSCF ***
---------------------------------------S-O-S-C-F--------------------------------------
Iteration    Energy (Eh)           Delta-E    RMSDP     MaxDP     MaxGrad    Time(sec)
--------------------------------------------------------------------------------------
   11    -1853.4442110255790794    -9.36e-05  4.05e-06  4.43e-04  8.54e-04     4.3
               *** Restarting incremental Fock matrix formation ***
   12    -1853.4442344556450735    -2.34e-05  2.95e-06  2.72e-04  1.65e-04     7.8
   13    -1853.4442353893214204    -9.34e-07  1.99e-06  2.01e-04  2.34e-04     4.8
   14    -1853.4442364326137067    -1.04e-06  1.19e-06  1.34e-04  1.27e-04     4.6
   15    -1853.4442362150152803     2.18e-07  9.39e-07  8.29e-05  2.66e-04     4.4
   16    -1853.4442366878333814    -4.73e-07  5.52e-07  4.07e-05  4.30e-05     4.1
   17    -1853.4442367036995165    -1.59e-08  2.49e-07  1.83e-05  2.73e-05     4.1
   18    -1853.4442367320939411    -2.84e-08  1.34e-07  6.91e-06  4.71e-06     3.7
   19    -1853.4442367225133239     9.58e-09  6.86e-08  3.98e-06  3.70e-06     3.5
                 **** Energy Check signals convergence ****

               *****************************************************
               *                     SUCCESS                       *
               *           SCF CONVERGED AFTER  19 CYCLES          *
               *****************************************************

Recomputing exchange energy using gridx3       ... done (    8.774 sec)
Old exchange energy                            :    -19.882454010 Eh
New exchange energy                            :    -19.882462772 Eh
Exchange energy change after final integration :     -0.000008762 Eh
Total energy after final integration           :  -1853.444245485 Eh

SMD CDS free energy correction energy :                 3.65793     Kcal/mol
Total Energy after SMD CDS correction =             -1853.438416200 Eh
             **** ENERGY FILE WAS UPDATED (rf_mecn_opt_r2s_C4_P_B.en.tmp) ****

----------------
TOTAL SCF ENERGY
----------------

Total Energy       :      -1853.43841620037642 Eh          -50434.62335 eV

Components:
Nuclear Repulsion  :       2611.98059910867551 Eh           71075.60552 eV
Electronic Energy  :      -4465.40730670020639 Eh         -121509.91026 eV
One Electron Energy:      -7775.76878707469950 Eh         -211589.42569 eV
Two Electron Energy:       3310.36148037449266 Eh           90079.51544 eV
CPCM Dielectric    :         -0.01752913098286 Eh              -0.47699 eV
SMD CDS (Gcds)     :          0.00582928425824 Eh               0.15862 eV

Virial components:
Potential Energy   :      -3699.15396594365939 Eh         -100659.09682 eV
Kinetic Energy     :       1845.71554974328319 Eh           50224.47347 eV
Virial Ratio       :          2.00418421270719

DFT components:
N(Alpha)           :       95.999971610028 electrons
N(Beta)            :       94.999963014977 electrons
N(Total)           :      190.999934625005 electrons
E(X)               :     -179.953205034870 Eh       
E(C)               :       -6.625237276376 Eh       
E(XC)              :     -186.578442311246 Eh       

CPCM Solvation Model Properties:
Surface-charge          :         -0.00851084914893
Corrected charge        :         -0.00000000000000
Outlying charge corr.   :          0.00000393719408 Eh               0.00011 eV
Free-energy (cav+disp)  :          0.00582928425824 Eh               0.15862 eV

---------------
SCF CONVERGENCE
---------------

  Last Energy change         ...   -9.5806e-09  Tolerance :   1.0000e-08
  Last MAX-Density change    ...    3.9794e-06  Tolerance :   1.0000e-07
  Last RMS-Density change    ...    6.8609e-08  Tolerance :   5.0000e-09
  Last DIIS Error            ...    8.5450e-04  Tolerance :   5.0000e-07
  Last Orbital Gradient      ...    3.6967e-06  Tolerance :   1.0000e-05
  Last Orbital Rotation      ...    8.3185e-06  Tolerance :   1.0000e-05


----------------------
UHF SPIN CONTAMINATION
----------------------

Warning: in a DFT calculation there is little theoretical justification to 
         calculate <S**2> as in Hartree-Fock theory. We will do it anyways
         but you should keep in mind that the values have only limited relevance

Expectation value of <S**2>     :     0.755276
Ideal value S*(S+1) for S=0.5   :     0.750000
Deviation                       :     0.005276

----------------
ORBITAL ENERGIES
----------------
                 SPIN UP ORBITALS
  NO   OCC          E(Eh)            E(eV) 
   0   1.0000     -24.736072      -673.1027 
   1   1.0000     -24.734459      -673.0589 
   2   1.0000     -24.733630      -673.0363 
   3   1.0000     -24.733591      -673.0352 
   4   1.0000     -24.733438      -673.0311 
   5   1.0000     -24.732850      -673.0151 
   6   1.0000     -24.732793      -673.0135 
   7   1.0000     -24.732457      -673.0044 
   8   1.0000     -24.731045      -672.9659 
   9   1.0000     -24.727411      -672.8671 
  10   1.0000     -24.724737      -672.7943 
  11   1.0000     -24.724627      -672.7913 
  12   1.0000     -24.719707      -672.6574 
  13   1.0000     -24.719231      -672.6445 
  14   1.0000     -19.193282      -522.2758 
  15   1.0000     -19.159569      -521.3584 
  16   1.0000     -10.446232      -284.2564 
  17   1.0000     -10.392747      -282.8010 
  18   1.0000     -10.392580      -282.7965 
  19   1.0000     -10.392223      -282.7868 
  20   1.0000     -10.388985      -282.6987 
  21   1.0000     -10.388920      -282.6969 
  22   1.0000     -10.388719      -282.6914 
  23   1.0000     -10.328601      -281.0555 
  24   1.0000      -1.356325       -36.9075 
  25   1.0000      -1.330379       -36.2014 
  26   1.0000      -1.316449       -35.8224 
  27   1.0000      -1.311088       -35.6765 
  28   1.0000      -1.307719       -35.5848 
  29   1.0000      -1.287920       -35.0461 
  30   1.0000      -1.284621       -34.9563 
  31   1.0000      -1.270803       -34.5803 
  32   1.0000      -1.265008       -34.4226 
  33   1.0000      -1.263222       -34.3740 
  34   1.0000      -1.256292       -34.1854 
  35   1.0000      -1.253725       -34.1156 
  36   1.0000      -1.251121       -34.0447 
  37   1.0000      -1.235059       -33.6077 
  38   1.0000      -1.093724       -29.7617 
  39   1.0000      -1.004978       -27.3468 
  40   1.0000      -0.848504       -23.0890 
  41   1.0000      -0.831821       -22.6350 
  42   1.0000      -0.802783       -21.8448 
  43   1.0000      -0.770268       -20.9600 
  44   1.0000      -0.733110       -19.9489 
  45   1.0000      -0.703147       -19.1336 
  46   1.0000      -0.679570       -18.4921 
  47   1.0000      -0.660982       -17.9862 
  48   1.0000      -0.637186       -17.3387 
  49   1.0000      -0.634078       -17.2541 
  50   1.0000      -0.627079       -17.0637 
  51   1.0000      -0.614226       -16.7139 
  52   1.0000      -0.611793       -16.6477 
  53   1.0000      -0.610157       -16.6032 
  54   1.0000      -0.603299       -16.4166 
  55   1.0000      -0.597774       -16.2663 
  56   1.0000      -0.591078       -16.0841 
  57   1.0000      -0.588374       -16.0105 
  58   1.0000      -0.573600       -15.6085 
  59   1.0000      -0.571719       -15.5573 
  60   1.0000      -0.564073       -15.3492 
  61   1.0000      -0.559554       -15.2262 
  62   1.0000      -0.515030       -14.0147 
  63   1.0000      -0.500608       -13.6222 
  64   1.0000      -0.499646       -13.5961 
  65   1.0000      -0.491852       -13.3840 
  66   1.0000      -0.490385       -13.3441 
  67   1.0000      -0.487904       -13.2765 
  68   1.0000      -0.486060       -13.2264 
  69   1.0000      -0.482018       -13.1164 
  70   1.0000      -0.474855       -12.9215 
  71   1.0000      -0.470632       -12.8065 
  72   1.0000      -0.467889       -12.7319 
  73   1.0000      -0.462885       -12.5957 
  74   1.0000      -0.461718       -12.5640 
  75   1.0000      -0.453194       -12.3320 
  76   1.0000      -0.452006       -12.2997 
  77   1.0000      -0.450538       -12.2598 
  78   1.0000      -0.449598       -12.2342 
  79   1.0000      -0.440106       -11.9759 
  80   1.0000      -0.438940       -11.9442 
  81   1.0000      -0.436740       -11.8843 
  82   1.0000      -0.436638       -11.8815 
  83   1.0000      -0.432422       -11.7668 
  84   1.0000      -0.430708       -11.7201 
  85   1.0000      -0.428134       -11.6501 
  86   1.0000      -0.426387       -11.6026 
  87   1.0000      -0.422268       -11.4905 
  88   1.0000      -0.418513       -11.3883 
  89   1.0000      -0.404312       -11.0019 
  90   1.0000      -0.378793       -10.3075 
  91   1.0000      -0.352936        -9.6039 
  92   1.0000      -0.338260        -9.2045 
  93   1.0000      -0.334985        -9.1154 
  94   1.0000      -0.305598        -8.3157 
  95   1.0000      -0.299304        -8.1445 
  96   0.0000      -0.109310        -2.9745 
  97   0.0000      -0.031503        -0.8572 
  98   0.0000      -0.009143        -0.2488 
  99   0.0000       0.002165         0.0589 
 100   0.0000       0.021571         0.5870 
 101   0.0000       0.046723         1.2714 
 102   0.0000       0.062372         1.6972 
 103   0.0000       0.075390         2.0515 
 104   0.0000       0.104159         2.8343 
 105   0.0000       0.108240         2.9454 
 106   0.0000       0.113001         3.0749 

                 SPIN DOWN ORBITALS
  NO   OCC          E(Eh)            E(eV) 
   0   1.0000     -24.734458      -673.0588 
   1   1.0000     -24.733625      -673.0361 
   2   1.0000     -24.733489      -673.0325 
   3   1.0000     -24.733438      -673.0311 
   4   1.0000     -24.732845      -673.0149 
   5   1.0000     -24.732796      -673.0136 
   6   1.0000     -24.732459      -673.0044 
   7   1.0000     -24.731411      -672.9759 
   8   1.0000     -24.729416      -672.9216 
   9   1.0000     -24.727389      -672.8665 
  10   1.0000     -24.724729      -672.7941 
  11   1.0000     -24.723245      -672.7537 
  12   1.0000     -24.719605      -672.6547 
  13   1.0000     -24.719236      -672.6446 
  14   1.0000     -19.193286      -522.2759 
  15   1.0000     -19.159515      -521.3569 
  16   1.0000     -10.446237      -284.2566 
  17   1.0000     -10.392792      -282.8023 
  18   1.0000     -10.392598      -282.7970 
  19   1.0000     -10.392203      -282.7862 
  20   1.0000     -10.388988      -282.6987 
  21   1.0000     -10.388955      -282.6978 
  22   1.0000     -10.388687      -282.6905 
  23   1.0000     -10.310839      -280.5722 
  24   1.0000      -1.356322       -36.9074 
  25   1.0000      -1.329660       -36.1819 
  26   1.0000      -1.315032       -35.7838 
  27   1.0000      -1.310834       -35.6696 
  28   1.0000      -1.306688       -35.5568 
  29   1.0000      -1.287602       -35.0374 
  30   1.0000      -1.276837       -34.7445 
  31   1.0000      -1.270742       -34.5787 
  32   1.0000      -1.265006       -34.4225 
  33   1.0000      -1.262869       -34.3644 
  34   1.0000      -1.255871       -34.1740 
  35   1.0000      -1.252735       -34.0887 
  36   1.0000      -1.249612       -34.0037 
  37   1.0000      -1.234896       -33.6032 
  38   1.0000      -1.093737       -29.7621 
  39   1.0000      -1.004897       -27.3446 
  40   1.0000      -0.843439       -22.9511 
  41   1.0000      -0.824412       -22.4334 
  42   1.0000      -0.800595       -21.7853 
  43   1.0000      -0.763622       -20.7792 
  44   1.0000      -0.731794       -19.9131 
  45   1.0000      -0.700151       -19.0521 
  46   1.0000      -0.678812       -18.4714 
  47   1.0000      -0.655885       -17.8475 
  48   1.0000      -0.636023       -17.3071 
  49   1.0000      -0.633526       -17.2391 
  50   1.0000      -0.627004       -17.0616 
  51   1.0000      -0.613316       -16.6892 
  52   1.0000      -0.610756       -16.6195 
  53   1.0000      -0.606349       -16.4996 
  54   1.0000      -0.602094       -16.3838 
  55   1.0000      -0.597282       -16.2529 
  56   1.0000      -0.588487       -16.0136 
  57   1.0000      -0.587379       -15.9834 
  58   1.0000      -0.572028       -15.5657 
  59   1.0000      -0.569204       -15.4888 
  60   1.0000      -0.560824       -15.2608 
  61   1.0000      -0.557559       -15.1720 
  62   1.0000      -0.501594       -13.6491 
  63   1.0000      -0.498811       -13.5733 
  64   1.0000      -0.494803       -13.4643 
  65   1.0000      -0.491145       -13.3647 
  66   1.0000      -0.487478       -13.2650 
  67   1.0000      -0.486479       -13.2378 
  68   1.0000      -0.482327       -13.1248 
  69   1.0000      -0.481535       -13.1032 
  70   1.0000      -0.474385       -12.9087 
  71   1.0000      -0.468685       -12.7536 
  72   1.0000      -0.465990       -12.6802 
  73   1.0000      -0.461456       -12.5569 
  74   1.0000      -0.458804       -12.4847 
  75   1.0000      -0.452043       -12.3007 
  76   1.0000      -0.450375       -12.2553 
  77   1.0000      -0.449225       -12.2240 
  78   1.0000      -0.445519       -12.1232 
  79   1.0000      -0.439809       -11.9678 
  80   1.0000      -0.438595       -11.9348 
  81   1.0000      -0.435420       -11.8484 
  82   1.0000      -0.434155       -11.8140 
  83   1.0000      -0.431749       -11.7485 
  84   1.0000      -0.429922       -11.6988 
  85   1.0000      -0.428016       -11.6469 
  86   1.0000      -0.425873       -11.5886 
  87   1.0000      -0.421820       -11.4783 
  88   1.0000      -0.416852       -11.3431 
  89   1.0000      -0.402645       -10.9565 
  90   1.0000      -0.376414       -10.2428 
  91   1.0000      -0.352051        -9.5798 
  92   1.0000      -0.334950        -9.1145 
  93   1.0000      -0.334688        -9.1073 
  94   1.0000      -0.305234        -8.3058 
  95   0.0000      -0.137806        -3.7499 
  96   0.0000      -0.107992        -2.9386 
  97   0.0000      -0.028524        -0.7762 
  98   0.0000      -0.007477        -0.2034 
  99   0.0000       0.004167         0.1134 
 100   0.0000       0.024419         0.6645 
 101   0.0000       0.057628         1.5681 
 102   0.0000       0.066423         1.8075 
 103   0.0000       0.078489         2.1358 
 104   0.0000       0.106039         2.8855 
 105   0.0000       0.110638         3.0106 
*Only the first 10 virtual orbitals were printed.

                    ********************************
                    * MULLIKEN POPULATION ANALYSIS *
                    ********************************

--------------------------------------------
MULLIKEN ATOMIC CHARGES AND SPIN POPULATIONS
--------------------------------------------
   0 C :    0.382096   -0.001420
   1 O :   -0.457813   -0.000071
   2 O :   -0.397242    0.001617
   3 C :    0.375636    0.000812
   4 C :    0.388083   -0.005189
   5 C :    0.096830    0.867108
   6 C :    0.363801    0.003243
   7 C :    0.305518   -0.004878
   8 C :    0.331904   -0.000479
   9 C :    0.470752   -0.000192
  10 F :   -0.182210    0.000933
  11 F :   -0.182150   -0.000189
  12 F :   -0.174386    0.000301
  13 F :   -0.170247    0.026908
  14 F :   -0.157144    0.080500
  15 F :   -0.172699   -0.000279
  16 F :   -0.162928    0.030260
  17 F :   -0.166777    0.000875
  18 F :   -0.166524    0.000209
  19 F :   -0.164363    0.000075
  20 F :   -0.160852   -0.000024
  21 F :   -0.156632    0.000010
  22 F :   -0.153299   -0.000061
  23 F :   -0.154389   -0.000001
  24 H :    0.465036   -0.000069
Sum of atomic charges         :    0.0000000
Sum of atomic spin populations:    1.0000000

-----------------------------------------------------
MULLIKEN REDUCED ORBITAL CHARGES AND SPIN POPULATIONS
-----------------------------------------------------
CHARGE
  0 C s       :     3.170754  s :     3.170754
      pz      :     0.774463  p :     2.218854
      px      :     0.790868
      py      :     0.653523
      dz2     :     0.015592  d :     0.210243
      dxz     :     0.014406
      dyz     :     0.059854
      dx2y2   :     0.052866
      dxy     :     0.067526
      f0      :     0.001820  f :     0.018053
      f+1     :     0.001144
      f-1     :     0.002319
      f+2     :     0.002598
      f-2     :     0.001967
      f+3     :     0.003826
      f-3     :     0.004379

  1 O s       :     3.684643  s :     3.684643
      pz      :     1.720192  p :     4.755460
      px      :     1.685061
      py      :     1.350207
      dz2     :     0.001733  d :     0.014826
      dxz     :     0.001268
      dyz     :     0.003213
      dx2y2   :     0.003295
      dxy     :     0.005317
      f0      :     0.000283  f :     0.002884
      f+1     :     0.000133
      f-1     :     0.000388
      f+2     :     0.000245
      f-2     :     0.000444
      f+3     :     0.000930
      f-3     :     0.000460

  2 O s       :     3.898568  s :     3.898568
      pz      :     1.541690  p :     4.472231
      px      :     1.692012
      py      :     1.238529
      dz2     :     0.003277  d :     0.025140
      dxz     :     0.000339
      dyz     :     0.006608
      dx2y2   :     0.009241
      dxy     :     0.005674
      f0      :     0.000119  f :     0.001303
      f+1     :     0.000015
      f-1     :     0.000231
      f+2     :     0.000222
      f-2     :     0.000031
      f+3     :     0.000293
      f-3     :     0.000394

  3 C s       :     3.102999  s :     3.102999
      pz      :     0.676105  p :     2.236649
      px      :     0.918693
      py      :     0.641851
      dz2     :     0.045311  d :     0.260057
      dxz     :     0.052125
      dyz     :     0.065252
      dx2y2   :     0.044468
      dxy     :     0.052902
      f0      :     0.005225  f :     0.024659
      f+1     :     0.003516
      f-1     :     0.003756
      f+2     :     0.003530
      f-2     :     0.001979
      f+3     :     0.003692
      f-3     :     0.002961

  4 C s       :     3.093348  s :     3.093348
      pz      :     0.594702  p :     2.205880
      px      :     0.924693
      py      :     0.686485
      dz2     :     0.059982  d :     0.285806
      dxz     :     0.063228
      dyz     :     0.069489
      dx2y2   :     0.034244
      dxy     :     0.058862
      f0      :     0.003604  f :     0.026884
      f+1     :     0.004766
      f-1     :     0.007772
      f+2     :     0.002121
      f-2     :     0.002703
      f+3     :     0.003480
      f-3     :     0.002438

  5 C s       :     3.327222  s :     3.327222
      pz      :     0.825152  p :     2.414588
      px      :     0.904135
      py      :     0.685301
      dz2     :     0.036050  d :     0.146123
      dxz     :     0.021066
      dyz     :     0.020501
      dx2y2   :     0.025527
      dxy     :     0.042979
      f0      :     0.001667  f :     0.015237
      f+1     :     0.001363
      f-1     :     0.003359
      f+2     :     0.001485
      f-2     :     0.003143
      f+3     :     0.002285
      f-3     :     0.001936

  6 C s       :     3.126291  s :     3.126291
      pz      :     0.574679  p :     2.193940
      px      :     0.911678
      py      :     0.707584
      dz2     :     0.077646  d :     0.288845
      dxz     :     0.064188
      dyz     :     0.056679
      dx2y2   :     0.032528
      dxy     :     0.057805
      f0      :     0.006067  f :     0.027124
      f+1     :     0.003740
      f-1     :     0.004148
      f+2     :     0.003966
      f-2     :     0.005214
      f+3     :     0.002057
      f-3     :     0.001931

  7 C s       :     3.146449  s :     3.146449
      pz      :     0.585817  p :     2.235532
      px      :     0.936987
      py      :     0.712729
      dz2     :     0.074648  d :     0.285434
      dxz     :     0.061052
      dyz     :     0.060646
      dx2y2   :     0.031577
      dxy     :     0.057511
      f0      :     0.004575  f :     0.027066
      f+1     :     0.004275
      f-1     :     0.006324
      f+2     :     0.002925
      f-2     :     0.004209
      f+3     :     0.002620
      f-3     :     0.002139

  8 C s       :     3.110746  s :     3.110746
      pz      :     0.617769  p :     2.248287
      px      :     0.941005
      py      :     0.689514
      dz2     :     0.058870  d :     0.281952
      dxz     :     0.059805
      dyz     :     0.071911
      dx2y2   :     0.033083
      dxy     :     0.058283
      f0      :     0.003466  f :     0.027111
      f+1     :     0.004905
      f-1     :     0.008107
      f+2     :     0.002098
      f-2     :     0.002371
      f+3     :     0.003743
      f-3     :     0.002421

  9 C s       :     3.030981  s :     3.030981
      pz      :     0.646553  p :     2.107591
      px      :     0.802303
      py      :     0.658735
      dz2     :     0.066696  d :     0.351370
      dxz     :     0.068485
      dyz     :     0.085490
      dx2y2   :     0.063469
      dxy     :     0.067230
      f0      :     0.004505  f :     0.039306
      f+1     :     0.007836
      f-1     :     0.008789
      f+2     :     0.004347
      f-2     :     0.003044
      f+3     :     0.007307
      f-3     :     0.003478

 10 F s       :     3.931250  s :     3.931250
      pz      :     1.894552  p :     5.235086
      px      :     1.883097
      py      :     1.457436
      dz2     :     0.002143  d :     0.015256
      dxz     :     0.000272
      dyz     :     0.002927
      dx2y2   :     0.005822
      dxy     :     0.004093
      f0      :     0.000049  f :     0.000618
      f+1     :     0.000015
      f-1     :     0.000121
      f+2     :     0.000070
      f-2     :     0.000018
      f+3     :     0.000166
      f-3     :     0.000178

 11 F s       :     3.931521  s :     3.931521
      pz      :     1.469731  p :     5.235283
      px      :     1.898427
      py      :     1.867125
      dz2     :     0.006641  d :     0.014742
      dxz     :     0.003504
      dyz     :     0.003699
      dx2y2   :     0.000443
      dxy     :     0.000454
      f0      :     0.000214  f :     0.000605
      f+1     :     0.000136
      f-1     :     0.000174
      f+2     :     0.000038
      f-2     :     0.000038
      f+3     :     0.000003
      f-3     :     0.000003

 12 F s       :     3.929118  s :     3.929118
      pz      :     1.811095  p :     5.228094
      px      :     1.899630
      py      :     1.517369
      dz2     :     0.002079  d :     0.016489
      dxz     :     0.000825
      dyz     :     0.005345
      dx2y2   :     0.004878
      dxy     :     0.003362
      f0      :     0.000077  f :     0.000686
      f+1     :     0.000004
      f-1     :     0.000121
      f+2     :     0.000181
      f-2     :     0.000065
      f+3     :     0.000109
      f-3     :     0.000131

 13 F s       :     3.930588  s :     3.930588
      pz      :     1.445716  p :     5.222718
      px      :     1.899700
      py      :     1.877302
      dz2     :     0.008363  d :     0.016268
      dxz     :     0.003782
      dyz     :     0.003561
      dx2y2   :     0.000278
      dxy     :     0.000284
      f0      :     0.000328  f :     0.000674
      f+1     :     0.000155
      f-1     :     0.000160
      f+2     :     0.000011
      f-2     :     0.000017
      f+3     :     0.000001
      f-3     :     0.000001

 14 F s       :     3.932995  s :     3.932995
      pz      :     1.670043  p :     5.206598
      px      :     1.904748
      py      :     1.631807
      dz2     :     0.003355  d :     0.016875
      dxz     :     0.001578
      dyz     :     0.006187
      dx2y2   :     0.003242
      dxy     :     0.002513
      f0      :     0.000073  f :     0.000676
      f+1     :     0.000011
      f-1     :     0.000191
      f+2     :     0.000180
      f-2     :     0.000100
      f+3     :     0.000058
      f-3     :     0.000064

 15 F s       :     3.929535  s :     3.929535
      pz      :     1.589482  p :     5.225909
      px      :     1.899578
      py      :     1.736849
      dz2     :     0.004592  d :     0.016571
      dxz     :     0.002608
      dyz     :     0.006253
      dx2y2   :     0.001529
      dxy     :     0.001588
      f0      :     0.000117  f :     0.000685
      f+1     :     0.000056
      f-1     :     0.000253
      f+2     :     0.000121
      f-2     :     0.000099
      f+3     :     0.000021
      f-3     :     0.000017

 16 F s       :     3.929243  s :     3.929243
      pz      :     1.601773  p :     5.216383
      px      :     1.894046
      py      :     1.720564
      dz2     :     0.004323  d :     0.016614
      dxz     :     0.002545
      dyz     :     0.006387
      dx2y2   :     0.001662
      dxy     :     0.001697
      f0      :     0.000111  f :     0.000688
      f+1     :     0.000049
      f-1     :     0.000248
      f+2     :     0.000131
      f-2     :     0.000104
      f+3     :     0.000024
      f-3     :     0.000021

 17 F s       :     3.930934  s :     3.930934
      pz      :     1.715033  p :     5.218437
      px      :     1.899749
      py      :     1.603655
      dz2     :     0.002617  d :     0.016713
      dxz     :     0.001534
      dyz     :     0.006543
      dx2y2   :     0.003360
      dxy     :     0.002660
      f0      :     0.000077  f :     0.000693
      f+1     :     0.000010
[...]
      dz2     :    -0.000083  d :    -0.000108
      dxz     :    -0.000089
      dyz     :     0.000047
      dx2y2   :     0.000014
      dxy     :     0.000003
      f0      :    -0.000001  f :    -0.000006
      f+1     :    -0.000001
      f-1     :    -0.000003
      f+2     :    -0.000002
      f-2     :     0.000001
      f+3     :    -0.000000
      f-3     :     0.000000

 17 F s       :     0.000407  s :     0.000407
      pz      :     0.000163  p :     0.000812
      px      :     0.000666
      py      :    -0.000018
      dz2     :     0.000028  d :     0.000213
      dxz     :     0.000014
      dyz     :     0.000002
      dx2y2   :     0.000165
      dxy     :     0.000003
      f0      :     0.000000  f :     0.000010
      f+1     :     0.000000
      f-1     :     0.000000
      f+2     :     0.000004
      f-2     :     0.000000
      f+3     :    -0.000000
      f-3     :     0.000005

 18 F s       :     0.000109  s :     0.000109
      pz      :     0.000239  p :     0.002301
      px      :     0.000828
      py      :     0.001235
      dz2     :     0.000119  d :     0.000208
      dxz     :     0.000032
      dyz     :     0.000014
      dx2y2   :    -0.000002
      dxy     :     0.000045
      f0      :     0.000006  f :     0.000011
      f+1     :     0.000000
      f-1     :     0.000000
      f+2     :    -0.000000
      f-2     :     0.000003
      f+3     :     0.000001
      f-3     :     0.000000

 19 F s       :     0.000029  s :     0.000029
      pz      :    -0.000003  p :    -0.000055
      px      :    -0.000038
      py      :    -0.000015
      dz2     :     0.000001  d :     0.000009
      dxz     :     0.000005
      dyz     :     0.000007
      dx2y2   :     0.000001
      dxy     :    -0.000004
      f0      :     0.000000  f :     0.000001
      f+1     :     0.000000
      f-1     :     0.000000
      f+2     :     0.000000
      f-2     :     0.000000
      f+3     :    -0.000000
      f-3     :    -0.000000

 20 F s       :     0.000004  s :     0.000004
      pz      :    -0.000048  p :     0.000212
      px      :     0.000099
      py      :     0.000162
      dz2     :     0.000004  d :     0.000023
      dxz     :     0.000002
      dyz     :     0.000008
      dx2y2   :     0.000010
      dxy     :    -0.000000
      f0      :     0.000000  f :     0.000002
      f+1     :     0.000000
      f-1     :     0.000000
      f+2     :     0.000001
      f-2     :    -0.000000
      f+3     :     0.000000
      f-3     :     0.000000

 21 F s       :    -0.000002  s :    -0.000002
      pz      :     0.000001  p :    -0.000025
      px      :     0.000013
      py      :    -0.000039
      dz2     :     0.000000  d :     0.000005
      dxz     :    -0.000000
      dyz     :    -0.000000
      dx2y2   :     0.000005
      dxy     :     0.000000
      f0      :    -0.000000  f :     0.000000
      f+1     :     0.000000
      f-1     :     0.000000
      f+2     :     0.000000
      f-2     :    -0.000000
      f+3     :     0.000000
      f-3     :     0.000000

 22 F s       :     0.000026  s :     0.000026
      pz      :     0.000073  p :     0.000400
      px      :     0.000285
      py      :     0.000042
      dz2     :     0.000000  d :     0.000016
      dxz     :     0.000008
      dyz     :     0.000001
      dx2y2   :     0.000007
      dxy     :     0.000000
      f0      :     0.000000  f :     0.000001
      f+1     :     0.000000
      f-1     :     0.000000
      f+2     :     0.000001
      f-2     :    -0.000000
      f+3     :     0.000000
      f-3     :     0.000000

 23 F s       :     0.000007  s :     0.000007
      pz      :    -0.000015  p :     0.000052
      px      :     0.000022
      py      :     0.000045
      dz2     :     0.000001  d :     0.000007
      dxz     :     0.000002
      dyz     :     0.000003
      dx2y2   :     0.000000
      dxy     :     0.000001
      f0      :     0.000000  f :     0.000000
      f+1     :     0.000000
      f-1     :     0.000000
      f+2     :     0.000000
      f-2     :     0.000000
      f+3     :    -0.000000
      f-3     :     0.000000

 24 H s       :     0.000134  s :     0.000134
      pz      :     0.000040  p :     0.000045
      px      :     0.000013
      py      :    -0.000009



                      *****************************
                      * MAYER POPULATION ANALYSIS *
                      *****************************

  NA   - Mulliken gross atomic population
  ZA   - Total nuclear charge
  QA   - Mulliken gross atomic charge
  VA   - Mayer's total valence
  BVA  - Mayer's bonded valence
  FA   - Mayer's free valence

  ATOM       NA         ZA         QA         VA         BVA        FA
  0 C      5.7237     6.0000     0.2763     4.3452     4.3451     0.0001
  1 O      8.3697     8.0000    -0.3697     2.1689     2.1689     0.0000
  2 O      8.3262     8.0000    -0.3262     2.1814     2.1813     0.0001
  3 C      5.5976     6.0000     0.4024     4.0543     4.0532     0.0011
  4 C      5.6224     6.0000     0.3776     4.2240     4.2213     0.0027
  5 C      5.9200     6.0000     0.0800     3.9447     3.3347     0.6100
  6 C      5.6212     6.0000     0.3788     4.2506     4.2482     0.0024
  7 C      5.6985     6.0000     0.3015     4.1281     4.1278     0.0003
  8 C      5.6697     6.0000     0.3303     4.1935     4.1935     0.0000
  9 C      5.5279     6.0000     0.4721     4.4619     4.4619     0.0000
 10 F      9.1816     9.0000    -0.1816     1.1287     1.1287     0.0000
 11 F      9.1801     9.0000    -0.1801     1.1393     1.1393     0.0000
 12 F      9.1724     9.0000    -0.1724     1.1400     1.1399     0.0001
 13 F      9.1735     9.0000    -0.1735     1.1438     1.1437     0.0001
 14 F      9.1437     9.0000    -0.1437     1.1960     1.1855     0.0105
 15 F      9.1716     9.0000    -0.1716     1.1403     1.1403     0.0000
 16 F      9.1697     9.0000    -0.1697     1.1369     1.1361     0.0008
 17 F      9.1679     9.0000    -0.1679     1.1543     1.1543     0.0000
 18 F      9.1646     9.0000    -0.1646     1.1574     1.1574     0.0000
 19 F      9.1626     9.0000    -0.1626     1.1595     1.1595     0.0000
 20 F      9.1599     9.0000    -0.1599     1.1603     1.1603     0.0000
 21 F      9.1561     9.0000    -0.1561     1.1647     1.1647     0.0000
 22 F      9.1532     9.0000    -0.1532     1.1645     1.1645     0.0000
 23 F      9.1541     9.0000    -0.1541     1.1664     1.1664     0.0000
 24 H      0.6117     1.0000     0.3883     0.8750     0.8750     0.0000

  Mayer bond orders larger than 0.100000
B(  0-C ,  1-O ) :   1.2963 B(  0-C ,  2-O ) :   2.0447 B(  0-C ,  3-C ) :   0.8831 
B(  1-O , 24-H ) :   0.8184 B(  3-C ,  4-C ) :   0.9288 B(  3-C , 10-F ) :   1.0611 
B(  3-C , 11-F ) :   1.0780 B(  4-C ,  5-C ) :   1.0022 B(  4-C , 12-F ) :   1.0882 
B(  4-C , 13-F ) :   1.0717 B(  5-C ,  6-C ) :   1.0472 B(  5-C , 14-F ) :   1.1119 
B(  6-C ,  7-C ) :   0.9165 B(  6-C , 15-F ) :   1.0654 B(  6-C , 16-F ) :   1.0739 
B(  7-C ,  8-C ) :   0.9209 B(  7-C , 17-F ) :   1.0698 B(  7-C , 18-F ) :   1.0881 
B(  8-C ,  9-C ) :   0.9483 B(  8-C , 19-F ) :   1.0841 B(  8-C , 20-F ) :   1.0976 
B(  9-C , 21-F ) :   1.1283 B(  9-C , 22-F ) :   1.1335 B(  9-C , 23-F ) :   1.1424 


-------
TIMINGS
-------

Total SCF time: 0 days 0 hours 0 min 50 sec 

Total time                  ....      50.134 sec
Sum of individual times     ....      49.056 sec  ( 97.8%)

SCF preparation             ....       1.440 sec  (  2.9%)
Fock matrix formation       ....      42.086 sec  ( 83.9%)
  Startup                   ....       0.215 sec  (  0.5% of F)
  Split-RI-J                ....       2.671 sec  (  6.3% of F)
  Chain of spheres X        ....      27.274 sec  ( 64.8% of F)
  XC integration            ....       9.029 sec  ( 21.5% of F)
    XC Preparation          ....       0.000 sec  (  0.0% of XC)
    Basis function eval.    ....       0.593 sec  (  6.6% of XC)
    Density eval.           ....       2.816 sec  ( 31.2% of XC)
    XC-Functional eval.     ....       0.190 sec  (  2.1% of XC)
    XC-Potential eval.      ....       2.908 sec  ( 32.2% of XC)
  CPCM terms                ....       2.411 sec  (  5.7% of F)
Diagonalization             ....       0.000 sec  (  0.0%)
Density matrix formation    ....       0.552 sec  (  1.1%)
Total Energy calculation    ....       0.298 sec  (  0.6%)
Population analysis         ....       0.550 sec  (  1.1%)
Orbital Transformation      ....       0.507 sec  (  1.0%)
Orbital Orthonormalization  ....       0.000 sec  (  0.0%)
DIIS solution               ....       0.669 sec  (  1.3%)
SOSCF solution              ....       2.954 sec  (  5.9%)
Finished LeanSCF after  50.7 sec

Maximum memory used throughout the entire LEANSCF-calculation: 111.5 MB


-------------------------------------------------------------------------------
                          DFT DISPERSION CORRECTION                            
                                                                               
                              DFTD3 V3.1  Rev 1                                
                          USING Becke-Johnson damping                          
-------------------------------------------------------------------------------
The R2SCANh functional is recognized
Active option DFTDOPT                   ...         4   

molecular C6(AA) [au] = 6512.315331 


            DFT-D V3
 parameters
 s6 scaling factor         :     1.0000 
 a1 scaling factor         :     0.4709 
 s8 scaling factor         :     1.1236 
 a2 scaling factor         :     5.9157 
 ad hoc parameters k1-k3   :    16.0000     1.3333    -4.0000 

 Edisp/kcal,au: -5.327757496328  -0.008490321100 
 E6   /kcal   :  -3.887237563 
 E8   /kcal   :  -1.440519933 
 % E8         :  27.038016163 

-------------------------   ----------------
Dispersion correction           -0.008490321
-------------------------   ----------------


-------------------------   --------------------
FINAL SINGLE POINT ENERGY     -1853.569779840387
-------------------------   --------------------

                                *** OPTIMIZATION RUN DONE ***



           ************************************************************
           *        Program running with 20 parallel MPI-processes    *
           *              working on a common directory               *
           ************************************************************

------------------------------------------------------------------------------
                              ORCA PROPERTY CALCULATIONS
------------------------------------------------------------------------------

GBWName                                 ... rf_mecn_opt_r2s_C4_P_B.gbw
Number of atoms                         ...     25
Number of basis functions               ...    750
Max core memory                         ...   8000 MB

Electric properties:
Dipole moment                           ... YES
Quadrupole moment                       ...  NO
Static polarizability (Dipole/Dipole)   ...  NO
Static polarizability (Dipole/Quad.)    ...  NO
Static polarizability (Quad./Quad.)     ...  NO
Static polarizability (Velocity)        ...  NO

Atomic electric properties:
Dipole moment                           ...  NO
Quadrupole moment                       ...  NO
Static polarizability                   ...  NO

Choice of electric origin               ... Center of mass
Position of electric origin             ...    -0.145400    -0.040389    -0.243348

General magnetic properties:
Magnetizability                         ...  NO

EPR properties:
g-Tensor (aka g-matrix)                 ...  NO
Zero-Field splitting spin-orbit         ...  NO
Zero-field splitting spin-spin          ...  NO
Hyperfine couplings                     ...  NO (   0 nuclei)
Quadrupole couplings                    ...  NO (   0 nuclei)
Contact density                         ...  NO (   0 nuclei)

NMR properties:
Chemical shifts                         ...  NO (   0 nuclei)
Spin-rotation constants                 ...  NO (   0 nuclei)
Spin-spin couplings                     ...  NO (   0 nuclei,    0 pairs)

Choice of magnetic origin               ... GIAO
Position of magnetic origin             ...     0.000000     0.000000     0.000000

Properties with geometric perturbations:
SCF Hessian                             ...  NO
IR spectrum                             ...  NO
VCD spectrum                            ...  NO
X-ray spectroscopy properties:
SCF XES/XAS/RIXS spectra                ...  NO


-------------
DIPOLE MOMENT
-------------

Method             : SCF
Type of density    : Electron Density
Multiplicity       :   2
Irrep              :   0
Energy             : -1853.5612895192869019 Eh
Relativity type    : 
Basis              : AO
                                X                 Y                 Z
Electronic contribution:    -13.838601581       0.623938245      -1.851945181
Nuclear contribution   :     14.878107172      -1.197549238       1.394503680
                        -----------------------------------------
Total Dipole Moment    :      1.039505591      -0.573610993      -0.457441501
                        -----------------------------------------
Magnitude (a.u.)       :      1.272342003
Magnitude (Debye)      :      3.234036357



--------------------
Rotational spectrum 
--------------------
 
Rotational constants in cm-1:             0.017956             0.004580             0.004425 
Rotational constants in MHz :           538.310400           137.292462           132.644782 

Dipole components along the rotational axes: 
x,y,z [a.u.] :     1.086441    -0.236415    -0.618553 
x,y,z [Debye]:     2.761514    -0.600919    -1.572236 

 

Dipole moment calculation done in   0.2 sec 

Maximum memory used throughout the entire PROP-calculation: 58.7 MB

--------------------------------
SUGGESTED CITATIONS FOR THIS RUN
--------------------------------

Below you find a list of papers that are relevant to this ORCA run
We neither can nor want to force you to cite these papers, but we appreciate if you do
You receive ORCA, which is the product of decades of hard work by many enthusiastic individuals, for free
The only thing we kindly ask in return is that you cite our papers,
We deeply appreciate it, if you show your appreciation for ORCA by not just citing the generic ORCA reference.

Please note that relegating all ORCA citations to the supporting information does *not* help us.
SI sections are not indexed - citations you put there will not count into any citation statistics
But we need these citations in order to attract the funding resources that allow us to do what we are doing

Therefore, if you are a happy ORCA user, please consider citing a few of the papers listed below in the main body of your paper

In addition to the list printed below, the program has created the file rf_mecn_opt_r2s_C4_P_B.bibtex that contains the list in bibtex format
You can import this file easily into all common literature databanks and citation aid programs


List of essential papers. We consider these as the minimum necessary citations

  1. Neese,F.
     Software update: the ORCA program system, version 5.0
     WIRES Comput. Molec. Sci., 2022 12(1)e1606
     doi.org/10.1002/wcms.1606

List of papers to cite with high priority. The work reported in these papers was absolutely
necessary for this run to complete.
Our perspective: the developers of density functionals and basis sets usually get cited in chemistry papers
Good! But without the algorithms to do something with them, the functionals or basis sets would not do anything.
Hence, in our opinion, the algorithm design and method developments papers are equally worthy of getting cited

  1. Neese,F.
     An improvement of the resolution of the identity approximation for the formation of the Coulomb matrix
     J. Comp. Chem., 2003 24(14)1740-1747
     doi.org/10.1002/jcc.10318
  2. Neese,F.; Wennmohs,F.; Hansen,A.; Becker,U.
     Efficient, approximate and parallel Hartree-Fock and hybrid DFT calculations. A 'chain-of-spheres' algorithm for the Hartree-Fock exchange
     Chem. Phys., 2009 356(1-3)98-109
     doi.org/10.1016/j.chemphys.2008.10.036
  3. Garcia-Rates,M.; Neese,F.
     Effect of the Solute Cavity on the Solvation Energy and its Derivatives within the Framework of the Gaussian Charge Scheme
     J. Comput. Chem., 2020 41 922-939
     doi.org/10.1002/jcc.26139
  4. Helmich-Paris,B.; de Souza,B.; Neese,F.; Izsák,R.
     An improved chain of spheres for exchange algorithm
     J. Chem. Phys., 2021 155 104109
     doi.org/doi: 10.1063/5.0058766.
  5. Neese,F.
     The SHARK Integral Generation and Digestion System
     J. Comp. Chem., 2022  1-16
     doi.org/10.1002/jcc.26942
  6. Lehtola,S.; Steigemann,C.; Oliveira,M.; Marques,M.
     Recent developments in Libxc - A comprehensive library of functionals for density functional theory
     Software X, 2018 7 
     doi.org/10.1016/j.softx.2017.11.002
  7. Grimme,S.; Antony,J.; Ehrlich,S.; Krieg,H.
     A consistent and accurate ab initio parametrization of density functional dispersion correction (DFT-D) for the 94 elements H-Pu
     J. Chem. Phys., 2010 132 154104
     doi.org/10.1063/1.3382344
  8. Grimme,S.; Ehrlich,S.; Goerigk,L.
     Effect of the damping function in dispersion corrected density functional theory
     J. Comput. Chem., 2011 32(7)1456-1465
     doi.org/10.1002/jcc.21759
  9. Bursch,M.; Neugebauer,H.; Ehlert,S.; Grimme,S.
     Dispersion corrected r2SCAN based global hybrid functionals: r2SCANh, r2SCAN0, and r2SCAN50
     J. Phys. Chem., 2022 156(13)134105
     doi.org/10.1063/5.0086040

List of suggested additional citations. These are papers that are important in the 'surrounding' of 
of this run, or papers that preceded the highly important papers. If you like your results we are grateful for a citation.

  1. Izsak,R.; Neese,F.
     An overlap fitted chain of spheres exchange method
     J. Chem. Phys., 2011 135 144105
     doi.org/10.1063/1.3646921
  2. Izsak,R.; Hansen,A.; Neese,F.
     The resolution of identity and chain of spheres approximations for the LPNO-CCSD singles Fock term
     Molec. Phys., 2012 110 2413-2417
     doi.org/10.1080/00268976.2012.687466
  3. Neese,F.
     The ORCA program system
     WIRES Comput. Molec. Sci., 2012 2(1)73-78
     doi.org/10.1002/wcms.81
  4. Izsak,R.; Neese,F.; Klopper,W.
     Robust fitting techniques in the chain of spheres approximation to the Fock exchange: The role of the complementary space
     J. Chem. Phys., 2013 139 
     doi.org/10.1063/1.4819264
  5. Neese,F.
     Software update: the ORCA program system, version 4.0
     WIRES Comput. Molec. Sci., 2018 8(1)1-6
     doi.org/10.1002/wcms.1327
  6. Neese,F.; Wennmohs,F.; Becker,U.; Riplinger,C.
     The ORCA quantum chemistry program package
     J. Chem. Phys., 2020 152 Art. No. L224108
     doi.org/10.1063/5.0004608
  7. Wittmann,L.; Neugebauer,H.; Grimme,S.; Bursch,M.
     Dispersion-corrected r2SCAN based double-hybrid functionals
     J. Chem. Phys., 2023 159(22)224103
     doi.org/10.1063/5.0174988

List of optional additional citations

  1. Neese,F.
     Approximate second-order SCF convergence for spin unrestricted wavefunctions
     Chem. Phys. Lett., 2000 325(1-3)93-98
     doi.org/10.1016/s0009-2614(00)00662-x

Timings for individual modules:

Sum of individual times          ...     4679.563 sec (=  77.993 min)
Startup calculation              ...      225.978 sec (=   3.766 min)   4.8 %
SCF iterations                   ...     3359.971 sec (=  56.000 min)  71.8 %
Property calculations            ...        1.091 sec (=   0.018 min)   0.0 %
SCF Gradient evaluation          ...     1091.551 sec (=  18.193 min)  23.3 %
Geometry relaxation              ...        0.971 sec (=   0.016 min)   0.0 %
                             ****ORCA TERMINATED NORMALLY****
TOTAL RUN TIME: 0 days 1 hours 18 minutes 35 seconds 981 msec
