
                                 *****************
                                 * O   R   C   A *
                                 *****************

                                            #,                                       
                                            ###                                      
                                            ####                                     
                                            #####                                    
                                            ######                                   
                                           ########,                                 
                                     ,,################,,,,,                         
                               ,,#################################,,                 
                          ,,##########################################,,             
                       ,#########################################, ''#####,          
                    ,#############################################,,   '####,        
                  ,##################################################,,,,####,       
                ,###########''''           ''''###############################       
              ,#####''   ,,,,##########,,,,          '''####'''          '####       
            ,##' ,,,,###########################,,,                        '##       
           ' ,,###''''                  '''############,,,                           
         ,,##''                                '''############,,,,        ,,,,,,###''
      ,#''                                            '''#######################'''  
     '                                                          ''''####''''         
             ,#######,   #######,   ,#######,      ##                                
            ,#'     '#,  ##    ##  ,#'     '#,    #''#        ,####,   ,####,        
            ##       ##  ##   ,#'  ##            #'  '#       #'       #'  '#        
            ##       ##  #######   ##           ,######,      #####,   #    #        
            '#,     ,#'  ##    ##  '#,     ,#' ,#      #,     #,   #   #,  ,#        
             '#######'   ##     ##  '#######'  #'      '#     '####' # '####'        



                #########################################################
                #                        -***-                          #
                #          Department of theory and spectroscopy        #
                #                                                       #
                #                      Frank Neese                      #
                #                                                       #
                #     Directorship, Architecture, Infrastructure        #
                #                    SHARK, DRIVERS                     #
                #        Core code/Algorithms in most modules           #
                #                                                       #
                #        Max Planck Institute fuer Kohlenforschung      #
                #                Kaiser Wilhelm Platz 1                 #
                #                 D-45470 Muelheim/Ruhr                 #
                #                      Germany                          #
                #                                                       #
                #                  All rights reserved                  #
                #                        -***-                          #
                #########################################################


                         Program Version 6.0.1  -  RELEASE   -


 With contributions from (in alphabetic order):
[Max-Planck-Institut fuer Kohlenforschung]                               
  Daniel Aravena         : Magnetic Suceptibility                        
  Michael Atanasov       : Ab Initio Ligand Field Theory (pilot matlab implementation)
  Alexander A. Auer      : GIAO ZORA, VPT2 properties, NMR spectrum      
  Ute Becker             : All parallelization in ORCA, NUMFREQ, NUMCALC 
  Giovanni Bistoni       : ED, misc. LED, open-shell LED, HFLD           
  Martin Brehm           : Molecular dynamics                            
  Dmytro Bykov           : pre 5.0 version of the SCF Hessian            
  Marcos Casanova-Páez   : Triplet and SCS-CIS(D). UHF-(DLPNO)-IP/EA/STEOM-CCSD. UHF-CVS-IP/STEOM-CCSD   
  Vijay G. Chilkuri      : MRCI spin determinant printing, contributions to CSF-ICE 
  Pauline Colinet        : FMM embedding                                 
  Dipayan Datta          : RHF DLPNO-CCSD density                        
  Achintya Kumar Dutta   : EOM-CC, STEOM-CC                              
  Nicolas Foglia         : Exact transition moments, OPA infrastructure, MCD improvements    
  Dmitry Ganyushin       : Spin-Orbit,Spin-Spin,Magnetic field MRCI      
  Miquel Garcia-Rates    : C-PCM and meta-GGA Hessian, CCSD/C-PCM, Gaussian charge scheme 
  Tiago L. C. Gouveia    : GS-ROHF, GS-ROCIS                             
  Yang Guo               : DLPNO-NEVPT2, F12-NEVPT2, CIM, IAO-localization        
  Andreas Hansen         : Spin unrestricted coupled pair/coupled cluster methods 
  Ingolf Harden          : AUTO-CI MPn and infrastructure                
  Benjamin Helmich-Paris : MC-RPA, TRAH-(SCF,CASSCF), AVAS, COSX integrals, SCF dyn. polar. 
  Lee Huntington         : MR-EOM, pCC                                   
  Robert Izsak           : Overlap fitted RIJCOSX, COSX-SCS-MP3, EOM     
  Riya Kayal             : Wick's Theorem for AUTO-CI, AUTO-CI UHF-CCSDT 
  Emily Kempfer          : AUTO-CI, RHF CISDT and CCSDT                  
  Christian Kollmar      : KDIIS, OOCD, Brueckner-CCSD(T), CCSD density, CASPT2, CASPT2-K, improved NEVPT2 
  Axel Koslowski         : Symmetry handling                             
  Simone Kossmann        : meta-GGA functionals, TD-DFT gradient, OOMP2, (MP2 Hessian; deprecated post 5.0) 
  Lucas Lang             : DCDCAS                                        
  Marvin Lechner         : AUTO-CI (C++ implementation), FIC-MRCC        
  Spencer Leger          : CASSCF response                               
  Dagmar Lenk            : GEPOL surface, SMD, ORCA-2-JSON               
  Dimitrios Liakos       : Extrapolation schemes; Compound Job, initial MDCI parallelization 
  Dimitrios Manganas     : Further ROCIS development; embedding schemes. LFT, Crystal Embedding 
  Dimitrios Pantazis     : SARC Basis sets                               
  Anastasios Papadopoulos: AUTO-CI, single reference methods and gradients 
  Taras Petrenko         : pre 6.0 DFT Hessian and TD-DFT gradient, (ASA, deprecated), ECA, 1-Electron XAS/XES, NRVS 
  Peter Pinski           : DLPNO-MP2, DLPNO-MP2 Gradient                 
  Christoph Reimann      : Effective Core Potentials                     
  Marius Retegan         : Local ZFS, SOC                                
  Christoph Riplinger    : Optimizer, TS searches, QM/MM, DLPNO-CCSD(T), (RO)-DLPNO pert. Triples 
  Michael Roemelt        : Original ROCIS implementation                 
  Masaaki Saitow         : Open-shell DLPNO-CCSD energy and density      
  Barbara Sandhoefer     : DKH picture change effects                    
  Kantharuban Sivalingam : CASSCF convergence/infrastructure, NEVPT2 and variants, FIC-MRCI 
  Bernardo de Souza      : ESD, SOC TD-DFT                               
  Georgi L. Stoychev     : AutoAux, RI-MP2 NMR, DLPNO-MP2 response, X2C  
  Van Anh Tran           : RI-MP2 g-tensors                              
  Willem Van den Heuvel  : Paramagnetic NMR                              
  Zikuan Wang            : NOTCH, Electric field optimization            
  Frank Wennmohs         : Technical directorship and infrastructure     
  Hang Xu                : AUTO-CI-Response properties                   
                                                                         
[FACCTs GmbH]                                                            
  Markus Bursch, Miquel Garcia-Rates, Christoph Riplinger, Bernardo de Souza, Georgi L. Stoychev 
                                                                 
  APM, Basis sets (HGBS, AHGBS, def-TZVP (Ac-Lr), def2-XVPD (La-Lu)), CI-OPT, improved COSX, DLPNO-Multilevel,           
  DOCKER, DRACO, updates on ESD, GOAT, IRC, LR-CPCM, MBIS, meta-GGA TD-DFT gradient, ML-optimized integration grids, 
  MM, NACMEs, nearIR, NEB, NEB-TS, NL-DFT gradient (VV10), 2- and 3-layer-ONIOM, interface openCOSMO-RS, QMMM,   
  Crystal-QMMM, SF, symmetry and pop. for TD-DFT, r2SCAN hybrids, SOLVATOR                                   
                                                                         
[Other institutions]                                                     
  V. Asgeirsson          : NEB                                           
  Christoph Bannwarth    : sTDA-DFT, sTD-DFT, PBEh-3c, B97-3c, D3        
  Sebastian Ehlert       : rSCAN, r2SCAN, r2SCAN-3c, D4, dhf basis sets  
  Marvin Friede          : D4 for Fr, Ra, Ac-Lr                          
  Lars Goerigk           : TD-DFT with DH, B97 family of functionals     
  Stefan Grimme          : VdW corrections, initial TS optimization, DFT functionals, gCP, sTDA/sTD-DF 
  Waldemar Hujo          : DFT-NL                                        
  H. Jonsson             : NEB                                           
  Holger Kruse           : gCP                                           
  Marcel Mueller         : wB97X-3c, vDZP basis set                      
  Hagen Neugebauer       : wr2SCAN                                       
  Tobias Risthaus        : range-separated hybrid DFT                    
  Lukas Wittmann         : regularized MP2, r2SCAN double-hybrids, wr2SCAN        
                                                                         
We gratefully acknowledge several colleagues who have allowed us to      
interface, adapt or use parts of their codes:                            
  Ed Valeev, F. Pavosevic, A. Kumar             : LibInt (2-el integral package), F12 methods 
  Garnet Chan, S. Sharma, J. Yang, R. Olivares  : DMRG                   
  Ulf Ekstrom                                   : XCFun DFT Library      
  Mihaly Kallay                                 : mrcc  (arbitrary order and MRCC methods)
  Frank Weinhold                                : gennbo (NPA and NBO analysis)           
  Simon Mueller                                 : openCOSMO-RS                            
  Christopher J. Cramer and Donald G. Truhlar   : smd solvation model                     
  S Lehtola, MJT Oliveira, MAL Marques          : LibXC Library                           
  Liviu Ungur et al                             : ANISO software                          


 Your calculation uses the libint2 library for the computation of 2-el integrals
 For citations please refer to: http://libint.valeyev.net

 Your ORCA version has been built with support for libXC version: 6.2.2
 For citations please refer to: https://libxc.gitlab.io

 This ORCA versions uses:
   CBLAS   interface :  Fast vector & matrix operations
   LAPACKE interface :  Fast linear algebra routines
   SCALAPACK package :  Parallel linear algebra routines
   Shared memory     :  Shared parallel matrices
   BLAS/LAPACK       :  OpenBLAS 0.3.27  USE64BITINT DYNAMIC_ARCH NO_AFFINITY SkylakeX SINGLE_THREADED
        Core in use  :  SkylakeX
   Copyright (c) 2011-2014, The OpenBLAS Project


NOTE: MaxCore=8000 MB was set to SCF,MP2,MDCI,CIPSI,MRCI and CIS
      => If you want to overwrite this, your respective input block should be placed after the MaxCore statement
Your calculation utilizes the atom-pairwise dispersion correction
with the Becke-Johnson damping scheme (D3BJ)


Your calculation utilizes the SMD solvation module
Please cite in your paper:
A.V. Marenich, C.J. Cramer, D.G. Truhlar J. Phys. Chem. B, 113, (2009), 6378 

Warning: RI is on but no J-basis has been assigned. Assigning Def2/J (nothing to worry about!)
================================================================================

----- Orbital basis set information -----
Your calculation utilizes the basis: def2-TZVP
   F. Weigend and R. Ahlrichs, Phys. Chem. Chem. Phys. 7, 3297 (2005).

----- AuxJ basis set information -----
Your calculation utilizes the auxiliary basis: def2/J
   F. Weigend, Phys. Chem. Chem. Phys. 8, 1057 (2006).

================================================================================
                                        WARNINGS
                       Please study these warnings very carefully!
================================================================================



WARNING: SCAN, rSCAN, or r2SCAN functional requested.
  ===> : libXC variant has now been activated.



WARNING: your system is open-shell and RHF/RKS was chosen
  ===> : WILL SWITCH to UHF/UKS


================================================================================
                                       INPUT FILE
================================================================================
NAME = rf_mecn_freq_r2s_C4_P_B.inp
|  1> !r2scanh def2-TZVP freq d3 TightSCF SlowConv defgrid2
|  2>  
|  3> %pal
|  4> nprocs 20
|  5> end
|  6>  
|  7> %scf
|  8> MaxIter 1500
|  9> end
| 10>  
| 11> %maxcore 8000
| 12>  
| 13> !CPCM
| 14> %cpcm smd true
| 15> SMDsolvent "ACETONITRILE"
| 16> end
| 17>  
| 18> * xyz 0 2
| 19> 6        4.157110000     -0.309014000      0.671200000
| 20> 8        4.957632000     -1.119770000      0.004644000
| 21> 8        4.468072000      0.519944000      1.473896000
| 22> 6        2.687073000     -0.540711000      0.266484000
| 23> 6        2.270428000      0.266358000     -0.992766000
| 24> 6        0.850179000      0.047938000     -1.412883000
| 25> 6       -0.376880000      0.753264000     -0.938324000
| 26> 6       -1.462944000     -0.229997000     -0.396735000
| 27> 6       -2.541210000      0.466267000      0.482288000
| 28> 6       -3.843411000     -0.363859000      0.649442000
| 29> 9        2.453397000     -1.842632000      0.010249000
| 30> 9        1.895772000     -0.154714000      1.281017000
| 31> 9        2.490187000      1.570044000     -0.735418000
| 32> 9        3.074836000     -0.118661000     -2.005909000
| 33> 9        0.638333000     -0.990057000     -2.196308000
| 34> 9       -0.059567000      1.618524000      0.041123000
| 35> 9       -0.937535000      1.449348000     -1.955621000
| 36> 9       -0.856782000     -1.168335000      0.349248000
| 37> 9       -2.058987000     -0.831484000     -1.437914000
| 38> 9       -2.878644000      1.647214000     -0.057908000
| 39> 9       -2.029096000      0.675840000      1.702252000
| 40> 9       -3.554852000     -1.616015000      0.987795000
| 41> 9       -4.578677000      0.182735000      1.610163000
| 42> 9       -4.548470000     -0.368266000     -0.473257000
| 43> 1        5.880215000     -0.940672000      0.265976000
| 44> *
| 45> 
| 46>                          ****END OF INPUT****
================================================================================

                       ****************************
                       * Single Point Calculation *
                       ****************************

---------------------------------
CARTESIAN COORDINATES (ANGSTROEM)
---------------------------------
  C      4.157110   -0.309014    0.671200
  O      4.957632   -1.119770    0.004644
  O      4.468072    0.519944    1.473896
  C      2.687073   -0.540711    0.266484
  C      2.270428    0.266358   -0.992766
  C      0.850179    0.047938   -1.412883
  C     -0.376880    0.753264   -0.938324
  C     -1.462944   -0.229997   -0.396735
  C     -2.541210    0.466267    0.482288
  C     -3.843411   -0.363859    0.649442
  F      2.453397   -1.842632    0.010249
  F      1.895772   -0.154714    1.281017
  F      2.490187    1.570044   -0.735418
  F      3.074836   -0.118661   -2.005909
  F      0.638333   -0.990057   -2.196308
  F     -0.059567    1.618524    0.041123
  F     -0.937535    1.449348   -1.955621
  F     -0.856782   -1.168335    0.349248
  F     -2.058987   -0.831484   -1.437914
  F     -2.878644    1.647214   -0.057908
  F     -2.029096    0.675840    1.702252
  F     -3.554852   -1.616015    0.987795
  F     -4.578677    0.182735    1.610163
  F     -4.548470   -0.368266   -0.473257
  H      5.880215   -0.940672    0.265976

----------------------------
CARTESIAN COORDINATES (A.U.)
----------------------------
  NO LB      ZA    FRAG     MASS         X           Y           Z
   0 C     6.0000    0    12.011    7.855799   -0.583952    1.268384
   1 O     8.0000    0    15.999    9.368567   -2.116059    0.008776
   2 O     8.0000    0    15.999    8.443432    0.982552    2.785260
   3 C     6.0000    0    12.011    5.077832   -1.021796    0.503582
   4 C     6.0000    0    12.011    4.290487    0.503344   -1.876056
   5 C     6.0000    0    12.011    1.606605    0.090590   -2.669962
   6 C     6.0000    0    12.011   -0.712200    1.423463   -1.773175
   7 C     6.0000    0    12.011   -2.764564   -0.434631   -0.749720
   8 C     6.0000    0    12.011   -4.802191    0.881117    0.911392
   9 C     6.0000    0    12.011   -7.262994   -0.687594    1.227268
  10 F     9.0000    0    18.998    4.636248   -3.482070    0.019368
  11 F     9.0000    0    18.998    3.582490   -0.292367    2.420771
  12 F     9.0000    0    18.998    4.705771    2.966953   -1.389739
  13 F     9.0000    0    18.998    5.810598   -0.224237   -3.790619
  14 F     9.0000    0    18.998    1.206275   -1.870937   -4.150421
  15 F     9.0000    0    18.998   -0.112565    3.058567    0.077711
  16 F     9.0000    0    18.998   -1.771684    2.738871   -3.695588
  17 F     9.0000    0    18.998   -1.619083   -2.207833    0.659983
  18 F     9.0000    0    18.998   -3.890922   -1.571277   -2.717264
  19 F     9.0000    0    18.998   -5.439849    3.112783   -0.109430
  20 F     9.0000    0    18.998   -3.834436    1.277153    3.216790
  21 F     9.0000    0    18.998   -6.717697   -3.053826    1.866662
  22 F     9.0000    0    18.998   -8.652446    0.345319    3.042767
  23 F     9.0000    0    18.998   -8.595363   -0.695922   -0.894326
  24 H     1.0000    0     1.008   11.111996   -1.777612    0.502622

--------------------------------
INTERNAL COORDINATES (ANGSTROEM)
--------------------------------
 C      0   0   0     0.000000000000     0.00000000     0.00000000
 O      1   0   0     1.320021842681     0.00000000     0.00000000
 O      1   2   0     1.195068868151   127.40214275     0.00000000
 C      1   2   3     1.542234522319   110.68745981   179.07227781
 C      4   1   2     1.552631311447   112.98733078   274.36183473
 C      5   4   1     1.497101470205   113.97448710   179.46400542
 C      6   5   4     1.492770846526   128.43738103    86.45575362
 C      7   6   5     1.561939771930   112.60348799   234.95399207
 C      8   7   6     1.555674310060   113.33599540   162.53590202
 C      9   8   7     1.553311649346   113.74607248   161.52566848
 F      4   1   2     1.347315530394   111.12474158    35.35995570
 F      4   1   2     1.343290052334   108.67097647   154.81201003
 F      5   4   1     1.346892422497   107.72114953   302.40597447
 F      5   4   1     1.349729824548   107.49260166    59.50011670
 F      6   5   4     1.317598982379   115.74178804   274.22219774
 F      7   6   5     1.344871307367   109.97265582   356.02730501
 F      7   6   5     1.354164004207   110.14414209   115.31983175
 F      8   7   6     1.343280018751   108.57409677    42.33702426
 F      8   7   6     1.342053493367   108.78074081   284.37987328
 F      9   8   7     1.341756028338   109.92229006    40.76945647
 F      9   8   7     1.339587157531   108.64063382   281.61314835
 F     10   9   8     1.328775262197   110.42337128    48.45378077
 F     10   9   8     1.327541310631   108.79328480   167.91990437
 F     10   9   8     1.325737779401   110.88506292   287.34328729
 H      2   1   3     0.975463940757   108.99709484   359.82456681

---------------------------
INTERNAL COORDINATES (A.U.)
---------------------------
 C      0   0   0     0.000000000000     0.00000000     0.00000000
 O      1   0   0     2.494479773462     0.00000000     0.00000000
 O      1   2   0     2.258352871981   127.40214275     0.00000000
 C      1   2   3     2.914400881463   110.68745981   179.07227781
 C      4   1   2     2.934047965586   112.98733078   274.36183473
 C      5   4   1     2.829111773378   113.97448710   179.46400542
 C      6   5   4     2.820928080636   128.43738103    86.45575362
 C      7   6   5     2.951638406628   112.60348799   234.95399207
 C      8   7   6     2.939798399591   113.33599540   162.53590202
 C      9   8   7     2.935333617893   113.74607248   161.52566848
 F      4   1   2     2.546057368424   111.12474158    35.35995570
 F      4   1   2     2.538450317332   108.67097647   154.81201003
 F      5   4   1     2.545257810374   107.72114953   302.40597447
 F      5   4   1     2.550619723181   107.49260166    59.50011670
 F      6   5   4     2.489901231030   115.74178804   274.22219774
 F      7   6   5     2.541438456292   109.97265582   356.02730501
 F      7   6   5     2.558999108365   110.14414209   115.31983175
 F      8   7   6     2.538431356609   108.57409677    42.33702426
 F      8   7   6     2.536113559536   108.78074081   284.37987328
 F      9   8   7     2.535551432096   109.92229006    40.76945647
 F      9   8   7     2.531452860251   108.64063382   281.61314835
 F     10   9   8     2.511021339081   110.42337128    48.45378077
 F     10   9   8     2.508689508560   108.79328480   167.91990437
 F     10   9   8     2.505281328461   110.88506292   287.34328729
 H      2   1   3     1.843359701546   108.99709484   359.82456681

---------------------
BASIS SET INFORMATION
---------------------
There are 4 groups of distinct atoms

 Group   1 Type C   : 11s6p2d1f contracted to 5s3p2d1f pattern {62111/411/11/1}
 Group   2 Type O   : 11s6p2d1f contracted to 5s3p2d1f pattern {62111/411/11/1}
 Group   3 Type F   : 11s6p2d1f contracted to 5s3p2d1f pattern {62111/411/11/1}
 Group   4 Type H   : 5s1p contracted to 3s1p pattern {311/1}

Atom   0C    basis set group =>   1
Atom   1O    basis set group =>   2
Atom   2O    basis set group =>   2
Atom   3C    basis set group =>   1
Atom   4C    basis set group =>   1
Atom   5C    basis set group =>   1
Atom   6C    basis set group =>   1
Atom   7C    basis set group =>   1
Atom   8C    basis set group =>   1
Atom   9C    basis set group =>   1
Atom  10F    basis set group =>   3
Atom  11F    basis set group =>   3
Atom  12F    basis set group =>   3
Atom  13F    basis set group =>   3
Atom  14F    basis set group =>   3
Atom  15F    basis set group =>   3
Atom  16F    basis set group =>   3
Atom  17F    basis set group =>   3
Atom  18F    basis set group =>   3
Atom  19F    basis set group =>   3
Atom  20F    basis set group =>   3
Atom  21F    basis set group =>   3
Atom  22F    basis set group =>   3
Atom  23F    basis set group =>   3
Atom  24H    basis set group =>   4
---------------------------------
AUXILIARY/J BASIS SET INFORMATION
---------------------------------
There are 4 groups of distinct atoms

 Group   1 Type C   : 12s5p4d2f1g contracted to 6s4p3d1f1g pattern {711111/2111/211/2/1}
 Group   2 Type O   : 12s5p4d2f1g contracted to 6s4p3d1f1g pattern {711111/2111/211/2/1}
 Group   3 Type F   : 12s5p4d2f1g contracted to 6s4p3d1f1g pattern {711111/2111/211/2/1}
 Group   4 Type H   : 5s2p1d contracted to 3s1p1d pattern {311/2/1}

Atom   0C    basis set group =>   1
Atom   1O    basis set group =>   2
Atom   2O    basis set group =>   2
Atom   3C    basis set group =>   1
Atom   4C    basis set group =>   1
Atom   5C    basis set group =>   1
Atom   6C    basis set group =>   1
Atom   7C    basis set group =>   1
Atom   8C    basis set group =>   1
Atom   9C    basis set group =>   1
Atom  10F    basis set group =>   3
Atom  11F    basis set group =>   3
Atom  12F    basis set group =>   3
Atom  13F    basis set group =>   3
Atom  14F    basis set group =>   3
Atom  15F    basis set group =>   3
Atom  16F    basis set group =>   3
Atom  17F    basis set group =>   3
Atom  18F    basis set group =>   3
Atom  19F    basis set group =>   3
Atom  20F    basis set group =>   3
Atom  21F    basis set group =>   3
Atom  22F    basis set group =>   3
Atom  23F    basis set group =>   3
Atom  24H    basis set group =>   4


           ************************************************************
           *        Program running with 20 parallel MPI-processes    *
           *              working on a common directory               *
           ************************************************************
------------------------------------------------------------------------------
                             ORCA STARTUP CALCULATIONS
                           -- RI-GTO INTEGRALS CHOSEN --
------------------------------------------------------------------------------
------------------------------------------------------------------------------
                   ___                                                        
                  /   \      - P O W E R E D   B Y -                         
                 /     \                                                     
                 |  |  |   _    _      __       _____    __    __             
                 |  |  |  | |  | |    /  \     |  _  \  |  |  /  |          
                  \  \/   | |  | |   /    \    | | | |  |  | /  /          
                 / \  \   | |__| |  /  /\  \   | |_| |  |  |/  /          
                |  |  |   |  __  | /  /__\  \  |    /   |      \           
                |  |  |   | |  | | |   __   |  |    \   |  |\   \          
                \     /   | |  | | |  |  |  |  | |\  \  |  | \   \       
                 \___/    |_|  |_| |__|  |__|  |_| \__\ |__|  \__/        
                                                                              
                      - O R C A' S   B I G   F R I E N D -                    
                                      &                                       
                       - I N T E G R A L  F E E D E R -                       
                                                                              
 v1 FN, 2020, v2 2021, v3 2022-2024                                           
------------------------------------------------------------------------------


----------------------
SHARK INTEGRAL PACKAGE
----------------------

Number of atoms                             ...     25
Number of basis functions                   ...    750
Number of shells                            ...    268
Maximum angular momentum                    ...      3
Integral batch strategy                     ... SHARK/LIBINT Hybrid
RI-J (if used) integral strategy            ... SPLIT-RIJ (Revised 2003 algorithm where possible)
Printlevel                                  ...      1
Contraction scheme used                     ... SEGMENTED contraction
Prescreening option                         ... SCHWARTZ
   Thresh                                   ... 2.500e-11
   Tcut                                     ... 2.500e-12
   Tpresel                                  ... 2.500e-12 
Coulomb Range Separation                    ... NOT USED
Exchange Range Separation                   ... NOT USED
Multipole approximations                    ... NOT USED
Finite Nucleus Model                        ... NOT USED
CABS basis                                  ... NOT available
Auxiliary Coulomb fitting basis             ... AVAILABLE
   # of basis functions in Aux-J            ...   1187
   # of shells in Aux-J                     ...    365
   Maximum angular momentum in Aux-J        ...      4
Auxiliary J/K fitting basis                 ... NOT available
Auxiliary Correlation fitting basis         ... NOT available
Auxiliary 'external' fitting basis          ... NOT available

Checking pre-screening integrals            ... done (  0.0 sec) Dimension = 268
Check shell pair data                       ... done (  0.0 sec)
Shell pair information
Shell pair cut-off parameter TPreSel        ...   2.5e-12
Total number of shell pairs                 ...     36046
Shell pairs after pre-screening             ...     22991
Total number of primitive shell pairs       ...    118872
Primitive shell pairs kept                  ...     48739
          la=0 lb=0:   4390 shell pairs
          la=1 lb=0:   6274 shell pairs
          la=1 lb=1:   2154 shell pairs
          la=2 lb=0:   3412 shell pairs
          la=2 lb=1:   2489 shell pairs
          la=2 lb=2:    703 shell pairs
          la=3 lb=0:   1567 shell pairs
          la=3 lb=1:   1208 shell pairs
          la=3 lb=2:    637 shell pairs
          la=3 lb=3:    157 shell pairs

Calculating one electron integrals          ... done (  0.0 sec)
Calculating RI/J V-Matrix + Cholesky decomp.... done (  0.1 sec)
Calculating Nuclear repulsion               ... done (  0.0 sec) ENN=   2699.180542189735 Eh

Diagonalization of the overlap matrix:
Smallest eigenvalue                        ... 5.820e-05
Time for diagonalization                   ...    0.098 sec
Threshold for overlap eigenvalues          ... 1.000e-07
Number of eigenvalues below threshold      ... 0
Time for construction of square roots      ...    0.044 sec
Total time needed                          ...    0.147 sec

-------------------
DFT GRID GENERATION
-------------------

General Integration Accuracy     IntAcc      ... 4.388
Radial Grid Type                 RadialGrid  ... OptM3 with GC (2021)
Angular Grid (max. ang.)         AngularGrid ... 4 (Lebedev-302)
Angular grid pruning method      GridPruning ... 4 (adaptive)
Weight generation scheme         WeightScheme... mBecke (2022)
Basis function cutoff            BFCut       ... 1.0000e-11
Integration weight cutoff        WCut        ... 1.0000e-14
Partially contracted basis set               ... off
Rotationally invariant grid construction     ... off
Angular grids for H and He will be reduced by one unit

Total number of grid points                  ...   148624
Total number of batches                      ...     2336
Average number of points per batch           ...       63
Average number of grid points per atom       ...     5945

--------------------
COSX GRID GENERATION
--------------------

GRIDX 1
-------
General Integration Accuracy     IntAcc      ... 3.816
Radial Grid Type                 RadialGrid  ... OptM3 with GC (2021)
Angular Grid (max. ang.)         AngularGrid ... 1 (Lebedev-50)
Angular grid pruning method      GridPruning ... 4 (adaptive)
Weight generation scheme         WeightScheme... mBecke (2022)
Basis function cutoff            BFCut       ... 1.0000e-11
Integration weight cutoff        WCut        ... 1.0000e-14
Partially contracted basis set               ... on
Rotationally invariant grid construction     ... off
Angular grids for H and He will be reduced by one unit

Total number of grid points                  ...    18695
Total number of batches                      ...      157
Average number of points per batch           ...      119
Average number of grid points per atom       ...      748
UseSFitting                                  ... on

GRIDX 2
-------
General Integration Accuracy     IntAcc      ... 4.020
Radial Grid Type                 RadialGrid  ... OptM3 with GC (2021)
Angular Grid (max. ang.)         AngularGrid ... 2 (Lebedev-110)
Angular grid pruning method      GridPruning ... 4 (adaptive)
Weight generation scheme         WeightScheme... mBecke (2022)
Basis function cutoff            BFCut       ... 1.0000e-11
Integration weight cutoff        WCut        ... 1.0000e-14
Partially contracted basis set               ... on
Rotationally invariant grid construction     ... off
Angular grids for H and He will be reduced by one unit

Total number of grid points                  ...    43965
Total number of batches                      ...      356
Average number of points per batch           ...      123
Average number of grid points per atom       ...     1759
UseSFitting                                  ... on

GRIDX 3
-------
General Integration Accuracy     IntAcc      ... 4.338
Radial Grid Type                 RadialGrid  ... OptM3 with GC (2021)
Angular Grid (max. ang.)         AngularGrid ... 3 (Lebedev-194)
Angular grid pruning method      GridPruning ... 4 (adaptive)
Weight generation scheme         WeightScheme... mBecke (2022)
Basis function cutoff            BFCut       ... 1.0000e-11
Integration weight cutoff        WCut        ... 1.0000e-14
Partially contracted basis set               ... on
Rotationally invariant grid construction     ... off
Angular grids for H and He will be reduced by one unit

Total number of grid points                  ...    97385
Total number of batches                      ...      773
Average number of points per batch           ...      125
Average number of grid points per atom       ...     3895
UseSFitting                                  ... on
Initializing property integral containers    ... done (  0.0 sec)

SHARK setup successfully completed in   3.0 seconds

Maximum memory used throughout the entire STARTUP-calculation: 58.2 MB


           ************************************************************
           *        Program running with 20 parallel MPI-processes    *
           *              working on a common directory               *
           ************************************************************
-------------------------------------------------------------------------------
                                 ORCA GUESS
                   Start orbitals & Density for SCF / CASSCF
-------------------------------------------------------------------------------

------------
SCF SETTINGS
------------
Hamiltonian:
 Density Functional     Method          .... DFT(GTOs)
  Functional kind                       .... Exchange
  Functional name                       .... Re-regularized SCAN exchange by Furness et al
  Functional family                     .... MGGA
  Functional refs                              
    [ 0] J. W. Furness, A. D. Kaplan, J. Ning, J. P. Perdew, and J. Sun.,  J. Phys. Chem. Lett. 11, 8208-8215 (2020), doi: 10.1021/acs.jpclett.0c02405
    [ 1] J. W. Furness, A. D. Kaplan, J. Ning, J. P. Perdew, and J. Sun.,  J. Phys. Chem. Lett. 11, 9248-9248 (2020), doi: 10.1021/acs.jpclett.0c03077
  Functional external parameters        .... 6
    Parameter  0 _c1        =  6.670000e-01 : c1 parameter        
    Parameter  1 _c2        =  8.000000e-01 : c2 parameter        
    Parameter  2 _d         =  1.240000e+00 : d parameter         
    Parameter  3 _k1        =  6.500000e-02 : k1 parameter        
    Parameter  4 _eta       =  1.000000e-03 : eta parameter       
    Parameter  5 _dp2       =  3.610000e-01 : dp2 parameter       
  Functional kind                       .... Correlation
  Functional name                       .... Re-regularized SCAN correlation by Furness et al
  Functional family                     .... MGGA
  Functional refs                              
    [ 0] J. W. Furness, A. D. Kaplan, J. Ning, J. P. Perdew, and J. Sun.,  J. Phys. Chem. Lett. 11, 8208-8215 (2020), doi: 10.1021/acs.jpclett.0c02405
    [ 1] J. W. Furness, A. D. Kaplan, J. Ning, J. P. Perdew, and J. Sun.,  J. Phys. Chem. Lett. 11, 9248-9248 (2020), doi: 10.1021/acs.jpclett.0c03077
  Functional external parameters        .... 1
    Parameter  0 _eta       =  1.000000e-03 : Regularization parameter
 Gradients option       PostSCFGGA      .... off
 Hybrid DFT is turned on
   Fraction HF Exchange ScalHFX         ....  0.100000
   Scaling of DF-GGA-X  ScalDFX         ....  0.900000
   Scaling of DF-GGA-C  ScalDFC         ....  1.000000
   Scaling of DF-LDA-C  ScalLDAC        ....  1.000000
   Perturbative correction              ....  0.000000
   NL short-range parameter             .... 11.900000
 RI-approximation to the Coulomb term is turned on
   Number of AuxJ basis functions       .... 1187
   RIJ-COSX (HFX calculated with COS-X)).... on


General Settings:
 Integral files         IntName         .... rf_mecn_freq_r2s_C4_P_B
 Hartree-Fock type      HFTyp           .... UHF
 Total Charge           Charge          ....    0
 Multiplicity           Mult            ....    2
 Number of Electrons    NEL             ....  191
 Basis Dimension        Dim             ....  750
 Nuclear Repulsion      ENuc            ....   2699.1805421897 Eh

Convergence Acceleration:
 AO-DIIS                CNVDIIS         .... on
   Start iteration      DIISMaxIt       ....     0
   Startup error        DIISStart       ....  0.200000
   # of expansion vecs  DIISMaxEq       ....     5
   Bias factor          DIISBfac        ....   1.050
   Max. coefficient     DIISMaxC        ....  10.000
 MO-DIIS                CNVKDIIS        .... off
 Trust-Rad. Augm. Hess. CNVTRAH         .... auto
   Auto Start mean grad. ratio tolernc. ....  1.125000
   Auto Start start iteration           ....    50
   Auto Start num. interpolation iter.  ....    10
   Max. Number of Micro iterations      ....    24
   Max. Number of Macro iterations      .... Maxiter - #DIIS iter
   Number of Davidson start vectors     ....     2
   Converg. threshold    (grad. norm)   ....   1.000e-05
   Grad. Scal. Fac. for Micro threshold ....   0.100
   Minimum threshold for Micro iter.    ....   1.000e-02
   NR start threshold (gradient norm)   ....   1.000e-04
   Initial trust radius                 ....   0.400
   Minimum AH scaling param. (alpha)    ....   1.000
   Maximum AH scaling param. (alpha)    .... 1000.000
   Quad. conv. algorithm                .... NR
   White noise on init. David. guess    .... on
   Maximum white noise                  ....   0.010
   Pseudo random numbers                .... off
   Inactive MOs                         .... canonical
   Orbital update algorithm             .... Taylor
   Preconditioner                       .... Diag
   Full preconditioner red. dimension   ....   250
 SOSCF                  CNVSOSCF        .... on
   Start iteration      SOSCFMaxIt      ....   150
   Startup grad/error   SOSCFStart      ....  0.001000
   Hessian update       SOSCFHessUp     .... L-BFGS
 Level Shifting         CNVShift        .... on
   Level shift para.    LevelShift      ....    0.2500
   Turn off err/grad.   ShiftErr        ....    0.0000
 Zerner damping         CNVZerner       .... off
 Static damping         CNVDamp         .... on
   Fraction old density DampFac         ....    0.8500
   Max. Damping (<1)    DampMax         ....    0.9800
   Min. Damping (>=0)   DampMin         ....    0.0000
   Turn off err/grad.   DampErr         ....    0.0300

SCF Procedure:
 Maximum # iterations   MaxIter         ....  1500
 SCF integral mode      SCFMode         .... Direct
   Integral package                     .... SHARK and LIBINT hybrid scheme
 Reset frequency        DirectResetFreq ....    20
 Integral Threshold     Thresh          ....  2.500e-11 Eh
 Primitive CutOff       TCut            ....  2.500e-12 Eh

Convergence Tolerance:
 Convergence Check Mode ConvCheckMode   .... Total+1el-Energy
 Convergence forced     ConvForced      .... 0
 Energy Change          TolE            ....  1.000e-08 Eh
 1-El. energy change                    ....  1.000e-05 Eh
 Orbital Gradient       TolG            ....  1.000e-05
 Orbital Rotation angle TolX            ....  1.000e-05
 DIIS Error             TolErr          ....  5.000e-07

------------------------------
INITIAL GUESS: MODEL POTENTIAL
------------------------------
Loading Hartree-Fock densities                     ... done
Calculating cut-offs                               ... done
Initializing the effective Hamiltonian             ... done
Setting up the integral package (SHARK)            ... done
Starting the Coulomb interaction                   ... done (   0.1 sec)
Making the grid                                    ... done (   0.5 sec)
Mapping shells                                     ... done
Starting the XC term evaluation                    ... done (   0.1 sec)
  promolecular density results
     # of electrons  =    190.999546910
     EX              =   -197.619823321
     EC              =     -6.718942951
     EX+EC           =   -204.338766272
Transforming the Hamiltonian                       ... done (   0.0 sec)
Diagonalizing the Hamiltonian                      ... done (   0.1 sec)
Back transforming the eigenvectors                 ... done (   0.0 sec)
Now organizing SCF variables                       ... done
                      ------------------
                      INITIAL GUESS DONE (   1.1 sec)
                      ------------------
             **** ENERGY FILE WAS UPDATED (rf_mecn_freq_r2s_C4_P_B.en.tmp) ****
Finished Guess after   1.8 sec
Maximum memory used throughout the entire GUESS-calculation: 47.6 MB


           ************************************************************
           *        Program running with 20 parallel MPI-processes    *
           *              working on a common directory               *
           ************************************************************

-------------------------------------------------------------------------------------------
                                      ORCA LEAN-SCF
                              memory conserving SCF solver
-------------------------------------------------------------------------------------------

--------------------
CPCM SOLVATION MODEL
--------------------
CPCM parameters:
  Epsilon                                         ...      35.6880
  Refrac                                          ...       1.3442
  Rsolv                                           ...       1.3000
  Surface type                                    ... GAUSSIAN VDW
  Discretization scheme                           ... Constant charge density
    Threshold for H atoms                         ...       5.0000 (charges/Ang^2)
    Threshold for non-H atoms                     ...       5.0000 (charges/Ang^2)
  Epsilon function type                           ...         CPCM
Solvent:                                          ... ACETONITRILE
SMD-CDS solvent descriptors:
  Soln                                            ...       1.3442
  Soln25                                          ...       1.3416
  Sola                                            ...       0.0700
  Solb                                            ...       0.3200
  Solg                                            ...      41.2500
  Solc                                            ...       0.0000
  Solh                                            ...       0.0000
Radii:
  Scheme                                          ... Element-dependent radii
  Radius for C  used is    3.4960 Bohr (=   1.8500 Ang.)
  Radius for O  used is    4.0969 Bohr (=   2.1680 Ang.)
  Radius for F  used is    3.2692 Bohr (=   1.7300 Ang.)
  Radius for H  used is    2.2677 Bohr (=   1.2000 Ang.)
Calculating surface                               ...        done! (  0.0s)
Cavity surface points                             ...         2165
Cavity Volume                                     ...    2093.3096
Cavity Surface-area                               ...    1088.4260
Calculating surface distance matrix               ...        done! (  0.0s)
Performing Cholesky decomposition & store         ...        done! (  0.1s)
Overall time for CPCM initialization              ...                 0.1s

----------------------------------------D-I-I-S--------------------------------------------
Iteration    Energy (Eh)           Delta-E    RMSDP     MaxDP     DIISErr   Damp  Time(sec)
-------------------------------------------------------------------------------------------
               ***  Starting incremental Fock matrix formation  ***
    1    -1853.2029738382880169     0.00e+00  1.88e-04  1.29e-02  1.31e-01  0.850   6.6
Warning: op=1 Small HOMO/LUMO gap (   0.046) - skipping pre-diagonalization
         Will do a full diagonalization
    2    -1853.3119166854803552    -1.09e-01  1.81e-04  1.11e-02  8.86e-02  0.850   4.6
                               ***Turning on AO-DIIS***
    3    -1853.3717924783795752    -5.99e-02  9.15e-05  4.85e-03  5.16e-02  0.850   4.0
    4    -1853.4083835764758987    -3.66e-02  6.45e-05  4.75e-03  3.97e-02  0.850   4.0
    5    -1853.4346866396244877    -2.63e-02  5.46e-05  4.90e-03  3.42e-02  0.850   3.8
    6    -1853.4557074041122178    -2.10e-02  4.87e-05  4.68e-03  2.99e-02  0.850   3.8
    7    -1853.4733182530244449    -1.76e-02  2.95e-04  2.88e-02  2.55e-02  0.000   4.2
    8    -1853.5660716352977033    -9.28e-02  2.80e-05  2.95e-03  5.52e-03  0.000   4.8
    9    -1853.5661765301365449    -1.05e-04  1.21e-05  1.21e-03  4.62e-03  0.000   4.3
                              *** Initializing SOSCF ***
---------------------------------------S-O-S-C-F--------------------------------------
Iteration    Energy (Eh)           Delta-E    RMSDP     MaxDP     MaxGrad    Time(sec)
--------------------------------------------------------------------------------------
   10    -1853.5663859648620928    -2.09e-04  6.06e-06  5.22e-04  9.65e-04     4.7
               *** Restarting incremental Fock matrix formation ***
   11    -1853.5664081386830730    -2.22e-05  5.10e-06  3.61e-04  3.82e-04     7.5
   12    -1853.5664093191135180    -1.18e-06  3.40e-06  2.78e-04  6.82e-04     5.2
   13    -1853.5664124603672462    -3.14e-06  1.71e-06  1.14e-04  1.17e-04     5.1
   14    -1853.5664127161016950    -2.56e-07  6.95e-07  5.26e-05  3.95e-05     4.7
   15    -1853.5664128755688580    -1.59e-07  4.03e-07  2.72e-05  1.84e-05     4.2
   16    -1853.5664128730259108     2.54e-09  1.96e-07  1.33e-05  1.01e-05     4.2
                 **** Energy Check signals convergence ****

               *****************************************************
               *                     SUCCESS                       *
               *           SCF CONVERGED AFTER  16 CYCLES          *
               *****************************************************

Recomputing exchange energy using gridx3       ... done (    8.846 sec)
Old exchange energy                            :    -19.930686997 Eh
New exchange energy                            :    -19.930665259 Eh
Exchange energy change after final integration :      0.000021738 Eh
Total energy after final integration           :  -1853.566391135 Eh

SMD CDS free energy correction energy :                 3.20130     Kcal/mol
Total Energy after SMD CDS correction =             -1853.561289538 Eh
             **** ENERGY FILE WAS UPDATED (rf_mecn_freq_r2s_C4_P_B.en.tmp) ****

----------------
TOTAL SCF ENERGY
----------------

Total Energy       :      -1853.56128953780467 Eh          -50437.96691 eV

Components:
Nuclear Repulsion  :       2699.18054218973521 Eh           73448.43660 eV
Electronic Energy  :      -4552.73436391779978 Eh         -123886.20029 eV
One Electron Energy:      -7949.32028850524148 Eh         -216312.00214 eV
Two Electron Energy:       3396.58592458744170 Eh           92425.80184 eV
CPCM Dielectric    :         -0.01259114496089 Eh              -0.34262 eV
SMD CDS (Gcds)     :          0.00510159697858 Eh               0.13882 eV

Virial components:
Potential Energy   :      -3700.96648410768739 Eh         -100708.41795 eV
Kinetic Energy     :       1847.40519456988250 Eh           50270.45104 eV
Virial Ratio       :          2.00333229276718

DFT components:
N(Alpha)           :       96.000036762644 electrons
N(Beta)            :       95.000029849360 electrons
N(Total)           :      191.000066612004 electrons
E(X)               :     -180.321893640681 Eh       
E(C)               :       -6.647494820127 Eh       
E(XC)              :     -186.969388460808 Eh       

CPCM Solvation Model Properties:
Surface-charge          :         -0.00827624001108
Corrected charge        :          0.00000000000000
Outlying charge corr.   :          0.00000381536878 Eh               0.00010 eV
Free-energy (cav+disp)  :          0.00510159697858 Eh               0.13882 eV

---------------
SCF CONVERGENCE
---------------

  Last Energy change         ...   -2.5429e-09  Tolerance :   1.0000e-08
  Last MAX-Density change    ...    1.3311e-05  Tolerance :   1.0000e-07
  Last RMS-Density change    ...    1.9641e-07  Tolerance :   5.0000e-09
  Last DIIS Error            ...    9.6529e-04  Tolerance :   5.0000e-07
  Last Orbital Gradient      ...    1.0101e-05  Tolerance :   1.0000e-05
  Last Orbital Rotation      ...    1.7244e-05  Tolerance :   1.0000e-05


----------------------
UHF SPIN CONTAMINATION
----------------------

Warning: in a DFT calculation there is little theoretical justification to 
         calculate <S**2> as in Hartree-Fock theory. We will do it anyways
         but you should keep in mind that the values have only limited relevance

Expectation value of <S**2>     :     0.757054
Ideal value S*(S+1) for S=0.5   :     0.750000
Deviation                       :     0.007054

----------------
ORBITAL ENERGIES
----------------
                 SPIN UP ORBITALS
  NO   OCC          E(Eh)            E(eV) 
   0   1.0000     -24.747218      -673.4060 
   1   1.0000     -24.733830      -673.0417 
   2   1.0000     -24.733733      -673.0391 
   3   1.0000     -24.733547      -673.0340 
   4   1.0000     -24.732921      -673.0170 
   5   1.0000     -24.732582      -673.0078 
   6   1.0000     -24.732010      -672.9922 
   7   1.0000     -24.731626      -672.9818 
   8   1.0000     -24.730929      -672.9628 
   9   1.0000     -24.725190      -672.8066 
  10   1.0000     -24.724014      -672.7746 
  11   1.0000     -24.722742      -672.7400 
  12   1.0000     -24.721396      -672.7034 
  13   1.0000     -24.721228      -672.6988 
  14   1.0000     -19.195446      -522.3347 
  15   1.0000     -19.139843      -520.8216 
  16   1.0000     -10.441362      -284.1239 
  17   1.0000     -10.388193      -282.6771 
  18   1.0000     -10.386957      -282.6435 
  19   1.0000     -10.386735      -282.6374 
  20   1.0000     -10.383140      -282.5396 
  21   1.0000     -10.371204      -282.2148 
  22   1.0000     -10.324783      -280.9516 
  23   1.0000     -10.313056      -280.6325 
  24   1.0000      -1.363075       -37.0911 
  25   1.0000      -1.336145       -36.3583 
  26   1.0000      -1.324714       -36.0473 
  27   1.0000      -1.317307       -35.8458 
  28   1.0000      -1.312902       -35.7259 
  29   1.0000      -1.306549       -35.5530 
  30   1.0000      -1.301048       -35.4033 
  31   1.0000      -1.274473       -34.6802 
  32   1.0000      -1.268358       -34.5138 
  33   1.0000      -1.266195       -34.4549 
  34   1.0000      -1.258626       -34.2490 
  35   1.0000      -1.258003       -34.2320 
  36   1.0000      -1.253624       -34.1128 
  37   1.0000      -1.247424       -33.9441 
  38   1.0000      -1.151126       -31.3237 
  39   1.0000      -1.064146       -28.9569 
  40   1.0000      -0.860195       -23.4071 
  41   1.0000      -0.836195       -22.7540 
  42   1.0000      -0.807740       -21.9797 
  43   1.0000      -0.774193       -21.0669 
  44   1.0000      -0.733249       -19.9527 
  45   1.0000      -0.693185       -18.8625 
  46   1.0000      -0.673562       -18.3285 
  47   1.0000      -0.658072       -17.9070 
  48   1.0000      -0.642520       -17.4839 
  49   1.0000      -0.638730       -17.3807 
  50   1.0000      -0.630177       -17.1480 
  51   1.0000      -0.619958       -16.8699 
  52   1.0000      -0.619209       -16.8495 
  53   1.0000      -0.614829       -16.7304 
  54   1.0000      -0.604628       -16.4528 
  55   1.0000      -0.603437       -16.4204 
  56   1.0000      -0.601619       -16.3709 
  57   1.0000      -0.588833       -16.0230 
  58   1.0000      -0.586297       -15.9540 
  59   1.0000      -0.573943       -15.6178 
  60   1.0000      -0.569530       -15.4977 
  61   1.0000      -0.562074       -15.2948 
  62   1.0000      -0.527025       -14.3411 
  63   1.0000      -0.510299       -13.8860 
  64   1.0000      -0.504135       -13.7182 
  65   1.0000      -0.499926       -13.6037 
  66   1.0000      -0.493098       -13.4179 
  67   1.0000      -0.488654       -13.2969 
  68   1.0000      -0.487244       -13.2586 
  69   1.0000      -0.483680       -13.1616 
  70   1.0000      -0.480547       -13.0763 
  71   1.0000      -0.475640       -12.9428 
  72   1.0000      -0.472331       -12.8528 
  73   1.0000      -0.470856       -12.8127 
  74   1.0000      -0.465466       -12.6660 
  75   1.0000      -0.463059       -12.6005 
  76   1.0000      -0.458073       -12.4648 
  77   1.0000      -0.456900       -12.4329 
  78   1.0000      -0.453732       -12.3467 
  79   1.0000      -0.450902       -12.2697 
  80   1.0000      -0.447604       -12.1799 
  81   1.0000      -0.440223       -11.9791 
  82   1.0000      -0.439245       -11.9525 
  83   1.0000      -0.437505       -11.9051 
  84   1.0000      -0.433020       -11.7831 
  85   1.0000      -0.431374       -11.7383 
  86   1.0000      -0.427884       -11.6433 
  87   1.0000      -0.426083       -11.5943 
  88   1.0000      -0.424511       -11.5515 
  89   1.0000      -0.415133       -11.2963 
  90   1.0000      -0.398027       -10.8309 
  91   1.0000      -0.370765       -10.0890 
  92   1.0000      -0.350254        -9.5309 
  93   1.0000      -0.344931        -9.3861 
  94   1.0000      -0.306994        -8.3537 
  95   1.0000      -0.267891        -7.2897 
  96   0.0000      -0.055092        -1.4991 
  97   0.0000      -0.016475        -0.4483 
  98   0.0000       0.012786         0.3479 
  99   0.0000       0.029727         0.8089 
 100   0.0000       0.057169         1.5557 
 101   0.0000       0.068784         1.8717 
 102   0.0000       0.079174         2.1544 
 103   0.0000       0.097738         2.6596 
 104   0.0000       0.110916         3.0182 
 105   0.0000       0.113473         3.0878 
 106   0.0000       0.124060         3.3758 

                 SPIN DOWN ORBITALS
  NO   OCC          E(Eh)            E(eV) 
   0   1.0000     -24.742071      -673.2660 
   1   1.0000     -24.733832      -673.0418 
   2   1.0000     -24.733611      -673.0358 
   3   1.0000     -24.733493      -673.0326 
   4   1.0000     -24.732923      -673.0171 
   5   1.0000     -24.732579      -673.0077 
   6   1.0000     -24.731987      -672.9916 
   7   1.0000     -24.731618      -672.9815 
   8   1.0000     -24.730803      -672.9594 
   9   1.0000     -24.724700      -672.7933 
  10   1.0000     -24.723461      -672.7596 
  11   1.0000     -24.721368      -672.7026 
  12   1.0000     -24.721217      -672.6985 
  13   1.0000     -24.721216      -672.6985 
  14   1.0000     -19.195397      -522.3333 
  15   1.0000     -19.139587      -520.8146 
  16   1.0000     -10.441331      -284.1231 
  17   1.0000     -10.389209      -282.7047 
  18   1.0000     -10.386718      -282.6370 
  19   1.0000     -10.386399      -282.6283 
  20   1.0000     -10.384290      -282.5709 
  21   1.0000     -10.370370      -282.1921 
  22   1.0000     -10.324689      -280.9491 
  23   1.0000     -10.296150      -280.1725 
  24   1.0000      -1.363040       -37.0902 
  25   1.0000      -1.335364       -36.3371 
  26   1.0000      -1.323223       -36.0067 
  27   1.0000      -1.317050       -35.8388 
  28   1.0000      -1.311946       -35.6999 
  29   1.0000      -1.304685       -35.5023 
  30   1.0000      -1.294380       -35.2219 
  31   1.0000      -1.274392       -34.6780 
  32   1.0000      -1.268325       -34.5129 
  33   1.0000      -1.265895       -34.4468 
  34   1.0000      -1.258326       -34.2408 
  35   1.0000      -1.257274       -34.2122 
  36   1.0000      -1.251959       -34.0675 
  37   1.0000      -1.246922       -33.9305 
  38   1.0000      -1.150937       -31.3186 
  39   1.0000      -1.063802       -28.9475 
  40   1.0000      -0.847823       -23.0704 
  41   1.0000      -0.830769       -22.6064 
  42   1.0000      -0.804733       -21.8979 
  43   1.0000      -0.766486       -20.8571 
  44   1.0000      -0.731884       -19.9156 
  45   1.0000      -0.690090       -18.7783 
  46   1.0000      -0.668524       -18.1915 
  47   1.0000      -0.656273       -17.8581 
  48   1.0000      -0.641411       -17.4537 
  49   1.0000      -0.637602       -17.3500 
  50   1.0000      -0.629957       -17.1420 
  51   1.0000      -0.618201       -16.8221 
  52   1.0000      -0.617533       -16.8039 
  53   1.0000      -0.610719       -16.6185 
  54   1.0000      -0.603425       -16.4200 
  55   1.0000      -0.601730       -16.3739 
  56   1.0000      -0.600430       -16.3385 
  57   1.0000      -0.587280       -15.9807 
  58   1.0000      -0.585617       -15.9354 
  59   1.0000      -0.572772       -15.5859 
  60   1.0000      -0.567587       -15.4448 
  61   1.0000      -0.561177       -15.2704 
  62   1.0000      -0.510132       -13.8814 
  63   1.0000      -0.503960       -13.7134 
  64   1.0000      -0.502900       -13.6846 
  65   1.0000      -0.495463       -13.4822 
  66   1.0000      -0.490073       -13.3356 
  67   1.0000      -0.488103       -13.2819 
  68   1.0000      -0.486403       -13.2357 
  69   1.0000      -0.482830       -13.1385 
  70   1.0000      -0.478732       -13.0270 
  71   1.0000      -0.475194       -12.9307 
  72   1.0000      -0.471217       -12.8225 
  73   1.0000      -0.469988       -12.7890 
  74   1.0000      -0.464574       -12.6417 
  75   1.0000      -0.461955       -12.5704 
  76   1.0000      -0.457150       -12.4397 
  77   1.0000      -0.454912       -12.3788 
  78   1.0000      -0.451550       -12.2873 
  79   1.0000      -0.450011       -12.2454 
  80   1.0000      -0.445870       -12.1327 
  81   1.0000      -0.440055       -11.9745 
  82   1.0000      -0.438558       -11.9338 
  83   1.0000      -0.437207       -11.8970 
  84   1.0000      -0.432025       -11.7560 
  85   1.0000      -0.430532       -11.7154 
  86   1.0000      -0.427741       -11.6394 
  87   1.0000      -0.425464       -11.5775 
  88   1.0000      -0.423150       -11.5145 
  89   1.0000      -0.413724       -11.2580 
  90   1.0000      -0.395900       -10.7730 
  91   1.0000      -0.367060        -9.9882 
  92   1.0000      -0.349514        -9.5108 
  93   1.0000      -0.342483        -9.3194 
  94   1.0000      -0.304154        -8.2765 
  95   0.0000      -0.130557        -3.5526 
  96   0.0000      -0.049769        -1.3543 
  97   0.0000      -0.014098        -0.3836 
  98   0.0000       0.015708         0.4274 
  99   0.0000       0.033085         0.9003 
 100   0.0000       0.058335         1.5874 
 101   0.0000       0.071430         1.9437 
 102   0.0000       0.089514         2.4358 
 103   0.0000       0.105061         2.8589 
 104   0.0000       0.116825         3.1790 
 105   0.0000       0.119406         3.2492 
*Only the first 10 virtual orbitals were printed.

                    ********************************
                    * MULLIKEN POPULATION ANALYSIS *
                    ********************************

--------------------------------------------
MULLIKEN ATOMIC CHARGES AND SPIN POPULATIONS
--------------------------------------------
   0 C :    0.276246    0.002347
   1 O :   -0.369718    0.001104
   2 O :   -0.326234    0.007963
   3 C :    0.402430    0.031513
   4 C :    0.377625   -0.033942
   5 C :    0.079986    0.843636
   6 C :    0.378841   -0.007281
   7 C :    0.301465    0.011079
   8 C :    0.330239    0.002359
   9 C :    0.472070    0.001161
  10 F :   -0.181616    0.000634
  11 F :   -0.180146    0.000621
  12 F :   -0.172402    0.007285
  13 F :   -0.173499    0.009452
  14 F :   -0.143744    0.091217
  15 F :   -0.171645    0.001470
  16 F :   -0.169693    0.025773
  17 F :   -0.167933    0.000657
  18 F :   -0.164587    0.002092
  19 F :   -0.162628   -0.000042
  20 F :   -0.159935    0.000198
  21 F :   -0.156138   -0.000052
  22 F :   -0.153231    0.000404
  23 F :   -0.154086    0.000031
  24 H :    0.388333    0.000323
Sum of atomic charges         :    0.0000000
Sum of atomic spin populations:    1.0000000

-----------------------------------------------------
MULLIKEN REDUCED ORBITAL CHARGES AND SPIN POPULATIONS
-----------------------------------------------------
CHARGE
  0 C s       :     3.072928  s :     3.072928
      pz      :     0.764267  p :     2.366186
      px      :     0.861046
      py      :     0.740873
      dz2     :     0.060398  d :     0.259966
      dxz     :     0.053512
      dyz     :     0.033774
      dx2y2   :     0.063832
      dxy     :     0.048449
      f0      :     0.002097  f :     0.024674
      f+1     :     0.002996
      f-1     :     0.004193
      f+2     :     0.004568
      f-2     :     0.004163
      f+3     :     0.003356
      f-3     :     0.003301

  1 O s       :     3.786467  s :     3.786467
      pz      :     1.642122  p :     4.548988
      px      :     1.293880
      py      :     1.612986
      dz2     :     0.005749  d :     0.032424
      dxz     :     0.006144
      dyz     :     0.006422
      dx2y2   :     0.007855
      dxy     :     0.006253
      f0      :     0.000217  f :     0.001839
      f+1     :     0.000192
      f-1     :     0.000214
      f+2     :     0.000304
      f-2     :     0.000300
      f+3     :     0.000351
      f-3     :     0.000260

  2 O s       :     3.827401  s :     3.827401
      pz      :     1.363581  p :     4.464461
      px      :     1.721182
      py      :     1.379699
      dz2     :     0.009006  d :     0.032281
      dxz     :     0.004892
      dyz     :     0.007809
      dx2y2   :     0.005396
      dxy     :     0.005178
      f0      :     0.000284  f :     0.002091
      f+1     :     0.000150
      f-1     :     0.000499
      f+2     :     0.000381
      f-2     :     0.000374
      f+3     :     0.000201
      f-3     :     0.000202

  3 C s       :     3.055869  s :     3.055869
      pz      :     0.763289  p :     2.227286
      px      :     0.824623
      py      :     0.639374
      dz2     :     0.056695  d :     0.286675
      dxz     :     0.040217
      dyz     :     0.069155
      dx2y2   :     0.059166
      dxy     :     0.061442
      f0      :     0.004133  f :     0.027740
      f+1     :     0.003197
      f-1     :     0.003597
      f+2     :     0.005381
      f-2     :     0.003233
      f+3     :     0.004973
      f-3     :     0.003226

  4 C s       :     3.067921  s :     3.067921
      pz      :     0.780175  p :     2.224156
      px      :     0.785964
      py      :     0.658017
      dz2     :     0.058092  d :     0.302449
      dxz     :     0.048422
      dyz     :     0.072307
      dx2y2   :     0.057547
      dxy     :     0.066080
      f0      :     0.004107  f :     0.027849
      f+1     :     0.003302
      f-1     :     0.003571
      f+2     :     0.005498
      f-2     :     0.003110
      f+3     :     0.004892
      f-3     :     0.003368

  5 C s       :     3.237553  s :     3.237553
      pz      :     0.859099  p :     2.508040
      px      :     0.895703
      py      :     0.753238
      dz2     :     0.027846  d :     0.156320
      dxz     :     0.034150
      dyz     :     0.019419
      dx2y2   :     0.030445
      dxy     :     0.044459
      f0      :     0.001563  f :     0.018101
      f+1     :     0.001405
      f-1     :     0.004146
      f+2     :     0.002438
      f-2     :     0.002926
      f+3     :     0.003207
      f-3     :     0.002417

  6 C s       :     3.064826  s :     3.064826
      pz      :     0.640948  p :     2.229312
      px      :     0.856333
      py      :     0.732031
      dz2     :     0.074916  d :     0.299350
      dxz     :     0.068602
      dyz     :     0.053008
      dx2y2   :     0.043387
      dxy     :     0.059438
      f0      :     0.005297  f :     0.027672
      f+1     :     0.002595
      f-1     :     0.004470
      f+2     :     0.005852
      f-2     :     0.004635
      f+3     :     0.002340
      f-3     :     0.002483

  7 C s       :     3.146225  s :     3.146225
      pz      :     0.685126  p :     2.233045
      px      :     0.823069
      py      :     0.724851
      dz2     :     0.069749  d :     0.291231
      dxz     :     0.056886
      dyz     :     0.058306
      dx2y2   :     0.050265
      dxy     :     0.056025
      f0      :     0.004396  f :     0.028033
      f+1     :     0.002638
      f-1     :     0.004918
      f+2     :     0.005970
      f-2     :     0.003942
      f+3     :     0.002906
      f-3     :     0.003263

  8 C s       :     3.100742  s :     3.100742
      pz      :     0.664286  p :     2.252425
      px      :     0.889078
      py      :     0.699061
      dz2     :     0.062596  d :     0.288502
      dxz     :     0.057400
      dyz     :     0.066718
      dx2y2   :     0.038006
      dxy     :     0.063782
      f0      :     0.004670  f :     0.028093
      f+1     :     0.002638
      f-1     :     0.006725
      f+2     :     0.003977
      f-2     :     0.003621
      f+3     :     0.002962
      f-3     :     0.003500

  9 C s       :     3.021253  s :     3.021253
      pz      :     0.623470  p :     2.107315
      px      :     0.799132
      py      :     0.684713
      dz2     :     0.081499  d :     0.358709
      dxz     :     0.059356
      dyz     :     0.085051
      dx2y2   :     0.062626
      dxy     :     0.070176
      f0      :     0.007613  f :     0.040653
      f+1     :     0.004605
      f-1     :     0.006444
      f+2     :     0.007512
      f-2     :     0.005705
      f+3     :     0.004436
      f-3     :     0.004339

 10 F s       :     3.929041  s :     3.929041
      pz      :     1.879021  p :     5.235106
      px      :     1.884556
      py      :     1.471528
      dz2     :     0.002164  d :     0.016762
      dxz     :     0.000400
      dyz     :     0.004075
      dx2y2   :     0.006168
      dxy     :     0.003955
      f0      :     0.000070  f :     0.000707
      f+1     :     0.000010
      f-1     :     0.000122
      f+2     :     0.000116
      f-2     :     0.000032
      f+3     :     0.000157
      f-3     :     0.000201

 11 F s       :     3.929865  s :     3.929865
      pz      :     1.641905  p :     5.232566
      px      :     1.734899
      py      :     1.855762
      dz2     :     0.004295  d :     0.016992
      dxz     :     0.005890
      dyz     :     0.002991
      dx2y2   :     0.001879
      dxy     :     0.001937
      f0      :     0.000106  f :     0.000723
      f+1     :     0.000203
      f-1     :     0.000076
      f+2     :     0.000126
      f-2     :     0.000143
      f+3     :     0.000031
      f-3     :     0.000038

 12 F s       :     3.929670  s :     3.929670
      pz      :     1.878111  p :     5.225252
      px      :     1.881923
      py      :     1.465217
      dz2     :     0.002202  d :     0.016776
      dxz     :     0.000443
      dyz     :     0.004085
      dx2y2   :     0.006227
      dxy     :     0.003818
      f0      :     0.000071  f :     0.000705
      f+1     :     0.000010
      f-1     :     0.000125
      f+2     :     0.000118
      f-2     :     0.000031
      f+3     :     0.000149
      f-3     :     0.000201

 13 F s       :     3.928416  s :     3.928416
      pz      :     1.643606  p :     5.227739
      px      :     1.727440
      py      :     1.856693
      dz2     :     0.004075  d :     0.016644
      dxz     :     0.005833
      dyz     :     0.002850
      dx2y2   :     0.001945
      dxy     :     0.001941
      f0      :     0.000098  f :     0.000700
      f+1     :     0.000198
      f-1     :     0.000071
      f+2     :     0.000125
      f-2     :     0.000140
      f+3     :     0.000032
      f-3     :     0.000037

 14 F s       :     3.932131  s :     3.932131
      pz      :     1.703543  p :     5.192045
      px      :     1.890858
      py      :     1.597644
      dz2     :     0.003653  d :     0.018790
      dxz     :     0.001893
      dyz     :     0.006397
      dx2y2   :     0.003897
      dxy     :     0.002949
      f0      :     0.000081  f :     0.000778
      f+1     :     0.000017
      f-1     :     0.000203
      f+2     :     0.000193
      f-2     :     0.000123
      f+3     :     0.000078
      f-3     :     0.000083

 15 F s       :     3.932666  s :     3.932666
      pz      :     1.650016  p :     5.221156
      px      :     1.877163
      py      :     1.693977
      dz2     :     0.003570  d :     0.017115
      dxz     :     0.002607
      dyz     :     0.006252
      dx2y2   :     0.002214
      dxy     :     0.002472
      f0      :     0.000082  f :     0.000708
      f+1     :     0.000056
      f-1     :     0.000210
      f+2     :     0.000141
      f-2     :     0.000139
      f+3     :     0.000047
      f-3     :     0.000034

 16 F s       :     3.927307  s :     3.927307
      pz      :     1.643082  p :     5.225323
      px      :     1.821511
      py      :     1.760729
      dz2     :     0.003645  d :     0.016375
      dxz     :     0.003876
      dyz     :     0.004939
      dx2y2   :     0.001625
      dxy     :     0.002290
      f0      :     0.000082  f :     0.000688
      f+1     :     0.000119
      f-1     :     0.000158
      f+2     :     0.000098
      f-2     :     0.000165
      f+3     :     0.000032
      f-3     :     0.000034

 17 F s       :     3.931772  s :     3.931772
      pz      :     1.757780  p :     5.218178
      px      :     1.800611
      py      :     1.659787
      dz2     :     0.002467  d :     0.017262
      dxz     :     0.002798
      dyz     :     0.004976
      dx2y2   :     0.002904
      dxy     :     0.004116
      f0      :     0.000074  f :     0.000721
      f+1     :     0.000056
      f-1     :     0.000113
      f+2     :     0.000110
      f-2     :     0.000190
      f+3     :     0.000098
      f-3     :     0.000079

 18 F s       :     3.928950  s :     3.928950
      pz      :     1.623256  p :     5.217639
      px      :     1.805157
      py      :     1.789226
      dz2     :     0.004331  d :     0.017279
      dxz     :     0.004605
      dyz     :     0.004613
      dx2y2   :     0.001502
      dxy     :     0.002228
      f0      :     0.000099  f :     0.000720
      f+1     :     0.000150
      f-1     :     0.000154
      f+2     :     0.000096
      f-2     :     0.000164
      f+3     :     0.000027
      f-3     :     0.000031

 19 F s       :     3.928321  s :     3.928321
      pz      :     1.817842  p :     5.216327
      px      :     1.869979
      py      :     1.528506
      dz2     :     0.002151  d :     0.017257
      dxz     :     0.001091
      dyz     :     0.005080
      dx2y2   :     0.004766
      dxy     :     0.004169
      f0      :     0.000078  f :     0.000723
      f+1     :     0.000015
      f-1     :     0.000114
      f+2     :     0.000149
      f-2     :     0.000096
      f+3     :     0.000145
      f-3     :     0.000126

 20 F s       :     3.926571  s :     3.926571
      pz      :     1.512179  p :     5.215288
      px      :     1.830921
      py      :     1.872188
      dz2     :     0.006873  d :     0.017340
      dxz     :     0.005451
      dyz     :     0.003368
      dx2y2   :     0.000770
      dxy     :     0.000878
      f0      :     0.000216  f :     0.000736
      f+1     :     0.000242
      f-1     :     0.000125
      f+2     :     0.000067
      f-2     :     0.000072
      f+3     :     0.000006
      f-3     :     0.000008

 21 F s       :     3.924613  s :     3.924613
      pz      :     1.858274  p :     5.213404
      px      :     1.870083
      py      :     1.485048
      dz2     :     0.002255  d :     0.017354
      dxz     :     0.000668
      dyz     :     0.004207
      dx2y2   :     0.005856
      dxy     :     0.004368
      f0      :     0.000076  f :     0.000767
      f+1     :     0.000015
      f-1     :     0.000128
      f+2     :     0.000122
      f-2     :     0.000061
      f+3     :     0.000186
      f-3     :     0.000178

 22 F s       :     3.923084  s :     3.923084
      pz      :     1.654835  p :     5.211940
      px      :     1.742458
      py      :     1.814647
      dz2     :     0.003523  d :     0.017426
      dxz     :     0.005446
      dyz     :     0.003844
      dx2y2   :     0.002067
      dxy     :     0.002547
      f0      :     0.000097  f :     0.000781
      f+1     :     0.000166
      f-1     :     0.000112
      f+2     :     0.000121
      f-2     :     0.000192
      f+3     :     0.000048
      f-3     :     0.000045

 23 F s       :     3.923217  s :     3.923217
      pz      :     1.570288  p :     5.212570
      px      :     1.755268
      py      :     1.887014
      dz2     :     0.005548  d :     0.017517
      dxz     :     0.006574
      dyz     :     0.002693
      dx2y2   :     0.001516
      dxy     :     0.001185
      f0      :     0.000158  f :     0.000782
      f+1     :     0.000291
      f-1     :     0.000077
      f+2     :     0.000128
      f-2     :     0.000093
      f+3     :     0.000018
      f-3     :     0.000016

 24 H s       :     0.568077  s :     0.568077
      pz      :     0.012216  p :     0.043591
      px      :     0.019899
      py      :     0.011476


SPIN
  0 C s       :     0.001447  s :     0.001447
      pz      :    -0.002033  p :     0.000130
      px      :     0.001558
      py      :     0.000605
      dz2     :     0.000105  d :     0.000720
      dxz     :     0.000025
      dyz     :     0.000006
      dx2y2   :    -0.000006
      dxy     :     0.000590
      f0      :     0.000008  f :     0.000050
      f+1     :     0.000021
      f-1     :     0.000012
      f+2     :     0.000011
      f-2     :    -0.000004
      f+3     :    -0.000008
      f-3     :     0.000009

  1 O s       :     0.000005  s :     0.000005
      pz      :     0.001158  p :     0.001060
      px      :     0.000284
      py      :    -0.000381
      dz2     :     0.000012  d :     0.000038
      dxz     :     0.000009
      dyz     :     0.000001
      dx2y2   :     0.000016
      dxy     :     0.000000
      f0      :    -0.000001  f :     0.000000
      f+1     :    -0.000000
      f-1     :     0.000000
      f+2     :     0.000000
      f-2     :     0.000000
      f+3     :     0.000000
      f-3     :     0.000001

  2 O s       :     0.000406  s :     0.000406
      pz      :     0.002324  p :     0.007581
      px      :     0.003258
      py      :     0.001998
      dz2     :    -0.000016  d :    -0.000018
      dxz     :     0.000002
      dyz     :    -0.000003
      dx2y2   :     0.000004
      dxy     :    -0.000006
      f0      :    -0.000002  f :    -0.000005
      f+1     :    -0.000001
      f-1     :    -0.000003
      f+2     :    -0.000001
      f-2     :    -0.000001
      f+3     :     0.000001
      f-3     :     0.000001

  3 C s       :    -0.000462  s :    -0.000462
      pz      :     0.017093  p :     0.028146
      px      :     0.003823
      py      :     0.007230
      dz2     :     0.000116  d :     0.003864
      dxz     :     0.001938
      dyz     :     0.000181
      dx2y2   :     0.001503
      dxy     :     0.000126
      f0      :    -0.000011  f :    -0.000034
      f+1     :    -0.000024
      f-1     :     0.000004
      f+2     :     0.000014
      f-2     :    -0.000007
      f+3     :    -0.000007
      f-3     :    -0.000003

  4 C s       :    -0.012937  s :    -0.012937
      pz      :    -0.014717  p :    -0.042717
      px      :    -0.021773
      py      :    -0.006228
      dz2     :     0.002363  d :     0.020351
      dxz     :     0.012515
      dyz     :     0.001285
      dx2y2   :    -0.000332
      dxy     :     0.004519
      f0      :     0.000152  f :     0.001361
      f+1     :     0.000312
      f-1     :     0.000022
      f+2     :     0.000267
      f-2     :     0.000014
      f+3     :     0.000030
      f-3     :     0.000564

  5 C s       :     0.061555  s :     0.061555
      pz      :     0.452888  p :     0.782928
      px      :     0.037394
      py      :     0.292646
      dz2     :     0.000906  d :     0.002173
      dxz     :     0.001667
      dyz     :    -0.001430
      dx2y2   :    -0.000941
      dxy     :     0.001971
      f0      :    -0.000610  f :    -0.003020
      f+1     :    -0.000264
      f-1     :    -0.001045
      f+2     :    -0.000433
      f-2     :    -0.000480
      f+3     :    -0.000146
      f-3     :    -0.000042

  6 C s       :    -0.013317  s :    -0.013317
      pz      :     0.002306  p :    -0.012387
      px      :    -0.019607
      py      :     0.004915
      dz2     :    -0.000373  d :     0.017018
      dxz     :     0.008673
      dyz     :     0.000914
      dx2y2   :     0.002679
      dxy     :     0.005124
      f0      :     0.000129  f :     0.001405
      f+1     :     0.000492
      f-1     :     0.000186
      f+2     :     0.000230
      f-2     :     0.000049
      f+3     :     0.000223
      f-3     :     0.000095

  7 C s       :    -0.001527  s :    -0.001527
      pz      :     0.005369  p :     0.012245
      px      :    -0.001973
      py      :     0.008848
      dz2     :    -0.000232  d :     0.000341
      dxz     :     0.000233
      dyz     :     0.000123
      dx2y2   :     0.000246
      dxy     :    -0.000029
      f0      :     0.000005  f :     0.000020
      f+1     :     0.000007
      f-1     :    -0.000015
      f+2     :     0.000003
      f-2     :    -0.000009
      f+3     :     0.000026
      f-3     :     0.000003

  8 C s       :    -0.000092  s :    -0.000092
      pz      :     0.000556  p :     0.002007
      px      :     0.000425
      py      :     0.001026
      dz2     :     0.000010  d :     0.000421
      dxz     :     0.000087
      dyz     :     0.000025
      dx2y2   :     0.000245
      dxy     :     0.000055
      f0      :     0.000001  f :     0.000023
      f+1     :     0.000004
      f-1     :    -0.000000
      f+2     :     0.000009
      f-2     :     0.000005
      f+3     :     0.000006
      f-3     :    -0.000001

  9 C s       :     0.000534  s :     0.000534
      pz      :    -0.000015  p :     0.000601
      px      :     0.000134
      py      :     0.000481
      dz2     :     0.000002  d :     0.000019
      dxz     :     0.000003
      dyz     :    -0.000009
      dx2y2   :    -0.000018
      dxy     :     0.000041
      f0      :    -0.000001  f :     0.000007
      f+1     :    -0.000001
      f-1     :     0.000002
      f+2     :     0.000001
      f-2     :    -0.000001
      f+3     :     0.000006
      f-3     :     0.000000

 10 F s       :     0.000365  s :     0.000365
      pz      :     0.001035  p :     0.000186
      px      :    -0.000101
      py      :    -0.000748
      dz2     :     0.000005  d :     0.000079
      dxz     :     0.000025
      dyz     :     0.000024
      dx2y2   :     0.000030
      dxy     :    -0.000004
      f0      :     0.000000  f :     0.000004
      f+1     :    -0.000000
      f-1     :     0.000000
      f+2     :     0.000001
      f-2     :     0.000001
      f+3     :    -0.000000
      f-3     :     0.000001

 11 F s       :     0.000299  s :     0.000299
      pz      :    -0.000400  p :     0.000221
      px      :    -0.000347
      py      :     0.000969
      dz2     :     0.000024  d :     0.000096
      dxz     :     0.000027
      dyz     :     0.000004
      dx2y2   :     0.000020
      dxy     :     0.000022
      f0      :     0.000001  f :     0.000004
      f+1     :     0.000003
      f-1     :     0.000000
      f+2     :     0.000000
[...]
 19:    205.47   0.001161    5.87  0.001763  (-0.026608  0.027495 -0.017286)
 20:    214.25   0.000281    1.42  0.000409  ( 0.000645  0.008597 -0.018290)
 21:    221.29   0.000346    1.75  0.000488  ( 0.000312 -0.000386  0.022087)
 22:    241.09   0.000036    0.18  0.000047  ( 0.005144 -0.004482  0.000615)
 23:    243.52   0.000044    0.22  0.000057  (-0.006830  0.002795 -0.001602)
 24:    257.62   0.000372    1.88  0.000451  (-0.018236 -0.005100 -0.009602)
 25:    278.57   0.001171    5.92  0.001312  ( 0.033546 -0.004989 -0.012722)
 26:    285.98   0.000715    3.61  0.000780  (-0.022198  0.007731  0.015084)
 27:    313.20   0.000016    0.08  0.000016  ( 0.000545 -0.001717  0.003615)
 28:    337.09   0.000152    0.77  0.000141  (-0.008312 -0.002112 -0.008208)
 29:    346.30   0.000249    1.26  0.000224  (-0.004155 -0.005118 -0.013439)
 30:    351.54   0.000121    0.61  0.000108  (-0.007855  0.000939  0.006717)
 31:    364.16   0.000068    0.34  0.000059  ( 0.001976  0.001537  0.007227)
 32:    376.19   0.000251    1.27  0.000208  ( 0.006853  0.011006  0.006342)
 33:    377.47   0.000172    0.87  0.000142  ( 0.010434  0.004154  0.004005)
 34:    414.84   0.000267    1.35  0.000201  ( 0.008821 -0.011090  0.000446)
 35:    424.02   0.000496    2.51  0.000365  (-0.003081  0.017371  0.007339)
 36:    460.20   0.001766    8.92  0.001197  (-0.027556 -0.010433  0.018138)
 37:    507.74   0.002262   11.43  0.001390  ( 0.035511  0.006810 -0.009101)
 38:    528.50   0.005089   25.72  0.003005  (-0.030364 -0.019363  0.041330)
 39:    536.89   0.004552   23.00  0.002646  ( 0.032729 -0.038834 -0.008148)
 40:    564.12   0.000573    2.89  0.000317  (-0.011165  0.004648 -0.013059)
 41:    575.11   0.013606   68.76  0.007383  ( 0.073683  0.016143 -0.041148)
 42:    584.22   0.007710   38.96  0.004118  ( 0.040356  0.047124 -0.016399)
 43:    601.62   0.003808   19.25  0.001975  (-0.033073 -0.015813  0.025131)
 44:    612.21   0.015342   77.53  0.007820  ( 0.041065 -0.056214  0.054533)
 45:    632.44   0.016156   81.64  0.007972  (-0.070862  0.036748 -0.039998)
 46:    661.96   0.025130  127.00  0.011847  ( 0.085192 -0.056651  0.037148)
 47:    667.14   0.005700   28.81  0.002666  (-0.044469 -0.013222  0.022675)
 48:    708.12   0.017889   90.41  0.007884  ( 0.072253  0.024674 -0.045326)
 49:    725.17   0.013768   69.58  0.005925  (-0.061622 -0.014439  0.043804)
 50:    772.79   0.002720   13.75  0.001098  (-0.021289 -0.015986  0.019741)
 51:    782.54   0.010912   55.14  0.004351  ( 0.055286  0.008743 -0.034906)
 52:    883.78   0.016070   81.21  0.005674  (-0.005096 -0.013036  0.074017)
 53:   1001.07   0.004294   21.70  0.001339  ( 0.032196 -0.005285  0.016558)
 54:   1076.21   0.037278  188.39  0.010809  ( 0.086406 -0.044499  0.036918)
 55:   1126.43   0.052563  265.63  0.014562  ( 0.015620  0.108808 -0.049784)
 56:   1143.02   0.025226  127.48  0.006887  ( 0.014622 -0.059748 -0.055709)
 57:   1146.14   0.010752   54.34  0.002928  (-0.005637  0.033692  0.041960)
 58:   1148.07   0.074856  378.29  0.020347  (-0.124345 -0.031170  0.062563)
 59:   1163.83   0.101734  514.12  0.027278  ( 0.044650 -0.149967 -0.052864)
 60:   1168.69   0.033953  171.59  0.009066  ( 0.040090 -0.049235  0.070957)
 61:   1172.51   0.024595  124.29  0.006546  ( 0.028347  0.062439  0.042937)
 62:   1184.89   0.096732  488.84  0.025476  ( 0.058945 -0.012767  0.147779)
 63:   1193.56   0.023252  117.51  0.006079  (-0.029400  0.068477  0.022932)
 64:   1194.47   0.114417  578.22  0.029892  (-0.016579  0.158677  0.066625)
 65:   1209.62   0.088348  446.48  0.022793  ( 0.053459 -0.021705  0.139512)
 66:   1234.45   0.010551   53.32  0.002667  (-0.022796  0.016765  0.043203)
 67:   1235.68   0.001272    6.43  0.000321  (-0.012295  0.001741 -0.012928)
 68:   1281.98   0.004019   20.31  0.000978  (-0.028679  0.004258 -0.011730)
 69:   1348.01   0.021448  108.39  0.004965  (-0.054098  0.007245  0.044566)
 70:   1349.91   0.023634  119.44  0.005464  ( 0.068364 -0.020375 -0.019360)
 71:   1397.60   0.022270  112.54  0.004973  ( 0.064174 -0.004418  0.028892)
 72:   1424.02   0.016023   80.98  0.003511  (-0.030654  0.042263  0.028028)
 73:   1845.94   0.094981  480.00  0.016057  (-0.008308 -0.086584 -0.092147)
 74:   3645.36   0.051217  258.83  0.004384  ( 0.065862 -0.005942  0.003372)

* The epsilon (eps) is given for a Dirac delta lineshape.
** The dipole moment derivative (T) already includes vibrational overlap.

The first frequency considered to be a vibration is 6
The total number of vibrations considered is 69


--------------------------
THERMOCHEMISTRY AT 298.15K
--------------------------

Temperature         ...   298.15 K
Pressure            ...     1.00 atm
Total Mass          ...   395.07 AMU
Quasi RRHO          ...     True
Cut-Off Frequency   ...     1.00 cm^-1

Throughout the following assumptions are being made:
  (1) The electronic state is orbitally nondegenerate
      but the spin degeneracy is treated
  (2) There are no thermally accessible electronically excited states
  (3) Hindered rotations indicated by low frequency modes are not
      treated as such but are treated as vibrations and this may
      cause some error
  (4) All equations used are the standard statistical mechanics
      equations for an ideal gas
  (5) All vibrations are strictly harmonic

freq.      17.35  E(vib)   ...       0.57 
freq.      25.77  E(vib)   ...       0.56 
freq.      37.04  E(vib)   ...       0.54 
freq.      51.04  E(vib)   ...       0.52 
freq.      52.68  E(vib)   ...       0.52 
freq.      57.44  E(vib)   ...       0.51 
freq.      60.46  E(vib)   ...       0.51 
freq.      80.15  E(vib)   ...       0.49 
freq.     103.97  E(vib)   ...       0.46 
freq.     128.47  E(vib)   ...       0.43 
freq.     151.30  E(vib)   ...       0.40 
freq.     182.19  E(vib)   ...       0.37 
freq.     185.54  E(vib)   ...       0.37 
freq.     205.47  E(vib)   ...       0.35 
freq.     214.25  E(vib)   ...       0.34 
freq.     221.29  E(vib)   ...       0.33 
freq.     241.09  E(vib)   ...       0.31 
freq.     243.52  E(vib)   ...       0.31 
freq.     257.62  E(vib)   ...       0.30 
freq.     278.57  E(vib)   ...       0.28 
freq.     285.98  E(vib)   ...       0.27 
freq.     313.20  E(vib)   ...       0.25 
freq.     337.09  E(vib)   ...       0.24 
freq.     346.30  E(vib)   ...       0.23 
freq.     351.54  E(vib)   ...       0.23 
freq.     364.16  E(vib)   ...       0.22 
freq.     376.19  E(vib)   ...       0.21 
freq.     377.47  E(vib)   ...       0.21 
freq.     414.84  E(vib)   ...       0.19 
freq.     424.02  E(vib)   ...       0.18 
freq.     460.20  E(vib)   ...       0.16 
freq.     507.74  E(vib)   ...       0.14 
freq.     528.50  E(vib)   ...       0.13 
freq.     536.89  E(vib)   ...       0.12 
freq.     564.12  E(vib)   ...       0.11 
freq.     575.11  E(vib)   ...       0.11 
freq.     584.22  E(vib)   ...       0.11 
freq.     601.62  E(vib)   ...       0.10 
freq.     612.21  E(vib)   ...       0.10 
freq.     632.44  E(vib)   ...       0.09 
freq.     661.96  E(vib)   ...       0.08 
freq.     667.14  E(vib)   ...       0.08 
freq.     708.12  E(vib)   ...       0.07 
freq.     725.17  E(vib)   ...       0.06 
freq.     772.79  E(vib)   ...       0.05 
freq.     782.54  E(vib)   ...       0.05 
freq.     883.78  E(vib)   ...       0.04 
freq.    1001.07  E(vib)   ...       0.02 
freq.    1076.21  E(vib)   ...       0.02 
freq.    1126.43  E(vib)   ...       0.01 
freq.    1143.02  E(vib)   ...       0.01 
freq.    1146.14  E(vib)   ...       0.01 
freq.    1148.07  E(vib)   ...       0.01 
freq.    1163.83  E(vib)   ...       0.01 
freq.    1168.69  E(vib)   ...       0.01 
freq.    1172.51  E(vib)   ...       0.01 
freq.    1184.89  E(vib)   ...       0.01 
freq.    1193.56  E(vib)   ...       0.01 
freq.    1194.47  E(vib)   ...       0.01 
freq.    1209.62  E(vib)   ...       0.01 
freq.    1234.45  E(vib)   ...       0.01 
freq.    1235.68  E(vib)   ...       0.01 
freq.    1281.98  E(vib)   ...       0.01 
freq.    1348.01  E(vib)   ...       0.01 
freq.    1349.91  E(vib)   ...       0.01 
freq.    1397.60  E(vib)   ...       0.00 
freq.    1424.02  E(vib)   ...       0.00 
freq.    1845.94  E(vib)   ...       0.00 
freq.    3645.36  E(vib)   ...       0.00 

------------
INNER ENERGY
------------

The inner energy is: U= E(el) + E(ZPE) + E(vib) + E(rot) + E(trans)
    E(el)   - is the total energy from the electronic structure calculation
              = E(kin-el) + E(nuc-el) + E(el-el) + E(nuc-nuc)
    E(ZPE)  - the the zero temperature vibrational energy from the frequency calculation
    E(vib)  - the the finite temperature correction to E(ZPE) due to population
              of excited vibrational states
    E(rot)  - is the rotational thermal energy
    E(trans)- is the translational thermal energy

Summary of contributions to the inner energy U:
Electronic energy                ...  -1853.56977986 Eh
Zero point energy                ...      0.10680508 Eh      67.02 kcal/mol
Thermal vibrational correction   ...      0.01991814 Eh      12.50 kcal/mol
Thermal rotational correction    ...      0.00141627 Eh       0.89 kcal/mol
Thermal translational correction ...      0.00141627 Eh       0.89 kcal/mol
-----------------------------------------------------------------------
Total thermal energy                  -1853.44022410 Eh


Summary of corrections to the electronic energy:
(perhaps to be used in another calculation)
Total thermal correction                  0.02275068 Eh      14.28 kcal/mol
Non-thermal (ZPE) correction              0.10680508 Eh      67.02 kcal/mol
-----------------------------------------------------------------------
Total correction                          0.12955576 Eh      81.30 kcal/mol


--------
ENTHALPY
--------

The enthalpy is H = U + kB*T
                kB is Boltzmann's constant
Total thermal energy              ...  -1853.44022410 Eh 
Thermal Enthalpy correction       ...      0.00094421 Eh       0.59 kcal/mol
-----------------------------------------------------------------------
Total Enthalpy                    ...  -1853.43927989 Eh


Note: Only C1 symmetry has been detected, increase convergence thresholds 
      if your molecule has a higher symmetry. Symmetry factor of 1.0 is   
      used for the rotational entropy correction. 
 

Note: Rotational entropy computed according to Herzberg 
Infrared and Raman Spectra, Chapter V,1, Van Nostrand Reinhold, 1945 
Point Group:  C1, Symmetry Number:   1  
Rotational constants in cm-1:     0.017956     0.004580     0.004425 

Vibrational entropy computed according to the QRRHO of S. Grimme
Chem.Eur.J. 2012 18 9955 using a reference frequency of 100.0 cm-1


-------
ENTROPY
-------

The entropy contributions are T*S = T*(S(el)+S(vib)+S(rot)+S(trans))
     S(el)   - electronic entropy
     S(vib)  - vibrational entropy
     S(rot)  - rotational entropy
     S(trans)- translational entropy
The entropies will be listed as multiplied by the temperature to get
units of energy

Electronic entropy                ...      0.00065446 Eh      0.41 kcal/mol
Vibrational entropy               ...      0.03598620 Eh     22.58 kcal/mol
Rotational entropy                ...      0.01651029 Eh     10.36 kcal/mol
Translational entropy             ...      0.02081703 Eh     13.06 kcal/mol
-----------------------------------------------------------------------
Final entropy term                ...      0.07396797 Eh     46.42 kcal/mol

In case the symmetry of your molecule has not been determined correctly
or in case you have a reason to use a different symmetry number we print 
out the resulting rotational entropy values for sn=1,12:

 non-linear molecules -----------------------------------
|  sn= 1 | S(rot)=       0.01651029 Eh     10.36 kcal/mol|
|  sn= 2 | S(rot)=       0.01585583 Eh      9.95 kcal/mol|
|  sn= 3 | S(rot)=       0.01547300 Eh      9.71 kcal/mol|
|  sn= 4 | S(rot)=       0.01520137 Eh      9.54 kcal/mol|
|  sn= 5 | S(rot)=       0.01499069 Eh      9.41 kcal/mol|
|  sn= 6 | S(rot)=       0.01481854 Eh      9.30 kcal/mol|
|  sn= 7 | S(rot)=       0.01467300 Eh      9.21 kcal/mol|
|  sn= 8 | S(rot)=       0.01454692 Eh      9.13 kcal/mol|
|  sn= 9 | S(rot)=       0.01443571 Eh      9.06 kcal/mol|
|  sn=10 | S(rot)=       0.01433623 Eh      9.00 kcal/mol|
|  sn=11 | S(rot)=       0.01424624 Eh      8.94 kcal/mol|
|  sn=12 | S(rot)=       0.01416409 Eh      8.89 kcal/mol|
 linear molecules ---------------------------------------
|  Dinfh | S(rot)=       0.01044382 Eh      6.55 kcal/mol|
|  Cinfv | S(rot)=       0.01109828 Eh      6.96 kcal/mol|
 --------------------------------------------------------


-------------------
GIBBS FREE ENERGY
-------------------

The Gibbs free energy is G = H - T*S

Total enthalpy                    ...  -1853.43927989 Eh 
Total entropy correction          ...     -0.07396797 Eh    -46.42 kcal/mol
-----------------------------------------------------------------------
Final Gibbs free energy         ...  -1853.51324786 Eh

For completeness - the Gibbs free energy minus the electronic energy
G-E(el)                           ...      0.05653200 Eh     35.47 kcal/mol


Maximum memory used throughout the entire PROP-calculation: 546.6 MB

--------------------------------
SUGGESTED CITATIONS FOR THIS RUN
--------------------------------

Below you find a list of papers that are relevant to this ORCA run
We neither can nor want to force you to cite these papers, but we appreciate if you do
You receive ORCA, which is the product of decades of hard work by many enthusiastic individuals, for free
The only thing we kindly ask in return is that you cite our papers,
We deeply appreciate it, if you show your appreciation for ORCA by not just citing the generic ORCA reference.

Please note that relegating all ORCA citations to the supporting information does *not* help us.
SI sections are not indexed - citations you put there will not count into any citation statistics
But we need these citations in order to attract the funding resources that allow us to do what we are doing

Therefore, if you are a happy ORCA user, please consider citing a few of the papers listed below in the main body of your paper

In addition to the list printed below, the program has created the file rf_mecn_freq_r2s_C4_P_B.bibtex that contains the list in bibtex format
You can import this file easily into all common literature databanks and citation aid programs


List of essential papers. We consider these as the minimum necessary citations

  1. Neese,F.
     Software update: the ORCA program system, version 5.0
     WIRES Comput. Molec. Sci., 2022 12(1)e1606
     doi.org/10.1002/wcms.1606

List of papers to cite with high priority. The work reported in these papers was absolutely
necessary for this run to complete.
Our perspective: the developers of density functionals and basis sets usually get cited in chemistry papers
Good! But without the algorithms to do something with them, the functionals or basis sets would not do anything.
Hence, in our opinion, the algorithm design and method developments papers are equally worthy of getting cited

  1. Neese,F.
     An improvement of the resolution of the identity approximation for the formation of the Coulomb matrix
     J. Comp. Chem., 2003 24(14)1740-1747
     doi.org/10.1002/jcc.10318
  2. Neese,F.; Wennmohs,F.; Hansen,A.; Becker,U.
     Efficient, approximate and parallel Hartree-Fock and hybrid DFT calculations. A 'chain-of-spheres' algorithm for the Hartree-Fock exchange
     Chem. Phys., 2009 356(1-3)98-109
     doi.org/10.1016/j.chemphys.2008.10.036
  3. Bykov,D.; Petrenko,T.; Izsak,R.; Kossmann,S.; Becker,U.; Valeev,E.; Neese,F.
     Efficient implementation of the analytic second derivatives of Hartree-Fock and hybrid DFT energies: a detailed analysis of different approximations
     Molec. Phys., 2015 113 1961-1977
     doi.org/10.1080/00268976.2015.1025114
  4. Garcia-Rates,M.; Neese,F.
     Efficient implementation of the analytical second derivatives of hartree-fock and hybrid DFT energies within the framework of the conductor-like polarizable continuum model
     J. Comput. Chem., 2019 40 1816-1828
     doi.org/10.1002/jcc.25833
  5. Garcia-Rates,M.; Neese,F.
     Effect of the Solute Cavity on the Solvation Energy and its Derivatives within the Framework of the Gaussian Charge Scheme
     J. Comput. Chem., 2020 41 922-939
     doi.org/10.1002/jcc.26139
  6. Helmich-Paris,B.; de Souza,B.; Neese,F.; Izsák,R.
     An improved chain of spheres for exchange algorithm
     J. Chem. Phys., 2021 155 104109
     doi.org/doi: 10.1063/5.0058766.
  7. Neese,F.
     The SHARK Integral Generation and Digestion System
     J. Comp. Chem., 2022  1-16
     doi.org/10.1002/jcc.26942
  8. Lehtola,S.; Steigemann,C.; Oliveira,M.; Marques,M.
     Recent developments in Libxc - A comprehensive library of functionals for density functional theory
     Software X, 2018 7 
     doi.org/10.1016/j.softx.2017.11.002
  9. Grimme,S.; Antony,J.; Ehrlich,S.; Krieg,H.
     A consistent and accurate ab initio parametrization of density functional dispersion correction (DFT-D) for the 94 elements H-Pu
     J. Chem. Phys., 2010 132 154104
     doi.org/10.1063/1.3382344
 10. Grimme,S.; Ehrlich,S.; Goerigk,L.
     Effect of the damping function in dispersion corrected density functional theory
     J. Comput. Chem., 2011 32(7)1456-1465
     doi.org/10.1002/jcc.21759
 11. Bursch,M.; Neugebauer,H.; Ehlert,S.; Grimme,S.
     Dispersion corrected r2SCAN based global hybrid functionals: r2SCANh, r2SCAN0, and r2SCAN50
     J. Phys. Chem., 2022 156(13)134105
     doi.org/10.1063/5.0086040

List of suggested additional citations. These are papers that are important in the 'surrounding' of 
of this run, or papers that preceded the highly important papers. If you like your results we are grateful for a citation.

  1. Izsak,R.; Neese,F.
     An overlap fitted chain of spheres exchange method
     J. Chem. Phys., 2011 135 144105
     doi.org/10.1063/1.3646921
  2. Izsak,R.; Hansen,A.; Neese,F.
     The resolution of identity and chain of spheres approximations for the LPNO-CCSD singles Fock term
     Molec. Phys., 2012 110 2413-2417
     doi.org/10.1080/00268976.2012.687466
  3. Neese,F.
     The ORCA program system
     WIRES Comput. Molec. Sci., 2012 2(1)73-78
     doi.org/10.1002/wcms.81
  4. Izsak,R.; Neese,F.; Klopper,W.
     Robust fitting techniques in the chain of spheres approximation to the Fock exchange: The role of the complementary space
     J. Chem. Phys., 2013 139 
     doi.org/10.1063/1.4819264
  5. Neese,F.
     Software update: the ORCA program system, version 4.0
     WIRES Comput. Molec. Sci., 2018 8(1)1-6
     doi.org/10.1002/wcms.1327
  6. Neese,F.; Wennmohs,F.; Becker,U.; Riplinger,C.
     The ORCA quantum chemistry program package
     J. Chem. Phys., 2020 152 Art. No. L224108
     doi.org/10.1063/5.0004608
  7. Wittmann,L.; Neugebauer,H.; Grimme,S.; Bursch,M.
     Dispersion-corrected r2SCAN based double-hybrid functionals
     J. Chem. Phys., 2023 159(22)224103
     doi.org/10.1063/5.0174988

List of optional additional citations

  1. Neese,F.
     Approximate second-order SCF convergence for spin unrestricted wavefunctions
     Chem. Phys. Lett., 2000 325(1-3)93-98
     doi.org/10.1016/s0009-2614(00)00662-x

Timings for individual modules:

Sum of individual times          ...     1496.378 sec (=  24.940 min)
Startup calculation              ...        3.809 sec (=   0.063 min)   0.3 %
SCF iterations                   ...       89.898 sec (=   1.498 min)   6.0 %
Property integrals               ...      454.893 sec (=   7.582 min)  30.4 %
SCF Response                     ...      661.903 sec (=  11.032 min)  44.2 %
Property calculations            ...      285.875 sec (=   4.765 min)  19.1 %
                             ****ORCA TERMINATED NORMALLY****
TOTAL RUN TIME: 0 days 0 hours 24 minutes 57 seconds 166 msec
