
                                 *****************
                                 * O   R   C   A *
                                 *****************

                                            #,                                       
                                            ###                                      
                                            ####                                     
                                            #####                                    
                                            ######                                   
                                           ########,                                 
                                     ,,################,,,,,                         
                               ,,#################################,,                 
                          ,,##########################################,,             
                       ,#########################################, ''#####,          
                    ,#############################################,,   '####,        
                  ,##################################################,,,,####,       
                ,###########''''           ''''###############################       
              ,#####''   ,,,,##########,,,,          '''####'''          '####       
            ,##' ,,,,###########################,,,                        '##       
           ' ,,###''''                  '''############,,,                           
         ,,##''                                '''############,,,,        ,,,,,,###''
      ,#''                                            '''#######################'''  
     '                                                          ''''####''''         
             ,#######,   #######,   ,#######,      ##                                
            ,#'     '#,  ##    ##  ,#'     '#,    #''#        ,####,   ,####,        
            ##       ##  ##   ,#'  ##            #'  '#       #'       #'  '#        
            ##       ##  #######   ##           ,######,      #####,   #    #        
            '#,     ,#'  ##    ##  '#,     ,#' ,#      #,     #,   #   #,  ,#        
             '#######'   ##     ##  '#######'  #'      '#     '####' # '####'        



                #########################################################
                #                        -***-                          #
                #          Department of theory and spectroscopy        #
                #                                                       #
                #                      Frank Neese                      #
                #                                                       #
                #     Directorship, Architecture, Infrastructure        #
                #                    SHARK, DRIVERS                     #
                #        Core code/Algorithms in most modules           #
                #                                                       #
                #        Max Planck Institute fuer Kohlenforschung      #
                #                Kaiser Wilhelm Platz 1                 #
                #                 D-45470 Muelheim/Ruhr                 #
                #                      Germany                          #
                #                                                       #
                #                  All rights reserved                  #
                #                        -***-                          #
                #########################################################


                         Program Version 6.0.1  -  RELEASE   -


 With contributions from (in alphabetic order):
[Max-Planck-Institut fuer Kohlenforschung]                               
  Daniel Aravena         : Magnetic Suceptibility                        
  Michael Atanasov       : Ab Initio Ligand Field Theory (pilot matlab implementation)
  Alexander A. Auer      : GIAO ZORA, VPT2 properties, NMR spectrum      
  Ute Becker             : All parallelization in ORCA, NUMFREQ, NUMCALC 
  Giovanni Bistoni       : ED, misc. LED, open-shell LED, HFLD           
  Martin Brehm           : Molecular dynamics                            
  Dmytro Bykov           : pre 5.0 version of the SCF Hessian            
  Marcos Casanova-Páez   : Triplet and SCS-CIS(D). UHF-(DLPNO)-IP/EA/STEOM-CCSD. UHF-CVS-IP/STEOM-CCSD   
  Vijay G. Chilkuri      : MRCI spin determinant printing, contributions to CSF-ICE 
  Pauline Colinet        : FMM embedding                                 
  Dipayan Datta          : RHF DLPNO-CCSD density                        
  Achintya Kumar Dutta   : EOM-CC, STEOM-CC                              
  Nicolas Foglia         : Exact transition moments, OPA infrastructure, MCD improvements    
  Dmitry Ganyushin       : Spin-Orbit,Spin-Spin,Magnetic field MRCI      
  Miquel Garcia-Rates    : C-PCM and meta-GGA Hessian, CCSD/C-PCM, Gaussian charge scheme 
  Tiago L. C. Gouveia    : GS-ROHF, GS-ROCIS                             
  Yang Guo               : DLPNO-NEVPT2, F12-NEVPT2, CIM, IAO-localization        
  Andreas Hansen         : Spin unrestricted coupled pair/coupled cluster methods 
  Ingolf Harden          : AUTO-CI MPn and infrastructure                
  Benjamin Helmich-Paris : MC-RPA, TRAH-(SCF,CASSCF), AVAS, COSX integrals, SCF dyn. polar. 
  Lee Huntington         : MR-EOM, pCC                                   
  Robert Izsak           : Overlap fitted RIJCOSX, COSX-SCS-MP3, EOM     
  Riya Kayal             : Wick's Theorem for AUTO-CI, AUTO-CI UHF-CCSDT 
  Emily Kempfer          : AUTO-CI, RHF CISDT and CCSDT                  
  Christian Kollmar      : KDIIS, OOCD, Brueckner-CCSD(T), CCSD density, CASPT2, CASPT2-K, improved NEVPT2 
  Axel Koslowski         : Symmetry handling                             
  Simone Kossmann        : meta-GGA functionals, TD-DFT gradient, OOMP2, (MP2 Hessian; deprecated post 5.0) 
  Lucas Lang             : DCDCAS                                        
  Marvin Lechner         : AUTO-CI (C++ implementation), FIC-MRCC        
  Spencer Leger          : CASSCF response                               
  Dagmar Lenk            : GEPOL surface, SMD, ORCA-2-JSON               
  Dimitrios Liakos       : Extrapolation schemes; Compound Job, initial MDCI parallelization 
  Dimitrios Manganas     : Further ROCIS development; embedding schemes. LFT, Crystal Embedding 
  Dimitrios Pantazis     : SARC Basis sets                               
  Anastasios Papadopoulos: AUTO-CI, single reference methods and gradients 
  Taras Petrenko         : pre 6.0 DFT Hessian and TD-DFT gradient, (ASA, deprecated), ECA, 1-Electron XAS/XES, NRVS 
  Peter Pinski           : DLPNO-MP2, DLPNO-MP2 Gradient                 
  Christoph Reimann      : Effective Core Potentials                     
  Marius Retegan         : Local ZFS, SOC                                
  Christoph Riplinger    : Optimizer, TS searches, QM/MM, DLPNO-CCSD(T), (RO)-DLPNO pert. Triples 
  Michael Roemelt        : Original ROCIS implementation                 
  Masaaki Saitow         : Open-shell DLPNO-CCSD energy and density      
  Barbara Sandhoefer     : DKH picture change effects                    
  Kantharuban Sivalingam : CASSCF convergence/infrastructure, NEVPT2 and variants, FIC-MRCI 
  Bernardo de Souza      : ESD, SOC TD-DFT                               
  Georgi L. Stoychev     : AutoAux, RI-MP2 NMR, DLPNO-MP2 response, X2C  
  Van Anh Tran           : RI-MP2 g-tensors                              
  Willem Van den Heuvel  : Paramagnetic NMR                              
  Zikuan Wang            : NOTCH, Electric field optimization            
  Frank Wennmohs         : Technical directorship and infrastructure     
  Hang Xu                : AUTO-CI-Response properties                   
                                                                         
[FACCTs GmbH]                                                            
  Markus Bursch, Miquel Garcia-Rates, Christoph Riplinger, Bernardo de Souza, Georgi L. Stoychev 
                                                                 
  APM, Basis sets (HGBS, AHGBS, def-TZVP (Ac-Lr), def2-XVPD (La-Lu)), CI-OPT, improved COSX, DLPNO-Multilevel,           
  DOCKER, DRACO, updates on ESD, GOAT, IRC, LR-CPCM, MBIS, meta-GGA TD-DFT gradient, ML-optimized integration grids, 
  MM, NACMEs, nearIR, NEB, NEB-TS, NL-DFT gradient (VV10), 2- and 3-layer-ONIOM, interface openCOSMO-RS, QMMM,   
  Crystal-QMMM, SF, symmetry and pop. for TD-DFT, r2SCAN hybrids, SOLVATOR                                   
                                                                         
[Other institutions]                                                     
  V. Asgeirsson          : NEB                                           
  Christoph Bannwarth    : sTDA-DFT, sTD-DFT, PBEh-3c, B97-3c, D3        
  Sebastian Ehlert       : rSCAN, r2SCAN, r2SCAN-3c, D4, dhf basis sets  
  Marvin Friede          : D4 for Fr, Ra, Ac-Lr                          
  Lars Goerigk           : TD-DFT with DH, B97 family of functionals     
  Stefan Grimme          : VdW corrections, initial TS optimization, DFT functionals, gCP, sTDA/sTD-DF 
  Waldemar Hujo          : DFT-NL                                        
  H. Jonsson             : NEB                                           
  Holger Kruse           : gCP                                           
  Marcel Mueller         : wB97X-3c, vDZP basis set                      
  Hagen Neugebauer       : wr2SCAN                                       
  Tobias Risthaus        : range-separated hybrid DFT                    
  Lukas Wittmann         : regularized MP2, r2SCAN double-hybrids, wr2SCAN        
                                                                         
We gratefully acknowledge several colleagues who have allowed us to      
interface, adapt or use parts of their codes:                            
  Ed Valeev, F. Pavosevic, A. Kumar             : LibInt (2-el integral package), F12 methods 
  Garnet Chan, S. Sharma, J. Yang, R. Olivares  : DMRG                   
  Ulf Ekstrom                                   : XCFun DFT Library      
  Mihaly Kallay                                 : mrcc  (arbitrary order and MRCC methods)
  Frank Weinhold                                : gennbo (NPA and NBO analysis)           
  Simon Mueller                                 : openCOSMO-RS                            
  Christopher J. Cramer and Donald G. Truhlar   : smd solvation model                     
  S Lehtola, MJT Oliveira, MAL Marques          : LibXC Library                           
  Liviu Ungur et al                             : ANISO software                          


 Your calculation uses the libint2 library for the computation of 2-el integrals
 For citations please refer to: http://libint.valeyev.net

 Your ORCA version has been built with support for libXC version: 6.2.2
 For citations please refer to: https://libxc.gitlab.io

 This ORCA versions uses:
   CBLAS   interface :  Fast vector & matrix operations
   LAPACKE interface :  Fast linear algebra routines
   SCALAPACK package :  Parallel linear algebra routines
   Shared memory     :  Shared parallel matrices
   BLAS/LAPACK       :  OpenBLAS 0.3.27  USE64BITINT DYNAMIC_ARCH NO_AFFINITY SkylakeX SINGLE_THREADED
        Core in use  :  SkylakeX
   Copyright (c) 2011-2014, The OpenBLAS Project


NOTE: MaxCore=8000 MB was set to SCF,MP2,MDCI,CIPSI,MRCI and CIS
      => If you want to overwrite this, your respective input block should be placed after the MaxCore statement
Your calculation utilizes the atom-pairwise dispersion correction
with the Becke-Johnson damping scheme (D3BJ)


Your calculation utilizes the SMD solvation module
Please cite in your paper:
A.V. Marenich, C.J. Cramer, D.G. Truhlar J. Phys. Chem. B, 113, (2009), 6378 

Warning: RI is on but no J-basis has been assigned. Assigning Def2/J (nothing to worry about!)
================================================================================

----- Orbital basis set information -----
Your calculation utilizes the basis: def2-TZVP
   F. Weigend and R. Ahlrichs, Phys. Chem. Chem. Phys. 7, 3297 (2005).

----- AuxJ basis set information -----
Your calculation utilizes the auxiliary basis: def2/J
   F. Weigend, Phys. Chem. Chem. Phys. 8, 1057 (2006).

================================================================================
                                        WARNINGS
                       Please study these warnings very carefully!
================================================================================



WARNING: SCAN, rSCAN, or r2SCAN functional requested.
  ===> : libXC variant has now been activated.



WARNING: your system is open-shell and RHF/RKS was chosen
  ===> : WILL SWITCH to UHF/UKS


WARNING: Geometry Optimization
  ===> : Switching off AutoStart
         For restart on a previous wavefunction, please use MOREAD

================================================================================
                                       INPUT FILE
================================================================================
NAME = rf_mecn_opt_r2s_C3_P_B.inp
|  1> !r2scanh def2-TZVP opt d3 TightSCF SlowConv defgrid2
|  2>  
|  3> %pal
|  4> nprocs 20
|  5> end
|  6>  
|  7> %scf
|  8> MaxIter 1500
|  9> end
| 10>  
| 11> %maxcore 8000
| 12>  
| 13> !CPCM
| 14> %cpcm smd true
| 15> SMDsolvent "ACETONITRILE"
| 16> end
| 17>  
| 18> * xyz 0 2
| 19> 6        4.790427000     -0.033865800     -0.529943200
| 20> 8        5.449345000     -1.206924000     -0.894594600
| 21> 8        4.978223000      1.323071000     -0.737377200
| 22> 6        3.506687600     -0.338741600      0.376153800
| 23> 6        2.222300000      0.400524800     -0.110681600
| 24> 6        0.900506800     -0.386389800      0.175703000
| 25> 6       -0.395261200      0.487294000      0.065549000
| 26> 6       -1.705693600     -0.364773800     -0.068373600
| 27> 6       -3.005136200      0.445344800      0.258164000
| 28> 6       -4.319880200     -0.214526000     -0.270540800
| 29> 9        3.211587400     -1.692050400      0.412735200
| 30> 9        3.741061800      0.055285800      1.689948800
| 31> 9        2.314152400      0.589704000     -1.455769200
| 32> 9        0.794028800     -1.413561400     -0.700839000
| 33> 9        0.958350600     -0.884509000      1.435093400
| 34> 9       -0.498373400      1.260265600      1.173340200
| 35> 9       -0.299075000      1.289512600     -1.020910800
| 36> 9       -1.641790400     -1.418189000      0.779523800
| 37> 9       -1.792381400     -0.831391600     -1.336863600
| 38> 9       -2.918792200      1.679227200     -0.295171200
| 39> 9       -3.119771000      0.573779800      1.598579800
| 40> 9       -4.383115600     -1.504377600      0.089127600
| 41> 9       -5.365669800      0.430528600      0.260394200
| 42> 9       -4.396020400     -0.128550600     -1.602941800
| 43> 1        5.903122371     -2.014774547     -1.145719253
| 44> *
| 45> 
| 46>                          ****END OF INPUT****
================================================================================

                       *****************************
                       * Geometry Optimization Run *
                       *****************************

Geometry optimization settings:
Update method            Update   .... BFGS
Choice of coordinates    CoordSys .... (2022) Redundant Internals
Initial Hessian          InHess   .... Almloef's Model
Max. no of cycles        MaxIter  .... 75

Convergence Tolerances:
Energy Change            TolE     ....  5.0000e-06 Eh
Max. Gradient            TolMAXG  ....  3.0000e-04 Eh/bohr
RMS Gradient             TolRMSG  ....  1.0000e-04 Eh/bohr
Max. Displacement        TolMAXD  ....  4.0000e-03 bohr
RMS Displacement         TolRMSD  ....  2.0000e-03 bohr
Strict Convergence                .... False

------------------------------------------------------------------------------
                        ORCA OPTIMIZATION COORDINATE SETUP
------------------------------------------------------------------------------

The optimization will be done in redundant internal coordinates (2022)
Making redundant internal coordinates   ...  (2022 redundants) done
Evaluating the initial hessian          ...  (Almloef) done
Evaluating the coordinates              ...  done
Calculating the B-matrix                .... done
Calculating the G-matrix                .... done
Diagonalizing the G-matrix              .... done
Small eigenvalue found = 4.663e-03
Small eigenvalue found = 1.280e-02
Small eigenvalue found = 2.840e-02
Small eigenvalue found = 2.945e-02
The first mode is                       ....   39
The number of degrees of freedom        ....   69

    -----------------------------------------------------------------
                    Redundant Internal Coordinates


    -----------------------------------------------------------------
         Definition                    Initial Value    Approx d2E/dq
    -----------------------------------------------------------------
      1. B(O   1,C   0)                  1.3940         0.551454   
      2. B(O   2,C   0)                  1.3855         0.568952   
      3. B(C   3,C   0)                  1.6006         0.288221   
      4. B(C   4,C   3)                  1.5599         0.334759   
      5. B(C   5,C   4)                  1.5647         0.328824   
      6. B(C   6,C   5)                  1.5667         0.326486   
      7. B(C   7,C   6)                  1.5688         0.323927   
      8. B(C   8,C   7)                  1.5657         0.327637   
      9. B(C   9,C   8)                  1.5632         0.330714   
     10. B(F  10,C   3)                  1.3856         0.528443   
     11. B(F  11,C   3)                  1.3915         0.517117   
     12. B(F  12,C   4)                  1.3614         0.577499   
     13. B(F  13,C   5)                  1.3545         0.592326   
     14. B(F  14,C   5)                  1.3556         0.590092   
     15. B(F  15,C   6)                  1.3547         0.591865   
     16. B(F  16,C   6)                  1.3540         0.593567   
     17. B(F  17,C   7)                  1.3538         0.593973   
     18. B(F  18,C   7)                  1.3544         0.592672   
     19. B(F  19,C   8)                  1.3550         0.591238   
     20. B(F  20,C   8)                  1.3514         0.599114   
     21. B(F  21,C   9)                  1.3406         0.623533   
     22. B(F  22,C   9)                  1.3385         0.628179   
     23. B(F  23,C   9)                  1.3373         0.630929   
     24. B(H  24,O   1)                  0.9600         0.519956   
     25. A(O   1,C   0,O   2)          136.1318         0.413163   
     26. A(O   1,C   0,C   3)          111.5249         0.369222   
     27. A(O   2,C   0,C   3)          112.3347         0.371210   
     28. L(C   0,O   1,H  24,C   3, 2) 180.0000         0.362759   
     29. L(C   0,O   1,H  24,C   3, 1) 180.0000         0.362759   
     30. A(F  10,C   3,F  11)          106.7094         0.399684   
     31. A(C   0,C   3,F  11)          110.2099         0.363632   
     32. A(C   0,C   3,C   4)          113.1687         0.341363   
     33. A(C   4,C   3,F  11)          107.4072         0.373095   
     34. A(C   4,C   3,F  10)          107.2033         0.374492   
     35. A(C   0,C   3,F  10)          111.8265         0.364982   
     36. A(C   3,C   4,F  12)          108.5818         0.380286   
     37. A(C   3,C   4,C   5)          113.5839         0.349005   
     38. A(C   5,C   4,F  12)          107.9208         0.379109   
     39. A(F  13,C   5,F  14)          109.0206         0.417483   
     40. A(C   6,C   5,F  14)          107.7906         0.380059   
     41. A(C   4,C   5,F  14)          108.5900         0.380529   
     42. A(C   6,C   5,F  13)          108.2026         0.380308   
     43. A(C   4,C   5,F  13)          109.2282         0.380779   
     44. A(C   4,C   5,C   6)          113.9128         0.347536   
     45. A(C   5,C   6,C   7)          113.2023         0.346660   
     46. A(F  15,C   6,F  16)          108.8752         0.417862   
     47. A(C   7,C   6,F  16)          108.2186         0.379927   
     48. A(C   5,C   6,F  16)          109.1523         0.380446   
     49. A(C   7,C   6,F  15)          108.4284         0.379738   
     50. A(C   5,C   6,F  15)          108.8835         0.380256   
     51. A(C   8,C   7,F  18)          108.6915         0.380579   
     52. A(C   6,C   7,F  18)          108.6955         0.379828   
     53. A(C   8,C   7,F  17)          108.1296         0.380723   
     54. A(F  17,C   7,F  18)          108.7561         0.418014   
     55. A(C   6,C   7,F  17)          109.2524         0.379972   
     56. A(C   6,C   7,C   8)          113.2298         0.346865   
     57. A(F  19,C   8,F  20)          108.8987         0.418476   
     58. A(C   7,C   8,C   9)          114.1471         0.348078   
     59. A(C   9,C   8,F  20)          107.7127         0.381912   
     60. A(C   7,C   8,F  20)          109.0521         0.381293   
     61. A(C   9,C   8,F  19)          107.4499         0.381036   
     62. A(C   7,C   8,F  19)          109.4572         0.380419   
     63. A(F  22,C   9,F  23)          108.6464         0.426961   
     64. A(F  21,C   9,F  23)          109.0552         0.426394   
     65. A(C   8,C   9,F  23)          110.9604         0.385362   
     66. A(F  21,C   9,F  22)          108.6877         0.426061   
     67. A(C   8,C   9,F  22)          108.6349         0.385069   
     68. A(C   8,C   9,F  21)          110.7995         0.384572   
     69. D(C   4,C   3,C   0,O   2)     49.8076         0.006601   
     70. D(C   4,C   3,C   0,O   1)   -131.0839         0.006601   
     71. D(F  10,C   3,C   0,O   2)    171.0025         0.006601   
     72. D(F  10,C   3,C   0,O   1)     -9.8890         0.006601   
     73. D(F  11,C   3,C   0,O   1)    108.6317         0.006601   
     74. D(F  11,C   3,C   0,O   2)    -70.4768         0.006601   
     75. D(C   5,C   4,C   3,C   0)    148.6429         0.008543   
     76. D(F  12,C   4,C   3,C   0)     28.5784         0.008543   
     77. D(F  12,C   4,C   3,F  10)    -95.1911         0.008543   
     78. D(C   5,C   4,C   3,F  10)     24.8733         0.008543   
     79. D(C   5,C   4,C   3,F  11)    -89.4885         0.008543   
     80. D(F  13,C   5,C   4,C   3)    -74.9661         0.008276   
     81. D(C   6,C   5,C   4,F  12)    -75.6292         0.008276   
     82. D(F  13,C   5,C   4,F  12)     45.4721         0.008276   
     83. D(C   6,C   5,C   4,C   3)    163.9326         0.008276   
     84. D(F  14,C   5,C   4,C   3)     43.8158         0.008276   
     85. D(F  15,C   6,C   5,F  14)     44.2190         0.008700   
     86. D(F  15,C   6,C   5,F  13)    161.9826         0.008700   
     87. D(F  15,C   6,C   5,C   4)    -76.3465         0.008700   
     88. D(C   7,C   6,C   5,F  14)    -76.4529         0.008700   
     89. D(C   7,C   6,C   5,F  13)     41.3107         0.008700   
     90. D(C   7,C   6,C   5,C   4)    162.9815         0.008700   
     91. D(F  17,C   7,C   6,F  16)    162.9167         0.008578   
     92. D(F  17,C   7,C   6,F  15)    -79.1358         0.008578   
     93. D(F  17,C   7,C   6,C   5)     41.7939         0.008578   
     94. D(C   8,C   7,C   6,F  16)    -76.5134         0.008578   
     95. D(C   8,C   7,C   6,F  15)     41.4341         0.008578   
     96. D(C   8,C   7,C   6,C   5)    162.3638         0.008578   
     97. D(C   9,C   8,C   7,F  18)     41.5227         0.008755   
     98. D(C   9,C   8,C   7,F  17)    -76.3785         0.008755   
     99. D(C   9,C   8,C   7,C   6)    162.4166         0.008755   
    100. D(F  19,C   8,C   7,F  18)    -78.9355         0.008755   
    101. D(F  19,C   8,C   7,F  17)    163.1633         0.008755   
    102. D(F  19,C   8,C   7,C   6)     41.9584         0.008755   
    103. D(F  22,C   9,C   8,F  20)     48.1091         0.008903   
    104. D(F  22,C   9,C   8,F  19)    -69.0724         0.008903   
    105. D(F  22,C   9,C   8,C   7)    169.3552         0.008903   
    106. D(F  21,C   9,C   8,F  20)    -71.2185         0.008903   
    107. D(F  21,C   9,C   8,F  19)    171.5999         0.008903   
    108. D(F  21,C   9,C   8,C   7)     50.0276         0.008903   
    -----------------------------------------------------------------

Number of atoms                         .... 25
Number of degrees of freedom            .... 108


         *************************************************************
         *                GEOMETRY OPTIMIZATION CYCLE   1            *
         *************************************************************
---------------------------------
CARTESIAN COORDINATES (ANGSTROEM)
---------------------------------
  C      4.790427   -0.033866   -0.529943
  O      5.449345   -1.206924   -0.894595
  O      4.978223    1.323071   -0.737377
  C      3.506688   -0.338742    0.376154
  C      2.222300    0.400525   -0.110682
  C      0.900507   -0.386390    0.175703
  C     -0.395261    0.487294    0.065549
  C     -1.705694   -0.364774   -0.068374
  C     -3.005136    0.445345    0.258164
  C     -4.319880   -0.214526   -0.270541
  F      3.211587   -1.692050    0.412735
  F      3.741062    0.055286    1.689949
  F      2.314152    0.589704   -1.455769
  F      0.794029   -1.413561   -0.700839
  F      0.958351   -0.884509    1.435093
  F     -0.498373    1.260266    1.173340
  F     -0.299075    1.289513   -1.020911
  F     -1.641790   -1.418189    0.779524
  F     -1.792381   -0.831392   -1.336864
  F     -2.918792    1.679227   -0.295171
  F     -3.119771    0.573780    1.598580
  F     -4.383116   -1.504378    0.089128
  F     -5.365670    0.430529    0.260394
  F     -4.396020   -0.128551   -1.602942
  H      5.903122   -2.014775   -1.145719

----------------------------
CARTESIAN COORDINATES (A.U.)
----------------------------
  NO LB      ZA    FRAG     MASS         X           Y           Z
   0 C     6.0000    0    12.011    9.052595   -0.063997   -1.001448
   1 O     8.0000    0    15.999   10.297770   -2.280756   -1.690539
   2 O     8.0000    0    15.999    9.407478    2.500242   -1.393441
   3 C     6.0000    0    12.011    6.626679   -0.640129    0.710828
   4 C     6.0000    0    12.011    4.199538    0.756882   -0.209158
   5 C     6.0000    0    12.011    1.701711   -0.730171    0.332031
   6 C     6.0000    0    12.011   -0.746935    0.920852    0.123870
   7 C     6.0000    0    12.011   -3.223294   -0.689323   -0.129207
   8 C     6.0000    0    12.011   -5.678884    0.841580    0.487859
   9 C     6.0000    0    12.011   -8.163391   -0.405395   -0.511248
  10 F     9.0000    0    18.998    6.069021   -3.197512    0.779956
  11 F     9.0000    0    18.998    7.069582    0.104475    3.193540
  12 F     9.0000    0    18.998    4.373114    1.114379   -2.751005
  13 F     9.0000    0    18.998    1.500497   -2.671244   -1.324394
  14 F     9.0000    0    18.998    1.811020   -1.671480    2.711934
  15 F     9.0000    0    18.998   -0.941789    2.381557    2.217292
  16 F     9.0000    0    18.998   -0.565170    2.436826   -1.929242
  17 F     9.0000    0    18.998   -3.102534   -2.679989    1.473086
  18 F     9.0000    0    18.998   -3.387110   -1.571102   -2.526306
  19 F     9.0000    0    18.998   -5.515718    3.173280   -0.557793
  20 F     9.0000    0    18.998   -5.895513    1.084287    3.020878
  21 F     9.0000    0    18.998   -8.282888   -2.842862    0.168427
  22 F     9.0000    0    18.998  -10.139646    0.813581    0.492074
  23 F     9.0000    0    18.998   -8.307275   -0.242925   -3.029121
  24 H     1.0000    0     1.008   11.155285   -3.807372   -2.165096

--------------------------------
INTERNAL COORDINATES (ANGSTROEM)
--------------------------------
 C      0   0   0     0.000000000000     0.00000000     0.00000000
 O      1   0   0     1.393990356793     0.00000000     0.00000000
 O      1   2   0     1.385486802956   136.13177198     0.00000000
 C      1   2   3     1.600608594862   111.52489317   181.18992567
 C      4   1   2     1.559863783763   113.16872737   228.91614990
 C      5   4   1     1.564732561934   113.58394786   148.64287440
 C      6   5   4     1.566675459667   113.91280616   163.93256239
 C      7   6   5     1.568817348692   113.20226571   162.98152714
 C      8   7   6     1.565717094808   113.22984595   162.36375422
 C      9   8   7     1.563173062643   114.14707705   162.41661495
 F      4   1   2     1.385592665621   111.82651119   350.11101305
 F      4   1   2     1.391490625050   110.20991618   108.63170802
 F      5   4   1     1.361428031433   108.58179722    28.57841973
 F      6   5   4     1.354527570075   109.22822656   285.03385927
 F      6   5   4     1.355556277776   108.59004089    43.81583148
 F      7   6   5     1.354739297058   108.88346185   283.65347401
 F      7   6   5     1.353957667090   109.15230848    42.38718856
 F      8   7   6     1.353771473879   109.25240264    41.79387651
 F      8   7   6     1.354368423305   108.69554158   283.25540020
 F      9   8   7     1.355028009646   109.45719767    41.95842364
 F      9   8   7     1.351425618925   109.05210362   282.91820052
 F     10   9   8     1.340551089588   110.79953142    50.02756898
 F     10   9   8     1.338530275591   108.63493714   169.35523750
 F     10   9   8     1.337341214598   110.96044107   288.72891896
 H      2   1   3     0.960000000033   180.00000000     0.00000000

---------------------------
INTERNAL COORDINATES (A.U.)
---------------------------
 C      0   0   0     0.000000000000     0.00000000     0.00000000
 O      1   0   0     2.634260007667     0.00000000     0.00000000
 O      1   2   0     2.618190619750   136.13177198     0.00000000
 C      1   2   3     3.024711891890   111.52489317   181.18992567
 C      4   1   2     2.947715357535   113.16872737   228.91614990
 C      5   4   1     2.956916014884   113.58394786   148.64287440
 C      6   5   4     2.960587559506   113.91280616   163.93256239
 C      7   6   5     2.964635143173   113.20226571   162.98152714
 C      8   7   6     2.958776512386   113.22984595   162.36375422
 C      9   8   7     2.953968988318   114.14707705   162.41661495
 F      4   1   2     2.618390671194   111.82651119   350.11101305
 F      4   1   2     2.629536199263   110.20991618   108.63170802
 F      5   4   1     2.572726130452   108.58179722    28.57841973
 F      6   5   4     2.559686148288   109.22822656   285.03385927
 F      6   5   4     2.561630124115   108.59004089    43.81583148
 F      7   6   5     2.560086254300   108.88346185   283.65347401
 F      7   6   5     2.558609187723   109.15230848    42.38718856
 F      8   7   6     2.558257333546   109.25240264    41.79387651
 F      8   7   6     2.559385404477   108.69554158   283.25540020
 F      9   8   7     2.560631842023   109.45719767    41.95842364
 F      9   8   7     2.553824310132   109.05210362   282.91820052
 F     10   9   8     2.533274427850   110.79953142    50.02756898
 F     10   9   8     2.529455642830   108.63493714   169.35523750
 F     10   9   8     2.527208643196   110.96044107   288.72891896
 H      2   1   3     1.814137088628   180.00000000     0.00000000

---------------------
BASIS SET INFORMATION
---------------------
There are 4 groups of distinct atoms

 Group   1 Type C   : 11s6p2d1f contracted to 5s3p2d1f pattern {62111/411/11/1}
 Group   2 Type O   : 11s6p2d1f contracted to 5s3p2d1f pattern {62111/411/11/1}
 Group   3 Type F   : 11s6p2d1f contracted to 5s3p2d1f pattern {62111/411/11/1}
 Group   4 Type H   : 5s1p contracted to 3s1p pattern {311/1}

Atom   0C    basis set group =>   1
Atom   1O    basis set group =>   2
Atom   2O    basis set group =>   2
Atom   3C    basis set group =>   1
Atom   4C    basis set group =>   1
Atom   5C    basis set group =>   1
Atom   6C    basis set group =>   1
Atom   7C    basis set group =>   1
Atom   8C    basis set group =>   1
Atom   9C    basis set group =>   1
Atom  10F    basis set group =>   3
Atom  11F    basis set group =>   3
Atom  12F    basis set group =>   3
Atom  13F    basis set group =>   3
Atom  14F    basis set group =>   3
Atom  15F    basis set group =>   3
Atom  16F    basis set group =>   3
Atom  17F    basis set group =>   3
Atom  18F    basis set group =>   3
Atom  19F    basis set group =>   3
Atom  20F    basis set group =>   3
Atom  21F    basis set group =>   3
Atom  22F    basis set group =>   3
Atom  23F    basis set group =>   3
Atom  24H    basis set group =>   4
---------------------------------
AUXILIARY/J BASIS SET INFORMATION
---------------------------------
There are 4 groups of distinct atoms

 Group   1 Type C   : 12s5p4d2f1g contracted to 6s4p3d1f1g pattern {711111/2111/211/2/1}
 Group   2 Type O   : 12s5p4d2f1g contracted to 6s4p3d1f1g pattern {711111/2111/211/2/1}
 Group   3 Type F   : 12s5p4d2f1g contracted to 6s4p3d1f1g pattern {711111/2111/211/2/1}
 Group   4 Type H   : 5s2p1d contracted to 3s1p1d pattern {311/2/1}

Atom   0C    basis set group =>   1
Atom   1O    basis set group =>   2
Atom   2O    basis set group =>   2
Atom   3C    basis set group =>   1
Atom   4C    basis set group =>   1
Atom   5C    basis set group =>   1
Atom   6C    basis set group =>   1
Atom   7C    basis set group =>   1
Atom   8C    basis set group =>   1
Atom   9C    basis set group =>   1
Atom  10F    basis set group =>   3
Atom  11F    basis set group =>   3
Atom  12F    basis set group =>   3
Atom  13F    basis set group =>   3
Atom  14F    basis set group =>   3
Atom  15F    basis set group =>   3
Atom  16F    basis set group =>   3
Atom  17F    basis set group =>   3
Atom  18F    basis set group =>   3
Atom  19F    basis set group =>   3
Atom  20F    basis set group =>   3
Atom  21F    basis set group =>   3
Atom  22F    basis set group =>   3
Atom  23F    basis set group =>   3
Atom  24H    basis set group =>   4


           ************************************************************
           *        Program running with 20 parallel MPI-processes    *
           *              working on a common directory               *
           ************************************************************
------------------------------------------------------------------------------
                             ORCA STARTUP CALCULATIONS
                           -- RI-GTO INTEGRALS CHOSEN --
------------------------------------------------------------------------------
------------------------------------------------------------------------------
                   ___                                                        
                  /   \      - P O W E R E D   B Y -                         
                 /     \                                                     
                 |  |  |   _    _      __       _____    __    __             
                 |  |  |  | |  | |    /  \     |  _  \  |  |  /  |          
                  \  \/   | |  | |   /    \    | | | |  |  | /  /          
                 / \  \   | |__| |  /  /\  \   | |_| |  |  |/  /          
                |  |  |   |  __  | /  /__\  \  |    /   |      \           
                |  |  |   | |  | | |   __   |  |    \   |  |\   \          
                \     /   | |  | | |  |  |  |  | |\  \  |  | \   \       
                 \___/    |_|  |_| |__|  |__|  |_| \__\ |__|  \__/        
                                                                              
                      - O R C A' S   B I G   F R I E N D -                    
                                      &                                       
                       - I N T E G R A L  F E E D E R -                       
                                                                              
 v1 FN, 2020, v2 2021, v3 2022-2024                                           
------------------------------------------------------------------------------


----------------------
SHARK INTEGRAL PACKAGE
----------------------

Number of atoms                             ...     25
Number of basis functions                   ...    750
Number of shells                            ...    268
Maximum angular momentum                    ...      3
Integral batch strategy                     ... SHARK/LIBINT Hybrid
RI-J (if used) integral strategy            ... SPLIT-RIJ (Revised 2003 algorithm where possible)
Printlevel                                  ...      1
Contraction scheme used                     ... SEGMENTED contraction
Prescreening option                         ... SCHWARTZ
   Thresh                                   ... 2.500e-11
   Tcut                                     ... 2.500e-12
   Tpresel                                  ... 2.500e-12 
Coulomb Range Separation                    ... NOT USED
Exchange Range Separation                   ... NOT USED
Multipole approximations                    ... NOT USED
Finite Nucleus Model                        ... NOT USED
CABS basis                                  ... NOT available
Auxiliary Coulomb fitting basis             ... AVAILABLE
   # of basis functions in Aux-J            ...   1187
   # of shells in Aux-J                     ...    365
   Maximum angular momentum in Aux-J        ...      4
Auxiliary J/K fitting basis                 ... NOT available
Auxiliary Correlation fitting basis         ... NOT available
Auxiliary 'external' fitting basis          ... NOT available

Checking pre-screening integrals            ... done (  0.0 sec) Dimension = 268
Check shell pair data                       ... done (  0.0 sec)
Shell pair information
Shell pair cut-off parameter TPreSel        ...   2.5e-12
Total number of shell pairs                 ...     36046
Shell pairs after pre-screening             ...     22035
Total number of primitive shell pairs       ...    118872
Primitive shell pairs kept                  ...     46707
          la=0 lb=0:   4199 shell pairs
          la=1 lb=0:   6017 shell pairs
          la=1 lb=1:   2083 shell pairs
          la=2 lb=0:   3272 shell pairs
          la=2 lb=1:   2394 shell pairs
          la=2 lb=2:    673 shell pairs
          la=3 lb=0:   1484 shell pairs
          la=3 lb=1:   1149 shell pairs
          la=3 lb=2:    616 shell pairs
          la=3 lb=3:    148 shell pairs

Calculating one electron integrals          ... done (  0.0 sec)
Calculating RI/J V-Matrix + Cholesky decomp.... done (  0.1 sec)
Calculating Nuclear repulsion               ... done (  0.0 sec) ENN=   2623.917721077008 Eh

Diagonalization of the overlap matrix:
Smallest eigenvalue                        ... 6.454e-05
Time for diagonalization                   ...    0.110 sec
Threshold for overlap eigenvalues          ... 1.000e-07
Number of eigenvalues below threshold      ... 0
Time for construction of square roots      ...    0.045 sec
Total time needed                          ...    0.162 sec

-------------------
DFT GRID GENERATION
-------------------

General Integration Accuracy     IntAcc      ... 4.388
Radial Grid Type                 RadialGrid  ... OptM3 with GC (2021)
Angular Grid (max. ang.)         AngularGrid ... 4 (Lebedev-302)
Angular grid pruning method      GridPruning ... 4 (adaptive)
Weight generation scheme         WeightScheme... mBecke (2022)
Basis function cutoff            BFCut       ... 1.0000e-11
Integration weight cutoff        WCut        ... 1.0000e-14
Partially contracted basis set               ... off
Rotationally invariant grid construction     ... off
Angular grids for H and He will be reduced by one unit

Total number of grid points                  ...   148753
Total number of batches                      ...     2337
Average number of points per batch           ...       63
Average number of grid points per atom       ...     5950

--------------------
COSX GRID GENERATION
--------------------

GRIDX 1
-------
General Integration Accuracy     IntAcc      ... 3.816
Radial Grid Type                 RadialGrid  ... OptM3 with GC (2021)
Angular Grid (max. ang.)         AngularGrid ... 1 (Lebedev-50)
Angular grid pruning method      GridPruning ... 4 (adaptive)
Weight generation scheme         WeightScheme... mBecke (2022)
Basis function cutoff            BFCut       ... 1.0000e-11
Integration weight cutoff        WCut        ... 1.0000e-14
Partially contracted basis set               ... on
Rotationally invariant grid construction     ... off
Angular grids for H and He will be reduced by one unit

Total number of grid points                  ...    18716
Total number of batches                      ...      158
Average number of points per batch           ...      118
Average number of grid points per atom       ...      749
UseSFitting                                  ... on

GRIDX 2
-------
General Integration Accuracy     IntAcc      ... 4.020
Radial Grid Type                 RadialGrid  ... OptM3 with GC (2021)
Angular Grid (max. ang.)         AngularGrid ... 2 (Lebedev-110)
Angular grid pruning method      GridPruning ... 4 (adaptive)
Weight generation scheme         WeightScheme... mBecke (2022)
Basis function cutoff            BFCut       ... 1.0000e-11
Integration weight cutoff        WCut        ... 1.0000e-14
Partially contracted basis set               ... on
Rotationally invariant grid construction     ... off
Angular grids for H and He will be reduced by one unit

Total number of grid points                  ...    44123
Total number of batches                      ...      359
Average number of points per batch           ...      122
Average number of grid points per atom       ...     1765
UseSFitting                                  ... on

GRIDX 3
-------
General Integration Accuracy     IntAcc      ... 4.338
Radial Grid Type                 RadialGrid  ... OptM3 with GC (2021)
Angular Grid (max. ang.)         AngularGrid ... 3 (Lebedev-194)
Angular grid pruning method      GridPruning ... 4 (adaptive)
Weight generation scheme         WeightScheme... mBecke (2022)
Basis function cutoff            BFCut       ... 1.0000e-11
Integration weight cutoff        WCut        ... 1.0000e-14
Partially contracted basis set               ... on
Rotationally invariant grid construction     ... off
Angular grids for H and He will be reduced by one unit

Total number of grid points                  ...    97698
Total number of batches                      ...      774
Average number of points per batch           ...      126
Average number of grid points per atom       ...     3908
UseSFitting                                  ... on
Initializing property integral containers    ... done (  0.0 sec)

SHARK setup successfully completed in   3.4 seconds

Maximum memory used throughout the entire STARTUP-calculation: 56.9 MB


           ************************************************************
           *        Program running with 20 parallel MPI-processes    *
           *              working on a common directory               *
           ************************************************************
-------------------------------------------------------------------------------
                                 ORCA GUESS
                   Start orbitals & Density for SCF / CASSCF
-------------------------------------------------------------------------------

------------
SCF SETTINGS
------------
Hamiltonian:
 Density Functional     Method          .... DFT(GTOs)
  Functional kind                       .... Exchange
  Functional name                       .... Re-regularized SCAN exchange by Furness et al
  Functional family                     .... MGGA
  Functional refs                              
    [ 0] J. W. Furness, A. D. Kaplan, J. Ning, J. P. Perdew, and J. Sun.,  J. Phys. Chem. Lett. 11, 8208-8215 (2020), doi: 10.1021/acs.jpclett.0c02405
    [ 1] J. W. Furness, A. D. Kaplan, J. Ning, J. P. Perdew, and J. Sun.,  J. Phys. Chem. Lett. 11, 9248-9248 (2020), doi: 10.1021/acs.jpclett.0c03077
  Functional external parameters        .... 6
    Parameter  0 _c1        =  6.670000e-01 : c1 parameter        
    Parameter  1 _c2        =  8.000000e-01 : c2 parameter        
    Parameter  2 _d         =  1.240000e+00 : d parameter         
    Parameter  3 _k1        =  6.500000e-02 : k1 parameter        
    Parameter  4 _eta       =  1.000000e-03 : eta parameter       
    Parameter  5 _dp2       =  3.610000e-01 : dp2 parameter       
  Functional kind                       .... Correlation
  Functional name                       .... Re-regularized SCAN correlation by Furness et al
  Functional family                     .... MGGA
  Functional refs                              
    [ 0] J. W. Furness, A. D. Kaplan, J. Ning, J. P. Perdew, and J. Sun.,  J. Phys. Chem. Lett. 11, 8208-8215 (2020), doi: 10.1021/acs.jpclett.0c02405
    [ 1] J. W. Furness, A. D. Kaplan, J. Ning, J. P. Perdew, and J. Sun.,  J. Phys. Chem. Lett. 11, 9248-9248 (2020), doi: 10.1021/acs.jpclett.0c03077
  Functional external parameters        .... 1
    Parameter  0 _eta       =  1.000000e-03 : Regularization parameter
 Gradients option       PostSCFGGA      .... off
 Hybrid DFT is turned on
   Fraction HF Exchange ScalHFX         ....  0.100000
   Scaling of DF-GGA-X  ScalDFX         ....  0.900000
   Scaling of DF-GGA-C  ScalDFC         ....  1.000000
   Scaling of DF-LDA-C  ScalLDAC        ....  1.000000
   Perturbative correction              ....  0.000000
   NL short-range parameter             .... 11.900000
 RI-approximation to the Coulomb term is turned on
   Number of AuxJ basis functions       .... 1187
   RIJ-COSX (HFX calculated with COS-X)).... on


General Settings:
 Integral files         IntName         .... rf_mecn_opt_r2s_C3_P_B
 Hartree-Fock type      HFTyp           .... UHF
 Total Charge           Charge          ....    0
 Multiplicity           Mult            ....    2
 Number of Electrons    NEL             ....  191
 Basis Dimension        Dim             ....  750
 Nuclear Repulsion      ENuc            ....   2623.9177210770 Eh

Convergence Acceleration:
 AO-DIIS                CNVDIIS         .... on
   Start iteration      DIISMaxIt       ....     0
   Startup error        DIISStart       ....  0.200000
   # of expansion vecs  DIISMaxEq       ....     5
   Bias factor          DIISBfac        ....   1.050
   Max. coefficient     DIISMaxC        ....  10.000
 MO-DIIS                CNVKDIIS        .... off
 Trust-Rad. Augm. Hess. CNVTRAH         .... auto
   Auto Start mean grad. ratio tolernc. ....  1.125000
   Auto Start start iteration           ....    50
   Auto Start num. interpolation iter.  ....    10
   Max. Number of Micro iterations      ....    24
   Max. Number of Macro iterations      .... Maxiter - #DIIS iter
   Number of Davidson start vectors     ....     2
   Converg. threshold    (grad. norm)   ....   1.000e-05
   Grad. Scal. Fac. for Micro threshold ....   0.100
   Minimum threshold for Micro iter.    ....   1.000e-02
   NR start threshold (gradient norm)   ....   1.000e-04
   Initial trust radius                 ....   0.400
   Minimum AH scaling param. (alpha)    ....   1.000
   Maximum AH scaling param. (alpha)    .... 1000.000
   Quad. conv. algorithm                .... NR
   White noise on init. David. guess    .... on
   Maximum white noise                  ....   0.010
   Pseudo random numbers                .... off
   Inactive MOs                         .... canonical
   Orbital update algorithm             .... Taylor
   Preconditioner                       .... Diag
   Full preconditioner red. dimension   ....   250
 SOSCF                  CNVSOSCF        .... on
   Start iteration      SOSCFMaxIt      ....   150
   Startup grad/error   SOSCFStart      ....  0.001000
   Hessian update       SOSCFHessUp     .... L-BFGS
 Level Shifting         CNVShift        .... on
   Level shift para.    LevelShift      ....    0.2500
   Turn off err/grad.   ShiftErr        ....    0.0000
 Zerner damping         CNVZerner       .... off
 Static damping         CNVDamp         .... on
   Fraction old density DampFac         ....    0.8500
   Max. Damping (<1)    DampMax         ....    0.9800
   Min. Damping (>=0)   DampMin         ....    0.0000
   Turn off err/grad.   DampErr         ....    0.0300

SCF Procedure:
 Maximum # iterations   MaxIter         ....  1500
 SCF integral mode      SCFMode         .... Direct
   Integral package                     .... SHARK and LIBINT hybrid scheme
 Reset frequency        DirectResetFreq ....    20
 Integral Threshold     Thresh          ....  2.500e-11 Eh
 Primitive CutOff       TCut            ....  2.500e-12 Eh

Convergence Tolerance:
 Convergence Check Mode ConvCheckMode   .... Total+1el-Energy
 Convergence forced     ConvForced      .... 0
 Energy Change          TolE            ....  1.000e-08 Eh
 1-El. energy change                    ....  1.000e-05 Eh
 Orbital Gradient       TolG            ....  1.000e-05
 Orbital Rotation angle TolX            ....  1.000e-05
 DIIS Error             TolErr          ....  5.000e-07

------------------------------
INITIAL GUESS: MODEL POTENTIAL
------------------------------
Loading Hartree-Fock densities                     ... done
Calculating cut-offs                               ... done
Initializing the effective Hamiltonian             ... done
Setting up the integral package (SHARK)            ... done
Starting the Coulomb interaction                   ... done (   0.2 sec)
Making the grid                                    ... done (   0.4 sec)
Mapping shells                                     ... done
Starting the XC term evaluation                    ... done (   0.1 sec)
  promolecular density results
     # of electrons  =    191.000271550
     EX              =   -197.376192416
     EC              =     -6.683058622
     EX+EC           =   -204.059251038
Transforming the Hamiltonian                       ... done (   0.0 sec)
Diagonalizing the Hamiltonian                      ... done (   0.1 sec)
Back transforming the eigenvectors                 ... done (   0.0 sec)
Now organizing SCF variables                       ... done
                      ------------------
                      INITIAL GUESS DONE (   0.9 sec)
                      ------------------
             **** ENERGY FILE WAS UPDATED (rf_mecn_opt_r2s_C3_P_B.en.tmp) ****
Finished Guess after   1.7 sec
Maximum memory used throughout the entire GUESS-calculation: 45.9 MB


           ************************************************************
           *        Program running with 20 parallel MPI-processes    *
           *              working on a common directory               *
           ************************************************************

-------------------------------------------------------------------------------------------
                                      ORCA LEAN-SCF
                              memory conserving SCF solver
-------------------------------------------------------------------------------------------

--------------------
CPCM SOLVATION MODEL
--------------------
CPCM parameters:
  Epsilon                                         ...      35.6880
  Refrac                                          ...       1.3442
  Rsolv                                           ...       1.3000
  Surface type                                    ... GAUSSIAN VDW
  Discretization scheme                           ... Constant charge density
    Threshold for H atoms                         ...       5.0000 (charges/Ang^2)
    Threshold for non-H atoms                     ...       5.0000 (charges/Ang^2)
  Epsilon function type                           ...         CPCM
Solvent:                                          ... ACETONITRILE
SMD-CDS solvent descriptors:
  Soln                                            ...       1.3442
  Soln25                                          ...       1.3416
  Sola                                            ...       0.0700
  Solb                                            ...       0.3200
  Solg                                            ...      41.2500
  Solc                                            ...       0.0000
  Solh                                            ...       0.0000
Radii:
  Scheme                                          ... Element-dependent radii
  Radius for C  used is    3.4960 Bohr (=   1.8500 Ang.)
  Radius for O  used is    4.0969 Bohr (=   2.1680 Ang.)
  Radius for F  used is    3.2692 Bohr (=   1.7300 Ang.)
  Radius for H  used is    2.2677 Bohr (=   1.2000 Ang.)
Calculating surface                               ...        done! (  0.0s)
Cavity surface points                             ...         2173
Cavity Volume                                     ...    2135.3840
Cavity Surface-area                               ...    1122.6499
Calculating surface distance matrix               ...        done! (  0.1s)
Performing Cholesky decomposition & store         ...        done! (  0.1s)
Overall time for CPCM initialization              ...                 0.2s

----------------------------------------D-I-I-S--------------------------------------------
Iteration    Energy (Eh)           Delta-E    RMSDP     MaxDP     DIISErr   Damp  Time(sec)
-------------------------------------------------------------------------------------------
               ***  Starting incremental Fock matrix formation  ***
    1    -1853.0189071654435793     0.00e+00  2.07e-04  1.61e-02  1.45e-01  0.850   6.8
Warning: op=1 Small HOMO/LUMO gap (   0.039) - skipping pre-diagonalization
         Will do a full diagonalization
    2    -1853.1555304007056293    -1.37e-01  1.95e-04  1.49e-02  8.98e-02  0.850   4.7
                               ***Turning on AO-DIIS***
    3    -1853.2243726287165373    -6.88e-02  8.83e-05  4.57e-03  5.22e-02  0.850   4.1
    4    -1853.2652719444745344    -4.09e-02  5.90e-05  4.29e-03  3.86e-02  0.850   4.2
    5    -1853.2943649046651444    -2.91e-02  4.88e-05  4.35e-03  3.07e-02  0.850   4.6
    6    -1853.3176166670941711    -2.33e-02  4.34e-05  4.05e-03  2.76e-02  0.850   4.5
    7    -1853.3372307214881403    -1.96e-02  2.68e-04  2.42e-02  2.35e-02  0.000   4.4
    8    -1853.4416982861889664    -1.04e-01  5.62e-05  8.06e-03  1.38e-02  0.000   4.8
    9    -1853.4418746223323069    -1.76e-04  2.02e-05  2.68e-03  1.26e-02  0.000   4.1
   10    -1853.4428494986527767    -9.75e-04  9.06e-06  8.11e-04  3.39e-03  0.000   4.1
                              *** Initializing SOSCF ***
---------------------------------------S-O-S-C-F--------------------------------------
Iteration    Energy (Eh)           Delta-E    RMSDP     MaxDP     MaxGrad    Time(sec)
--------------------------------------------------------------------------------------
   11    -1853.4429478351271428    -9.83e-05  4.20e-06  4.24e-04  8.65e-04     4.3
               *** Restarting incremental Fock matrix formation ***
   12    -1853.4429715546971238    -2.37e-05  3.43e-06  2.76e-04  2.70e-04     8.4
   13    -1853.4429732017320021    -1.65e-06  2.34e-06  2.20e-04  2.01e-04     4.9
   14    -1853.4429741423168707    -9.41e-07  1.32e-06  1.42e-04  1.27e-04     4.6
   15    -1853.4429741589124205    -1.66e-08  1.14e-06  9.40e-05  2.58e-04     4.4
   16    -1853.4429744837275393    -3.25e-07  7.69e-07  6.23e-05  7.29e-05     4.2
   17    -1853.4429745806187384    -9.69e-08  3.25e-07  2.19e-05  2.59e-05     4.3
   18    -1853.4429746083737882    -2.78e-08  2.17e-07  1.75e-05  1.32e-05     3.7
   19    -1853.4429746104174228    -2.04e-09  1.03e-07  6.07e-06  5.56e-06     4.1
                 **** Energy Check signals convergence ****

               *****************************************************
               *                     SUCCESS                       *
               *           SCF CONVERGED AFTER  19 CYCLES          *
               *****************************************************

Recomputing exchange energy using gridx3       ... done (    8.755 sec)
Old exchange energy                            :    -19.882719132 Eh
New exchange energy                            :    -19.882732544 Eh
Exchange energy change after final integration :     -0.000013412 Eh
Total energy after final integration           :  -1853.442988022 Eh

SMD CDS free energy correction energy :                 3.62113     Kcal/mol
Total Energy after SMD CDS correction =             -1853.437217392 Eh
             **** ENERGY FILE WAS UPDATED (rf_mecn_opt_r2s_C3_P_B.en.tmp) ****

----------------
TOTAL SCF ENERGY
----------------

Total Energy       :      -1853.43721739235002 Eh          -50434.59073 eV

Components:
Nuclear Repulsion  :       2623.91772107700808 Eh           71400.43112 eV
Electronic Energy  :      -4477.34427817704636 Eh         -121834.73177 eV
One Electron Energy:      -7799.54197583425412 Eh         -212236.32705 eV
Two Electron Energy:       3322.19769765720775 Eh           90401.59528 eV
CPCM Dielectric    :         -0.01641751037905 Eh              -0.44674 eV
SMD CDS (Gcds)     :          0.00577062983621 Eh               0.15703 eV

Virial components:
Potential Energy   :      -3699.16780026648848 Eh         -100659.47327 eV
Kinetic Energy     :       1845.73058287413824 Eh           50224.88254 eV
Virial Ratio       :          2.00417538431108

DFT components:
N(Alpha)           :       95.999969757048 electrons
N(Beta)            :       94.999960315152 electrons
N(Total)           :      190.999930072200 electrons
E(X)               :     -179.955600183187 Eh       
E(C)               :       -6.625739134039 Eh       
E(XC)              :     -186.581339317226 Eh       

CPCM Solvation Model Properties:
Surface-charge          :         -0.00847213852411
Corrected charge        :          0.00000000000000
Outlying charge corr.   :          0.00000390127025 Eh               0.00011 eV
Free-energy (cav+disp)  :          0.00577062983621 Eh               0.15703 eV

---------------
SCF CONVERGENCE
---------------

  Last Energy change         ...    2.0436e-09  Tolerance :   1.0000e-08
  Last MAX-Density change    ...    6.0735e-06  Tolerance :   1.0000e-07
  Last RMS-Density change    ...    1.0292e-07  Tolerance :   5.0000e-09
  Last DIIS Error            ...    8.6519e-04  Tolerance :   5.0000e-07
  Last Orbital Gradient      ...    5.5597e-06  Tolerance :   1.0000e-05
  Last Orbital Rotation      ...    1.9791e-05  Tolerance :   1.0000e-05


----------------------
UHF SPIN CONTAMINATION
----------------------

Warning: in a DFT calculation there is little theoretical justification to 
         calculate <S**2> as in Hartree-Fock theory. We will do it anyways
         but you should keep in mind that the values have only limited relevance

Expectation value of <S**2>     :     0.755324
Ideal value S*(S+1) for S=0.5   :     0.750000
Deviation                       :     0.005324

----------------
ORBITAL ENERGIES
----------------
                 SPIN UP ORBITALS
  NO   OCC          E(Eh)            E(eV) 
   0   1.0000     -24.734626      -673.0634 
   1   1.0000     -24.734444      -673.0584 
   2   1.0000     -24.734150      -673.0504 
   3   1.0000     -24.734067      -673.0482 
   4   1.0000     -24.733623      -673.0361 
   5   1.0000     -24.732984      -673.0187 
   6   1.0000     -24.732967      -673.0183 
   7   1.0000     -24.732959      -673.0180 
   8   1.0000     -24.731856      -672.9880 
   9   1.0000     -24.731404      -672.9757 
  10   1.0000     -24.730460      -672.9500 
  11   1.0000     -24.726404      -672.8397 
  12   1.0000     -24.717518      -672.5979 
  13   1.0000     -24.714131      -672.5057 
  14   1.0000     -19.192778      -522.2621 
  15   1.0000     -19.158981      -521.3424 
  16   1.0000     -10.446517      -284.2642 
  17   1.0000     -10.394511      -282.8490 
  18   1.0000     -10.393153      -282.8121 
  19   1.0000     -10.391656      -282.7713 
  20   1.0000     -10.391318      -282.7621 
  21   1.0000     -10.389119      -282.7023 
  22   1.0000     -10.387912      -282.6695 
  23   1.0000     -10.327131      -281.0155 
  24   1.0000      -1.356580       -36.9144 
  25   1.0000      -1.333809       -36.2948 
  26   1.0000      -1.318678       -35.8831 
  27   1.0000      -1.310833       -35.6696 
  28   1.0000      -1.308770       -35.6134 
  29   1.0000      -1.288888       -35.0724 
  30   1.0000      -1.278227       -34.7823 
  31   1.0000      -1.271509       -34.5995 
  32   1.0000      -1.265389       -34.4330 
  33   1.0000      -1.264998       -34.4223 
  34   1.0000      -1.258568       -34.2474 
  35   1.0000      -1.255366       -34.1602 
  36   1.0000      -1.252658       -34.0866 
  37   1.0000      -1.233640       -33.5691 
  38   1.0000      -1.093157       -29.7463 
  39   1.0000      -1.004116       -27.3234 
  40   1.0000      -0.848958       -23.1013 
  41   1.0000      -0.832845       -22.6629 
  42   1.0000      -0.804102       -21.8807 
  43   1.0000      -0.767865       -20.8947 
  44   1.0000      -0.735160       -20.0047 
  45   1.0000      -0.702047       -19.1037 
  46   1.0000      -0.680497       -18.5173 
  47   1.0000      -0.661309       -17.9951 
  48   1.0000      -0.639638       -17.4054 
  49   1.0000      -0.634490       -17.2653 
  50   1.0000      -0.627910       -17.0863 
  51   1.0000      -0.617946       -16.8152 
  52   1.0000      -0.614295       -16.7158 
  53   1.0000      -0.610858       -16.6223 
  54   1.0000      -0.599400       -16.3105 
  55   1.0000      -0.597718       -16.2647 
  56   1.0000      -0.593755       -16.1569 
  57   1.0000      -0.582305       -15.8453 
  58   1.0000      -0.574816       -15.6415 
  59   1.0000      -0.572019       -15.5654 
  60   1.0000      -0.563685       -15.3386 
  61   1.0000      -0.562369       -15.3029 
  62   1.0000      -0.507046       -13.7974 
  63   1.0000      -0.503444       -13.6994 
  64   1.0000      -0.499416       -13.5898 
  65   1.0000      -0.493610       -13.4318 
  66   1.0000      -0.491196       -13.3661 
  67   1.0000      -0.488852       -13.3023 
  68   1.0000      -0.486291       -13.2326 
  69   1.0000      -0.484554       -13.1854 
  70   1.0000      -0.475723       -12.9451 
  71   1.0000      -0.472861       -12.8672 
  72   1.0000      -0.472664       -12.8618 
  73   1.0000      -0.464134       -12.6297 
  74   1.0000      -0.462044       -12.5729 
  75   1.0000      -0.453431       -12.3385 
  76   1.0000      -0.450680       -12.2636 
  77   1.0000      -0.449873       -12.2417 
  78   1.0000      -0.443628       -12.0717 
  79   1.0000      -0.441142       -12.0041 
  80   1.0000      -0.440208       -11.9787 
  81   1.0000      -0.437026       -11.8921 
  82   1.0000      -0.436681       -11.8827 
  83   1.0000      -0.432799       -11.7771 
  84   1.0000      -0.431348       -11.7376 
  85   1.0000      -0.429886       -11.6978 
  86   1.0000      -0.428389       -11.6571 
  87   1.0000      -0.422020       -11.4837 
  88   1.0000      -0.420332       -11.4378 
  89   1.0000      -0.404563       -11.0087 
  90   1.0000      -0.378938       -10.3114 
  91   1.0000      -0.351989        -9.5781 
  92   1.0000      -0.335971        -9.1422 
  93   1.0000      -0.334323        -9.0974 
  94   1.0000      -0.309995        -8.4354 
  95   1.0000      -0.295043        -8.0285 
  96   0.0000      -0.108775        -2.9599 
  97   0.0000      -0.024295        -0.6611 
  98   0.0000      -0.009914        -0.2698 
  99   0.0000      -0.004290        -0.1167 
 100   0.0000       0.017823         0.4850 
 101   0.0000       0.055486         1.5099 
 102   0.0000       0.066639         1.8133 
 103   0.0000       0.070542         1.9195 
 104   0.0000       0.104803         2.8518 
 105   0.0000       0.109635         2.9833 
 106   0.0000       0.110306         3.0016 

                 SPIN DOWN ORBITALS
  NO   OCC          E(Eh)            E(eV) 
   0   1.0000     -24.734626      -673.0634 
   1   1.0000     -24.734443      -673.0584 
   2   1.0000     -24.734148      -673.0504 
   3   1.0000     -24.734067      -673.0482 
   4   1.0000     -24.733623      -673.0361 
   5   1.0000     -24.732967      -673.0183 
   6   1.0000     -24.732963      -673.0181 
   7   1.0000     -24.732959      -673.0180 
   8   1.0000     -24.731828      -672.9873 
   9   1.0000     -24.729157      -672.9146 
  10   1.0000     -24.726654      -672.8465 
  11   1.0000     -24.726443      -672.8407 
  12   1.0000     -24.715905      -672.5540 
  13   1.0000     -24.713944      -672.5006 
  14   1.0000     -19.192798      -522.2626 
  15   1.0000     -19.158734      -521.3357 
  16   1.0000     -10.446517      -284.2642 
  17   1.0000     -10.394527      -282.8495 
  18   1.0000     -10.393155      -282.8121 
  19   1.0000     -10.391554      -282.7686 
  20   1.0000     -10.391278      -282.7611 
  21   1.0000     -10.389129      -282.7026 
  22   1.0000     -10.387969      -282.6710 
  23   1.0000     -10.309469      -280.5349 
  24   1.0000      -1.356579       -36.9144 
  25   1.0000      -1.333538       -36.2874 
  26   1.0000      -1.317968       -35.8637 
  27   1.0000      -1.310775       -35.6680 
  28   1.0000      -1.307957       -35.5913 
  29   1.0000      -1.286659       -35.0118 
  30   1.0000      -1.272304       -34.6211 
  31   1.0000      -1.270330       -34.5674 
  32   1.0000      -1.265214       -34.4282 
  33   1.0000      -1.264538       -34.4098 
  34   1.0000      -1.258062       -34.2336 
  35   1.0000      -1.255241       -34.1568 
  36   1.0000      -1.251772       -34.0624 
  37   1.0000      -1.231968       -33.5235 
  38   1.0000      -1.093165       -29.7465 
  39   1.0000      -1.003729       -27.3128 
  40   1.0000      -0.846980       -23.0475 
  41   1.0000      -0.823218       -22.4009 
  42   1.0000      -0.798089       -21.7171 
  43   1.0000      -0.766641       -20.8614 
  44   1.0000      -0.730562       -19.8796 
  45   1.0000      -0.701058       -19.0768 
  46   1.0000      -0.679702       -18.4956 
  47   1.0000      -0.655877       -17.8473 
  48   1.0000      -0.638767       -17.3817 
  49   1.0000      -0.633830       -17.2474 
  50   1.0000      -0.627637       -17.0789 
  51   1.0000      -0.616291       -16.7701 
  52   1.0000      -0.613489       -16.6939 
  53   1.0000      -0.609158       -16.5760 
  54   1.0000      -0.598215       -16.2783 
  55   1.0000      -0.596120       -16.2213 
  56   1.0000      -0.593099       -16.1390 
  57   1.0000      -0.580803       -15.8044 
  58   1.0000      -0.572680       -15.5834 
  59   1.0000      -0.569876       -15.5071 
  60   1.0000      -0.560368       -15.2484 
  61   1.0000      -0.557357       -15.1665 
  62   1.0000      -0.503378       -13.6976 
  63   1.0000      -0.499721       -13.5981 
  64   1.0000      -0.493414       -13.4265 
  65   1.0000      -0.491440       -13.3728 
  66   1.0000      -0.488424       -13.2907 
  67   1.0000      -0.486580       -13.2405 
  68   1.0000      -0.484030       -13.1711 
  69   1.0000      -0.480082       -13.0637 
  70   1.0000      -0.475209       -12.9311 
  71   1.0000      -0.471735       -12.8366 
  72   1.0000      -0.469656       -12.7800 
  73   1.0000      -0.461819       -12.5667 
  74   1.0000      -0.460074       -12.5192 
  75   1.0000      -0.451025       -12.2730 
  76   1.0000      -0.449233       -12.2242 
  77   1.0000      -0.448724       -12.2104 
  78   1.0000      -0.441046       -12.0015 
  79   1.0000      -0.440374       -11.9832 
  80   1.0000      -0.439602       -11.9622 
  81   1.0000      -0.436481       -11.8773 
  82   1.0000      -0.434929       -11.8350 
  83   1.0000      -0.431923       -11.7532 
  84   1.0000      -0.430880       -11.7249 
  85   1.0000      -0.428464       -11.6591 
  86   1.0000      -0.427431       -11.6310 
  87   1.0000      -0.421306       -11.4643 
  88   1.0000      -0.419019       -11.4021 
  89   1.0000      -0.402028       -10.9397 
  90   1.0000      -0.376125       -10.2349 
  91   1.0000      -0.351336        -9.5603 
  92   1.0000      -0.333993        -9.0884 
  93   1.0000      -0.333223        -9.0675 
  94   1.0000      -0.304969        -8.2986 
  95   0.0000      -0.139584        -3.7983 
  96   0.0000      -0.105212        -2.8630 
  97   0.0000      -0.021864        -0.5949 
  98   0.0000      -0.007016        -0.1909 
  99   0.0000      -0.003727        -0.1014 
 100   0.0000       0.022991         0.6256 
 101   0.0000       0.066465         1.8086 
 102   0.0000       0.072489         1.9725 
 103   0.0000       0.074246         2.0203 
 104   0.0000       0.105649         2.8749 
 105   0.0000       0.110845         3.0162 
*Only the first 10 virtual orbitals were printed.

                    ********************************
                    * MULLIKEN POPULATION ANALYSIS *
                    ********************************

--------------------------------------------
MULLIKEN ATOMIC CHARGES AND SPIN POPULATIONS
--------------------------------------------
   0 C :    0.376010   -0.001608
   1 O :   -0.458317   -0.000626
   2 O :   -0.398705    0.005616
   3 C :    0.411741   -0.003793
   4 C :    0.090065    0.863505
   5 C :    0.397167   -0.002322
   6 C :    0.332979   -0.001806
   7 C :    0.301046    0.000268
   8 C :    0.333480   -0.000042
   9 C :    0.470414   -0.000009
  10 F :   -0.178099    0.029804
  11 F :   -0.186722    0.002704
  12 F :   -0.160560    0.082249
  13 F :   -0.164680    0.025755
  14 F :   -0.173903   -0.000337
  15 F :   -0.170568    0.000217
  16 F :   -0.168472    0.000496
  17 F :   -0.164887   -0.000027
  18 F :   -0.164697   -0.000002
  19 F :   -0.163969    0.000011
  20 F :   -0.160575    0.000000
  21 F :   -0.156443    0.000002
  22 F :   -0.153066    0.000000
  23 F :   -0.154224    0.000002
  24 H :    0.464985   -0.000061
Sum of atomic charges         :    0.0000000
Sum of atomic spin populations:    1.0000000

-----------------------------------------------------
MULLIKEN REDUCED ORBITAL CHARGES AND SPIN POPULATIONS
-----------------------------------------------------
CHARGE
  0 C s       :     3.173753  s :     3.173753
      pz      :     0.777259  p :     2.222793
      px      :     0.794074
      py      :     0.651460
      dz2     :     0.015523  d :     0.209364
      dxz     :     0.014454
      dyz     :     0.059529
      dx2y2   :     0.052805
      dxy     :     0.067053
      f0      :     0.001823  f :     0.018080
      f+1     :     0.001146
      f-1     :     0.002319
      f+2     :     0.002598
      f-2     :     0.001978
      f+3     :     0.003817
      f-3     :     0.004399

  1 O s       :     3.684557  s :     3.684557
      pz      :     1.720137  p :     4.756030
      px      :     1.685618
      py      :     1.350275
      dz2     :     0.001735  d :     0.014846
      dxz     :     0.001262
      dyz     :     0.003213
      dx2y2   :     0.003304
      dxy     :     0.005331
      f0      :     0.000283  f :     0.002884
      f+1     :     0.000133
      f-1     :     0.000388
      f+2     :     0.000245
      f-2     :     0.000444
      f+3     :     0.000930
      f-3     :     0.000460

  2 O s       :     3.899254  s :     3.899254
      pz      :     1.540564  p :     4.473082
      px      :     1.694219
      py      :     1.238299
      dz2     :     0.003252  d :     0.025065
      dxz     :     0.000329
      dyz     :     0.006592
      dx2y2   :     0.009237
      dxy     :     0.005656
      f0      :     0.000118  f :     0.001304
      f+1     :     0.000014
      f-1     :     0.000230
      f+2     :     0.000223
      f-2     :     0.000030
      f+3     :     0.000295
      f-3     :     0.000394

  3 C s       :     3.085972  s :     3.085972
      pz      :     0.674484  p :     2.213913
      px      :     0.907671
      py      :     0.631758
      dz2     :     0.046854  d :     0.263534
      dxz     :     0.052732
      dyz     :     0.063783
      dx2y2   :     0.045098
      dxy     :     0.055067
      f0      :     0.005229  f :     0.024840
      f+1     :     0.003525
      f-1     :     0.003726
      f+2     :     0.003742
      f-2     :     0.001945
      f+3     :     0.003758
      f-3     :     0.002914

  4 C s       :     3.315506  s :     3.315506
      pz      :     0.617222  p :     2.436308
      px      :     0.917434
      py      :     0.901652
      dz2     :     0.031025  d :     0.143010
      dxz     :     0.042553
      dyz     :     0.036760
      dx2y2   :     0.013469
      dxy     :     0.019202
      f0      :     0.002682  f :     0.015113
      f+1     :     0.004702
      f-1     :     0.004033
      f+2     :     0.000637
      f-2     :     0.000896
      f+3     :     0.001104
      f-3     :     0.001059

  5 C s       :     3.118983  s :     3.118983
      pz      :     0.584039  p :     2.164469
      px      :     0.892406
      py      :     0.688025
      dz2     :     0.074570  d :     0.292255
      dxz     :     0.061862
      dyz     :     0.057511
      dx2y2   :     0.035665
      dxy     :     0.062646
      f0      :     0.004720  f :     0.027126
      f+1     :     0.004282
      f-1     :     0.005975
      f+2     :     0.003158
      f-2     :     0.004261
      f+3     :     0.002602
      f-3     :     0.002128

  6 C s       :     3.138112  s :     3.138112
      pz      :     0.575829  p :     2.215811
      px      :     0.923247
      py      :     0.716735
      dz2     :     0.080656  d :     0.286099
      dxz     :     0.061071
      dyz     :     0.054245
      dx2y2   :     0.032202
      dxy     :     0.057925
      f0      :     0.005920  f :     0.027000
      f+1     :     0.003817
      f-1     :     0.004200
      f+2     :     0.003936
      f-2     :     0.005133
      f+3     :     0.002087
      f-3     :     0.001907

  7 C s       :     3.148752  s :     3.148752
      pz      :     0.587725  p :     2.236628
      px      :     0.939818
      py      :     0.709085
      dz2     :     0.074868  d :     0.286513
      dxz     :     0.061148
      dyz     :     0.060886
      dx2y2   :     0.032100
      dxy     :     0.057512
      f0      :     0.004576  f :     0.027061
      f+1     :     0.004274
      f-1     :     0.006319
      f+2     :     0.002929
      f-2     :     0.004207
      f+3     :     0.002615
      f-3     :     0.002141

  8 C s       :     3.109515  s :     3.109515
      pz      :     0.617051  p :     2.247290
      px      :     0.940692
      py      :     0.689547
      dz2     :     0.059035  d :     0.282589
      dxz     :     0.059928
      dyz     :     0.072070
      dx2y2   :     0.033165
      dxy     :     0.058391
      f0      :     0.003467  f :     0.027127
      f+1     :     0.004907
      f-1     :     0.008109
      f+2     :     0.002099
      f-2     :     0.002375
      f+3     :     0.003744
      f-3     :     0.002425

  9 C s       :     3.031057  s :     3.031057
      pz      :     0.646652  p :     2.107682
      px      :     0.802218
      py      :     0.658811
      dz2     :     0.066726  d :     0.351538
      dxz     :     0.068512
      dyz     :     0.085530
      dx2y2   :     0.063496
      dxy     :     0.067275
      f0      :     0.004505  f :     0.039309
      f+1     :     0.007837
      f-1     :     0.008790
      f+2     :     0.004348
      f-2     :     0.003045
      f+3     :     0.007305
      f-3     :     0.003478

 10 F s       :     3.929676  s :     3.929676
      pz      :     1.895749  p :     5.232645
      px      :     1.879018
      py      :     1.457878
      dz2     :     0.002136  d :     0.015164
      dxz     :     0.000312
      dyz     :     0.002903
      dx2y2   :     0.005722
      dxy     :     0.004092
      f0      :     0.000049  f :     0.000613
      f+1     :     0.000015
      f-1     :     0.000121
      f+2     :     0.000070
      f-2     :     0.000019
      f+3     :     0.000165
      f-3     :     0.000174

 11 F s       :     3.930869  s :     3.930869
      pz      :     1.474353  p :     5.240668
      px      :     1.899422
      py      :     1.866892
      dz2     :     0.006563  d :     0.014587
      dxz     :     0.003433
      dyz     :     0.003730
      dx2y2   :     0.000428
      dxy     :     0.000432
      f0      :     0.000213  f :     0.000599
      f+1     :     0.000132
      f-1     :     0.000174
      f+2     :     0.000037
      f-2     :     0.000038
      f+3     :     0.000003
      f-3     :     0.000003

 12 F s       :     3.934639  s :     3.934639
      pz      :     1.448996  p :     5.208681
      px      :     1.907804
      py      :     1.851881
      dz2     :     0.008029  d :     0.016578
      dxz     :     0.003684
      dyz     :     0.004351
      dx2y2   :     0.000255
      dxy     :     0.000259
      f0      :     0.000309  f :     0.000662
      f+1     :     0.000147
      f-1     :     0.000175
      f+2     :     0.000013
      f-2     :     0.000015
      f+3     :     0.000001
      f-3     :     0.000001

 13 F s       :     3.929139  s :     3.929139
      pz      :     1.705635  p :     5.218269
      px      :     1.896227
      py      :     1.616407
      dz2     :     0.002722  d :     0.016585
      dxz     :     0.001647
      dyz     :     0.006518
      dx2y2   :     0.003113
      dxy     :     0.002585
      f0      :     0.000078  f :     0.000687
      f+1     :     0.000014
      f-1     :     0.000182
      f+2     :     0.000187
      f-2     :     0.000105
      f+3     :     0.000060
      f-3     :     0.000061

 14 F s       :     3.929357  s :     3.929357
      pz      :     1.497192  p :     5.227239
      px      :     1.903064
      py      :     1.826983
      dz2     :     0.006857  d :     0.016618
      dxz     :     0.003368
      dyz     :     0.004942
      dx2y2   :     0.000635
      dxy     :     0.000816
      f0      :     0.000227  f :     0.000689
      f+1     :     0.000109
      f-1     :     0.000233
      f+2     :     0.000050
      f-2     :     0.000060
      f+3     :     0.000005
      f-3     :     0.000004

 15 F s       :     3.930847  s :     3.930847
      pz      :     1.589685  p :     5.222368
      px      :     1.899306
      py      :     1.733377
      dz2     :     0.004535  d :     0.016665
      dxz     :     0.002681
      dyz     :     0.006319
      dx2y2   :     0.001552
      dxy     :     0.001578
      f0      :     0.000118  f :     0.000688
      f+1     :     0.000056
      f-1     :     0.000252
      f+2     :     0.000122
      f-2     :     0.000102
      f+3     :     0.000021
      f-3     :     0.000018

 16 F s       :     3.930595  s :     3.930595
      pz      :     1.600512  p :     5.220450
      px      :     1.899514
      py      :     1.720424
      dz2     :     0.004339  d :     0.016736
      dxz     :     0.002562
      dyz     :     0.006434
      dx2y2   :     0.001712
      dxy     :     0.001689
      f0      :     0.000111  f :     0.000692
      f+1     :     0.000050
      f-1     :     0.000249
      f+2     :     0.000132
      f-2     :     0.000105
      f+3     :     0.000025
      f-3     :     0.000021

 17 F s       :     3.930240  s :     3.930240
      pz      :     1.715017  p :     5.217164
      px      :     1.899189
      py      :     1.602959
      dz2     :     0.002625  d :     0.016791
      dxz     :     0.001547
      dyz     :     0.006564
      dx2y2   :     0.003368
      dxy     :     0.002687
      f0      :     0.000078  f :     0.000692
      f+1     :     0.000010
[...]
      dz2     :     0.000012  d :     0.000193
      dxz     :     0.000010
      dyz     :     0.000041
      dx2y2   :     0.000132
      dxy     :    -0.000001
      f0      :     0.000000  f :     0.000014
      f+1     :     0.000003
      f-1     :     0.000001
      f+2     :     0.000007
      f-2     :     0.000001
      f+3     :     0.000000
      f-3     :     0.000002

 17 F s       :     0.000028  s :     0.000028
      pz      :     0.000033  p :    -0.000159
      px      :    -0.000079
      py      :    -0.000112
      dz2     :    -0.000001  d :     0.000023
      dxz     :     0.000003
      dyz     :     0.000004
      dx2y2   :     0.000003
      dxy     :     0.000013
      f0      :    -0.000000  f :     0.000001
      f+1     :    -0.000000
      f-1     :     0.000000
      f+2     :     0.000000
      f-2     :     0.000001
      f+3     :     0.000001
      f-3     :    -0.000000

 18 F s       :     0.000006  s :     0.000006
      pz      :    -0.000011  p :     0.000219
      px      :     0.000060
      py      :     0.000169
      dz2     :     0.000009  d :     0.000046
      dxz     :     0.000020
      dyz     :     0.000001
      dx2y2   :    -0.000003
      dxy     :     0.000019
      f0      :     0.000001  f :     0.000003
      f+1     :     0.000001
      f-1     :     0.000000
      f+2     :    -0.000000
      f-2     :     0.000001
      f+3     :     0.000000
      f-3     :     0.000000

 19 F s       :     0.000001  s :     0.000001
      pz      :     0.000010  p :    -0.000066
      px      :    -0.000016
      py      :    -0.000060
      dz2     :    -0.000000  d :     0.000008
      dxz     :     0.000003
      dyz     :     0.000001
      dx2y2   :     0.000005
      dxy     :    -0.000001
      f0      :     0.000000  f :     0.000001
      f+1     :    -0.000000
      f-1     :     0.000000
      f+2     :     0.000000
      f-2     :     0.000000
      f+3     :    -0.000000
      f-3     :     0.000001

 20 F s       :     0.000001  s :     0.000001
      pz      :    -0.000043  p :     0.000073
      px      :     0.000005
      py      :     0.000111
      dz2     :     0.000002  d :     0.000017
      dxz     :     0.000005
      dyz     :     0.000009
      dx2y2   :     0.000002
      dxy     :    -0.000000
      f0      :     0.000000  f :     0.000001
      f+1     :     0.000000
      f-1     :     0.000000
      f+2     :     0.000000
      f-2     :    -0.000000
      f+3     :    -0.000000
      f-3     :     0.000000

 21 F s       :    -0.000002  s :    -0.000002
      pz      :     0.000004  p :    -0.000027
      px      :    -0.000017
      py      :    -0.000014
      dz2     :     0.000000  d :     0.000002
      dxz     :    -0.000000
      dyz     :     0.000001
      dx2y2   :     0.000001
      dxy     :     0.000001
      f0      :     0.000000  f :     0.000000
      f+1     :     0.000000
      f-1     :     0.000000
      f+2     :     0.000000
      f-2     :    -0.000000
      f+3     :     0.000000
      f-3     :     0.000000

 22 F s       :     0.000015  s :     0.000015
      pz      :     0.000000  p :     0.000258
      px      :     0.000257
      py      :    -0.000000
      dz2     :     0.000002  d :     0.000011
      dxz     :     0.000001
      dyz     :     0.000000
      dx2y2   :     0.000005
      dxy     :     0.000003
      f0      :     0.000000  f :     0.000001
      f+1     :     0.000000
      f-1     :     0.000000
      f+2     :     0.000000
      f-2     :     0.000000
      f+3     :    -0.000000
      f-3     :     0.000000

 23 F s       :     0.000001  s :     0.000001
      pz      :    -0.000006  p :     0.000016
      px      :     0.000010
      py      :     0.000012
      dz2     :     0.000001  d :     0.000004
      dxz     :     0.000003
      dyz     :     0.000001
      dx2y2   :    -0.000000
      dxy     :    -0.000000
      f0      :     0.000000  f :     0.000000
      f+1     :     0.000000
      f-1     :     0.000000
      f+2     :     0.000000
      f-2     :     0.000000
      f+3     :    -0.000000
      f-3     :    -0.000000

 24 H s       :     0.000345  s :     0.000345
      pz      :    -0.000016  p :    -0.000021
      px      :    -0.000002
      py      :    -0.000003



                      *****************************
                      * MAYER POPULATION ANALYSIS *
                      *****************************

  NA   - Mulliken gross atomic population
  ZA   - Total nuclear charge
  QA   - Mulliken gross atomic charge
  VA   - Mayer's total valence
  BVA  - Mayer's bonded valence
  FA   - Mayer's free valence

  ATOM       NA         ZA         QA         VA         BVA        FA
  0 C      5.7231     6.0000     0.2769     4.3301     4.3300     0.0000
  1 O      8.3721     8.0000    -0.3721     2.1646     2.1646     0.0000
  2 O      8.3256     8.0000    -0.3256     2.1850     2.1849     0.0000
  3 C      5.5404     6.0000     0.4596     4.0930     4.0901     0.0030
  4 C      5.9120     6.0000     0.0880     3.9088     3.3141     0.5948
  5 C      5.6184     6.0000     0.3816     4.2552     4.2521     0.0031
  6 C      5.6891     6.0000     0.3109     4.1703     4.1694     0.0009
  7 C      5.7034     6.0000     0.2966     4.1810     4.1809     0.0000
  8 C      5.6690     6.0000     0.3310     4.2064     4.2064     0.0000
  9 C      5.5286     6.0000     0.4714     4.4683     4.4683     0.0000
 10 F      9.1868     9.0000    -0.1868     1.1060     1.1049     0.0011
 11 F      9.1813     9.0000    -0.1813     1.1212     1.1207     0.0005
 12 F      9.1482     9.0000    -0.1482     1.1905     1.1794     0.0112
 13 F      9.1714     9.0000    -0.1714     1.1403     1.1399     0.0004
 14 F      9.1683     9.0000    -0.1683     1.1440     1.1439     0.0001
 15 F      9.1691     9.0000    -0.1691     1.1574     1.1574     0.0000
 16 F      9.1684     9.0000    -0.1684     1.1542     1.1542     0.0000
 17 F      9.1634     9.0000    -0.1634     1.1598     1.1598     0.0000
 18 F      9.1640     9.0000    -0.1640     1.1571     1.1571     0.0000
 19 F      9.1632     9.0000    -0.1632     1.1592     1.1592     0.0000
 20 F      9.1597     9.0000    -0.1597     1.1614     1.1614     0.0000
 21 F      9.1557     9.0000    -0.1557     1.1650     1.1650     0.0000
 22 F      9.1531     9.0000    -0.1531     1.1648     1.1648     0.0000
 23 F      9.1539     9.0000    -0.1539     1.1665     1.1665     0.0000
 24 H      0.6118     1.0000     0.3882     0.8750     0.8750     0.0000

  Mayer bond orders larger than 0.100000
B(  0-C ,  1-O ) :   1.2914 B(  0-C ,  2-O ) :   2.0541 B(  0-C ,  3-C ) :   0.8679 
B(  1-O , 24-H ) :   0.8186 B(  3-C ,  4-C ) :   1.0353 B(  3-C , 10-F ) :   1.0627 
B(  3-C , 11-F ) :   1.0795 B(  4-C ,  5-C ) :   1.0326 B(  4-C , 12-F ) :   1.1124 
B(  5-C ,  6-C ) :   0.9300 B(  5-C , 13-F ) :   1.0639 B(  5-C , 14-F ) :   1.0834 
B(  6-C ,  7-C ) :   0.9219 B(  6-C , 15-F ) :   1.0793 B(  6-C , 16-F ) :   1.0782 
B(  7-C ,  8-C ) :   0.9311 B(  7-C , 17-F ) :   1.0815 B(  7-C , 18-F ) :   1.0895 
B(  8-C ,  9-C ) :   0.9529 B(  8-C , 19-F ) :   1.0827 B(  8-C , 20-F ) :   1.0971 
B(  9-C , 21-F ) :   1.1288 B(  9-C , 22-F ) :   1.1338 B(  9-C , 23-F ) :   1.1427 


-------
TIMINGS
-------

Total SCF time: 0 days 0 hours 0 min 41 sec 

Total time                  ....      41.277 sec
Sum of individual times     ....      40.146 sec  ( 97.3%)

SCF preparation             ....       1.427 sec  (  3.5%)
Fock matrix formation       ....      34.196 sec  ( 82.8%)
  Startup                   ....       0.198 sec  (  0.6% of F)
  Split-RI-J                ....       2.131 sec  (  6.2% of F)
  Chain of spheres X        ....      21.942 sec  ( 64.2% of F)
  XC integration            ....       7.652 sec  ( 22.4% of F)
    XC Preparation          ....       0.000 sec  (  0.0% of XC)
    Basis function eval.    ....       0.479 sec  (  6.3% of XC)
    Density eval.           ....       2.245 sec  ( 29.3% of XC)
    XC-Functional eval.     ....       0.159 sec  (  2.1% of XC)
    XC-Potential eval.      ....       2.192 sec  ( 28.6% of XC)
  CPCM terms                ....       1.816 sec  (  5.3% of F)
Diagonalization             ....       0.000 sec  (  0.0%)
Density matrix formation    ....       0.425 sec  (  1.0%)
Total Energy calculation    ....       0.252 sec  (  0.6%)
Population analysis         ....       0.520 sec  (  1.3%)
Orbital Transformation      ....       0.422 sec  (  1.0%)
Orbital Orthonormalization  ....       0.000 sec  (  0.0%)
DIIS solution               ....       0.523 sec  (  1.3%)
SOSCF solution              ....       2.384 sec  (  5.8%)
Finished LeanSCF after  41.8 sec

Maximum memory used throughout the entire LEANSCF-calculation: 111.5 MB


-------------------------------------------------------------------------------
                          DFT DISPERSION CORRECTION                            
                                                                               
                              DFTD3 V3.1  Rev 1                                
                          USING Becke-Johnson damping                          
-------------------------------------------------------------------------------
The R2SCANh functional is recognized
Active option DFTDOPT                   ...         4   

molecular C6(AA) [au] = 6511.955758 


            DFT-D V3
 parameters
 s6 scaling factor         :     1.0000 
 a1 scaling factor         :     0.4709 
 s8 scaling factor         :     1.1236 
 a2 scaling factor         :     5.9157 
 ad hoc parameters k1-k3   :    16.0000     1.3333    -4.0000 

 Edisp/kcal,au: -5.192637661660  -0.008274993960 
 E6   /kcal   :  -3.790188271 
 E8   /kcal   :  -1.402449390 
 % E8         :  27.008420032 

-------------------------   ----------------
Dispersion correction           -0.008274994
-------------------------   ----------------


-------------------------   --------------------
FINAL SINGLE POINT ENERGY     -1853.567375212999
-------------------------   --------------------

                                *** OPTIMIZATION RUN DONE ***



           ************************************************************
           *        Program running with 20 parallel MPI-processes    *
           *              working on a common directory               *
           ************************************************************

------------------------------------------------------------------------------
                              ORCA PROPERTY CALCULATIONS
------------------------------------------------------------------------------

GBWName                                 ... rf_mecn_opt_r2s_C3_P_B.gbw
Number of atoms                         ...     25
Number of basis functions               ...    750
Max core memory                         ...   8000 MB

Electric properties:
Dipole moment                           ... YES
Quadrupole moment                       ...  NO
Static polarizability (Dipole/Dipole)   ...  NO
Static polarizability (Dipole/Quad.)    ...  NO
Static polarizability (Quad./Quad.)     ...  NO
Static polarizability (Velocity)        ...  NO

Atomic electric properties:
Dipole moment                           ...  NO
Quadrupole moment                       ...  NO
Static polarizability                   ...  NO

Choice of electric origin               ... Center of mass
Position of electric origin             ...    -0.267886    -0.317184    -0.035182

General magnetic properties:
Magnetizability                         ...  NO

EPR properties:
g-Tensor (aka g-matrix)                 ...  NO
Zero-Field splitting spin-orbit         ...  NO
Zero-field splitting spin-spin          ...  NO
Hyperfine couplings                     ...  NO (   0 nuclei)
Quadrupole couplings                    ...  NO (   0 nuclei)
Contact density                         ...  NO (   0 nuclei)

NMR properties:
Chemical shifts                         ...  NO (   0 nuclei)
Spin-rotation constants                 ...  NO (   0 nuclei)
Spin-spin couplings                     ...  NO (   0 nuclei,    0 pairs)

Choice of magnetic origin               ... GIAO
Position of magnetic origin             ...     0.000000     0.000000     0.000000

Properties with geometric perturbations:
SCF Hessian                             ...  NO
IR spectrum                             ...  NO
VCD spectrum                            ...  NO
X-ray spectroscopy properties:
SCF XES/XAS/RIXS spectra                ...  NO


-------------
DIPOLE MOMENT
-------------

Method             : SCF
Type of density    : Electron Density
Multiplicity       :   2
Irrep              :   0
Energy             : -1853.5591002190385552 Eh
Relativity type    : 
Basis              : AO
                                X                 Y                 Z
Electronic contribution:    -14.811856590      -1.410881622       1.174765778
Nuclear contribution   :     15.811917944       1.119709694      -2.050572566
                        -----------------------------------------
Total Dipole Moment    :      1.000061353      -0.291171927      -0.875806788
                        -----------------------------------------
Magnitude (a.u.)       :      1.360860511
Magnitude (Debye)      :      3.459032526



--------------------
Rotational spectrum 
--------------------
 
Rotational constants in cm-1:             0.020919             0.004075             0.004010 
Rotational constants in MHz :           627.136917           122.165171           120.222715 

Dipole components along the rotational axes: 
x,y,z [a.u.] :     1.021489    -0.404034    -0.803279 
x,y,z [Debye]:     2.596420    -1.026972    -2.041773 

 

Dipole moment calculation done in   0.1 sec 

Maximum memory used throughout the entire PROP-calculation: 59.6 MB

--------------------------------
SUGGESTED CITATIONS FOR THIS RUN
--------------------------------

Below you find a list of papers that are relevant to this ORCA run
We neither can nor want to force you to cite these papers, but we appreciate if you do
You receive ORCA, which is the product of decades of hard work by many enthusiastic individuals, for free
The only thing we kindly ask in return is that you cite our papers,
We deeply appreciate it, if you show your appreciation for ORCA by not just citing the generic ORCA reference.

Please note that relegating all ORCA citations to the supporting information does *not* help us.
SI sections are not indexed - citations you put there will not count into any citation statistics
But we need these citations in order to attract the funding resources that allow us to do what we are doing

Therefore, if you are a happy ORCA user, please consider citing a few of the papers listed below in the main body of your paper

In addition to the list printed below, the program has created the file rf_mecn_opt_r2s_C3_P_B.bibtex that contains the list in bibtex format
You can import this file easily into all common literature databanks and citation aid programs


List of essential papers. We consider these as the minimum necessary citations

  1. Neese,F.
     Software update: the ORCA program system, version 5.0
     WIRES Comput. Molec. Sci., 2022 12(1)e1606
     doi.org/10.1002/wcms.1606

List of papers to cite with high priority. The work reported in these papers was absolutely
necessary for this run to complete.
Our perspective: the developers of density functionals and basis sets usually get cited in chemistry papers
Good! But without the algorithms to do something with them, the functionals or basis sets would not do anything.
Hence, in our opinion, the algorithm design and method developments papers are equally worthy of getting cited

  1. Neese,F.
     An improvement of the resolution of the identity approximation for the formation of the Coulomb matrix
     J. Comp. Chem., 2003 24(14)1740-1747
     doi.org/10.1002/jcc.10318
  2. Neese,F.; Wennmohs,F.; Hansen,A.; Becker,U.
     Efficient, approximate and parallel Hartree-Fock and hybrid DFT calculations. A 'chain-of-spheres' algorithm for the Hartree-Fock exchange
     Chem. Phys., 2009 356(1-3)98-109
     doi.org/10.1016/j.chemphys.2008.10.036
  3. Garcia-Rates,M.; Neese,F.
     Effect of the Solute Cavity on the Solvation Energy and its Derivatives within the Framework of the Gaussian Charge Scheme
     J. Comput. Chem., 2020 41 922-939
     doi.org/10.1002/jcc.26139
  4. Helmich-Paris,B.; de Souza,B.; Neese,F.; Izsák,R.
     An improved chain of spheres for exchange algorithm
     J. Chem. Phys., 2021 155 104109
     doi.org/doi: 10.1063/5.0058766.
  5. Neese,F.
     The SHARK Integral Generation and Digestion System
     J. Comp. Chem., 2022  1-16
     doi.org/10.1002/jcc.26942
  6. Lehtola,S.; Steigemann,C.; Oliveira,M.; Marques,M.
     Recent developments in Libxc - A comprehensive library of functionals for density functional theory
     Software X, 2018 7 
     doi.org/10.1016/j.softx.2017.11.002
  7. Grimme,S.; Antony,J.; Ehrlich,S.; Krieg,H.
     A consistent and accurate ab initio parametrization of density functional dispersion correction (DFT-D) for the 94 elements H-Pu
     J. Chem. Phys., 2010 132 154104
     doi.org/10.1063/1.3382344
  8. Grimme,S.; Ehrlich,S.; Goerigk,L.
     Effect of the damping function in dispersion corrected density functional theory
     J. Comput. Chem., 2011 32(7)1456-1465
     doi.org/10.1002/jcc.21759
  9. Bursch,M.; Neugebauer,H.; Ehlert,S.; Grimme,S.
     Dispersion corrected r2SCAN based global hybrid functionals: r2SCANh, r2SCAN0, and r2SCAN50
     J. Phys. Chem., 2022 156(13)134105
     doi.org/10.1063/5.0086040

List of suggested additional citations. These are papers that are important in the 'surrounding' of 
of this run, or papers that preceded the highly important papers. If you like your results we are grateful for a citation.

  1. Izsak,R.; Neese,F.
     An overlap fitted chain of spheres exchange method
     J. Chem. Phys., 2011 135 144105
     doi.org/10.1063/1.3646921
  2. Izsak,R.; Hansen,A.; Neese,F.
     The resolution of identity and chain of spheres approximations for the LPNO-CCSD singles Fock term
     Molec. Phys., 2012 110 2413-2417
     doi.org/10.1080/00268976.2012.687466
  3. Neese,F.
     The ORCA program system
     WIRES Comput. Molec. Sci., 2012 2(1)73-78
     doi.org/10.1002/wcms.81
  4. Izsak,R.; Neese,F.; Klopper,W.
     Robust fitting techniques in the chain of spheres approximation to the Fock exchange: The role of the complementary space
     J. Chem. Phys., 2013 139 
     doi.org/10.1063/1.4819264
  5. Neese,F.
     Software update: the ORCA program system, version 4.0
     WIRES Comput. Molec. Sci., 2018 8(1)1-6
     doi.org/10.1002/wcms.1327
  6. Neese,F.; Wennmohs,F.; Becker,U.; Riplinger,C.
     The ORCA quantum chemistry program package
     J. Chem. Phys., 2020 152 Art. No. L224108
     doi.org/10.1063/5.0004608
  7. Wittmann,L.; Neugebauer,H.; Grimme,S.; Bursch,M.
     Dispersion-corrected r2SCAN based double-hybrid functionals
     J. Chem. Phys., 2023 159(22)224103
     doi.org/10.1063/5.0174988

List of optional additional citations

  1. Neese,F.
     Approximate second-order SCF convergence for spin unrestricted wavefunctions
     Chem. Phys. Lett., 2000 325(1-3)93-98
     doi.org/10.1016/s0009-2614(00)00662-x

Timings for individual modules:

Sum of individual times          ...     5329.159 sec (=  88.819 min)
Startup calculation              ...      263.500 sec (=   4.392 min)   4.9 %
SCF iterations                   ...     3768.961 sec (=  62.816 min)  70.7 %
Property calculations            ...        0.913 sec (=   0.015 min)   0.0 %
SCF Gradient evaluation          ...     1294.615 sec (=  21.577 min)  24.3 %
Geometry relaxation              ...        1.170 sec (=   0.019 min)   0.0 %
                             ****ORCA TERMINATED NORMALLY****
TOTAL RUN TIME: 0 days 1 hours 29 minutes 33 seconds 360 msec
