
                                 *****************
                                 * O   R   C   A *
                                 *****************

                                            #,                                       
                                            ###                                      
                                            ####                                     
                                            #####                                    
                                            ######                                   
                                           ########,                                 
                                     ,,################,,,,,                         
                               ,,#################################,,                 
                          ,,##########################################,,             
                       ,#########################################, ''#####,          
                    ,#############################################,,   '####,        
                  ,##################################################,,,,####,       
                ,###########''''           ''''###############################       
              ,#####''   ,,,,##########,,,,          '''####'''          '####       
            ,##' ,,,,###########################,,,                        '##       
           ' ,,###''''                  '''############,,,                           
         ,,##''                                '''############,,,,        ,,,,,,###''
      ,#''                                            '''#######################'''  
     '                                                          ''''####''''         
             ,#######,   #######,   ,#######,      ##                                
            ,#'     '#,  ##    ##  ,#'     '#,    #''#        ,####,   ,####,        
            ##       ##  ##   ,#'  ##            #'  '#       #'       #'  '#        
            ##       ##  #######   ##           ,######,      #####,   #    #        
            '#,     ,#'  ##    ##  '#,     ,#' ,#      #,     #,   #   #,  ,#        
             '#######'   ##     ##  '#######'  #'      '#     '####' # '####'        



                #########################################################
                #                        -***-                          #
                #          Department of theory and spectroscopy        #
                #                                                       #
                #                      Frank Neese                      #
                #                                                       #
                #     Directorship, Architecture, Infrastructure        #
                #                    SHARK, DRIVERS                     #
                #        Core code/Algorithms in most modules           #
                #                                                       #
                #        Max Planck Institute fuer Kohlenforschung      #
                #                Kaiser Wilhelm Platz 1                 #
                #                 D-45470 Muelheim/Ruhr                 #
                #                      Germany                          #
                #                                                       #
                #                  All rights reserved                  #
                #                        -***-                          #
                #########################################################


                         Program Version 6.0.1  -  RELEASE   -


 With contributions from (in alphabetic order):
[Max-Planck-Institut fuer Kohlenforschung]                               
  Daniel Aravena         : Magnetic Suceptibility                        
  Michael Atanasov       : Ab Initio Ligand Field Theory (pilot matlab implementation)
  Alexander A. Auer      : GIAO ZORA, VPT2 properties, NMR spectrum      
  Ute Becker             : All parallelization in ORCA, NUMFREQ, NUMCALC 
  Giovanni Bistoni       : ED, misc. LED, open-shell LED, HFLD           
  Martin Brehm           : Molecular dynamics                            
  Dmytro Bykov           : pre 5.0 version of the SCF Hessian            
  Marcos Casanova-Páez   : Triplet and SCS-CIS(D). UHF-(DLPNO)-IP/EA/STEOM-CCSD. UHF-CVS-IP/STEOM-CCSD   
  Vijay G. Chilkuri      : MRCI spin determinant printing, contributions to CSF-ICE 
  Pauline Colinet        : FMM embedding                                 
  Dipayan Datta          : RHF DLPNO-CCSD density                        
  Achintya Kumar Dutta   : EOM-CC, STEOM-CC                              
  Nicolas Foglia         : Exact transition moments, OPA infrastructure, MCD improvements    
  Dmitry Ganyushin       : Spin-Orbit,Spin-Spin,Magnetic field MRCI      
  Miquel Garcia-Rates    : C-PCM and meta-GGA Hessian, CCSD/C-PCM, Gaussian charge scheme 
  Tiago L. C. Gouveia    : GS-ROHF, GS-ROCIS                             
  Yang Guo               : DLPNO-NEVPT2, F12-NEVPT2, CIM, IAO-localization        
  Andreas Hansen         : Spin unrestricted coupled pair/coupled cluster methods 
  Ingolf Harden          : AUTO-CI MPn and infrastructure                
  Benjamin Helmich-Paris : MC-RPA, TRAH-(SCF,CASSCF), AVAS, COSX integrals, SCF dyn. polar. 
  Lee Huntington         : MR-EOM, pCC                                   
  Robert Izsak           : Overlap fitted RIJCOSX, COSX-SCS-MP3, EOM     
  Riya Kayal             : Wick's Theorem for AUTO-CI, AUTO-CI UHF-CCSDT 
  Emily Kempfer          : AUTO-CI, RHF CISDT and CCSDT                  
  Christian Kollmar      : KDIIS, OOCD, Brueckner-CCSD(T), CCSD density, CASPT2, CASPT2-K, improved NEVPT2 
  Axel Koslowski         : Symmetry handling                             
  Simone Kossmann        : meta-GGA functionals, TD-DFT gradient, OOMP2, (MP2 Hessian; deprecated post 5.0) 
  Lucas Lang             : DCDCAS                                        
  Marvin Lechner         : AUTO-CI (C++ implementation), FIC-MRCC        
  Spencer Leger          : CASSCF response                               
  Dagmar Lenk            : GEPOL surface, SMD, ORCA-2-JSON               
  Dimitrios Liakos       : Extrapolation schemes; Compound Job, initial MDCI parallelization 
  Dimitrios Manganas     : Further ROCIS development; embedding schemes. LFT, Crystal Embedding 
  Dimitrios Pantazis     : SARC Basis sets                               
  Anastasios Papadopoulos: AUTO-CI, single reference methods and gradients 
  Taras Petrenko         : pre 6.0 DFT Hessian and TD-DFT gradient, (ASA, deprecated), ECA, 1-Electron XAS/XES, NRVS 
  Peter Pinski           : DLPNO-MP2, DLPNO-MP2 Gradient                 
  Christoph Reimann      : Effective Core Potentials                     
  Marius Retegan         : Local ZFS, SOC                                
  Christoph Riplinger    : Optimizer, TS searches, QM/MM, DLPNO-CCSD(T), (RO)-DLPNO pert. Triples 
  Michael Roemelt        : Original ROCIS implementation                 
  Masaaki Saitow         : Open-shell DLPNO-CCSD energy and density      
  Barbara Sandhoefer     : DKH picture change effects                    
  Kantharuban Sivalingam : CASSCF convergence/infrastructure, NEVPT2 and variants, FIC-MRCI 
  Bernardo de Souza      : ESD, SOC TD-DFT                               
  Georgi L. Stoychev     : AutoAux, RI-MP2 NMR, DLPNO-MP2 response, X2C  
  Van Anh Tran           : RI-MP2 g-tensors                              
  Willem Van den Heuvel  : Paramagnetic NMR                              
  Zikuan Wang            : NOTCH, Electric field optimization            
  Frank Wennmohs         : Technical directorship and infrastructure     
  Hang Xu                : AUTO-CI-Response properties                   
                                                                         
[FACCTs GmbH]                                                            
  Markus Bursch, Miquel Garcia-Rates, Christoph Riplinger, Bernardo de Souza, Georgi L. Stoychev 
                                                                 
  APM, Basis sets (HGBS, AHGBS, def-TZVP (Ac-Lr), def2-XVPD (La-Lu)), CI-OPT, improved COSX, DLPNO-Multilevel,           
  DOCKER, DRACO, updates on ESD, GOAT, IRC, LR-CPCM, MBIS, meta-GGA TD-DFT gradient, ML-optimized integration grids, 
  MM, NACMEs, nearIR, NEB, NEB-TS, NL-DFT gradient (VV10), 2- and 3-layer-ONIOM, interface openCOSMO-RS, QMMM,   
  Crystal-QMMM, SF, symmetry and pop. for TD-DFT, r2SCAN hybrids, SOLVATOR                                   
                                                                         
[Other institutions]                                                     
  V. Asgeirsson          : NEB                                           
  Christoph Bannwarth    : sTDA-DFT, sTD-DFT, PBEh-3c, B97-3c, D3        
  Sebastian Ehlert       : rSCAN, r2SCAN, r2SCAN-3c, D4, dhf basis sets  
  Marvin Friede          : D4 for Fr, Ra, Ac-Lr                          
  Lars Goerigk           : TD-DFT with DH, B97 family of functionals     
  Stefan Grimme          : VdW corrections, initial TS optimization, DFT functionals, gCP, sTDA/sTD-DF 
  Waldemar Hujo          : DFT-NL                                        
  H. Jonsson             : NEB                                           
  Holger Kruse           : gCP                                           
  Marcel Mueller         : wB97X-3c, vDZP basis set                      
  Hagen Neugebauer       : wr2SCAN                                       
  Tobias Risthaus        : range-separated hybrid DFT                    
  Lukas Wittmann         : regularized MP2, r2SCAN double-hybrids, wr2SCAN        
                                                                         
We gratefully acknowledge several colleagues who have allowed us to      
interface, adapt or use parts of their codes:                            
  Ed Valeev, F. Pavosevic, A. Kumar             : LibInt (2-el integral package), F12 methods 
  Garnet Chan, S. Sharma, J. Yang, R. Olivares  : DMRG                   
  Ulf Ekstrom                                   : XCFun DFT Library      
  Mihaly Kallay                                 : mrcc  (arbitrary order and MRCC methods)
  Frank Weinhold                                : gennbo (NPA and NBO analysis)           
  Simon Mueller                                 : openCOSMO-RS                            
  Christopher J. Cramer and Donald G. Truhlar   : smd solvation model                     
  S Lehtola, MJT Oliveira, MAL Marques          : LibXC Library                           
  Liviu Ungur et al                             : ANISO software                          


 Your calculation uses the libint2 library for the computation of 2-el integrals
 For citations please refer to: http://libint.valeyev.net

 Your ORCA version has been built with support for libXC version: 6.2.2
 For citations please refer to: https://libxc.gitlab.io

 This ORCA versions uses:
   CBLAS   interface :  Fast vector & matrix operations
   LAPACKE interface :  Fast linear algebra routines
   SCALAPACK package :  Parallel linear algebra routines
   Shared memory     :  Shared parallel matrices
   BLAS/LAPACK       :  OpenBLAS 0.3.27  USE64BITINT DYNAMIC_ARCH NO_AFFINITY SkylakeX SINGLE_THREADED
        Core in use  :  SkylakeX
   Copyright (c) 2011-2014, The OpenBLAS Project


NOTE: MaxCore=8000 MB was set to SCF,MP2,MDCI,CIPSI,MRCI and CIS
      => If you want to overwrite this, your respective input block should be placed after the MaxCore statement
Your calculation utilizes the atom-pairwise dispersion correction
with the Becke-Johnson damping scheme (D3BJ)


Your calculation utilizes the SMD solvation module
Please cite in your paper:
A.V. Marenich, C.J. Cramer, D.G. Truhlar J. Phys. Chem. B, 113, (2009), 6378 

Warning: RI is on but no J-basis has been assigned. Assigning Def2/J (nothing to worry about!)
================================================================================

----- Orbital basis set information -----
Your calculation utilizes the basis: def2-TZVP
   F. Weigend and R. Ahlrichs, Phys. Chem. Chem. Phys. 7, 3297 (2005).

----- AuxJ basis set information -----
Your calculation utilizes the auxiliary basis: def2/J
   F. Weigend, Phys. Chem. Chem. Phys. 8, 1057 (2006).

================================================================================
                                        WARNINGS
                       Please study these warnings very carefully!
================================================================================



WARNING: SCAN, rSCAN, or r2SCAN functional requested.
  ===> : libXC variant has now been activated.



WARNING: your system is open-shell and RHF/RKS was chosen
  ===> : WILL SWITCH to UHF/UKS


================================================================================
                                       INPUT FILE
================================================================================
NAME = rf_mecn_freq_r2s_C2_D_B.inp
|  1> !r2scanh def2-TZVP freq d3 TightSCF SlowConv defgrid2
|  2>  
|  3> %pal
|  4> nprocs 20
|  5> end
|  6>  
|  7> %scf
|  8> MaxIter 1500
|  9> end
| 10>  
| 11> %maxcore 8000
| 12>  
| 13> !CPCM
| 14> %cpcm smd true
| 15> SMDsolvent "ACETONITRILE"
| 16> end
| 17>  
| 18> * xyz -1 2
| 19> 6        4.406807000     -0.672494000     -0.384234000
| 20> 8        3.978529000     -1.085801000     -1.481434000
| 21> 8        5.444089000     -0.966900000      0.236821000
| 22> 6        3.522989000      0.332427000      0.290406000
| 23> 6        2.216275000      0.886374000     -0.174567000
| 24> 6        0.997208000     -0.034588000      0.135282000
| 25> 6       -0.388227000      0.672155000      0.049139000
| 26> 6       -1.574882000     -0.326819000     -0.096513000
| 27> 6       -2.949983000      0.303845000      0.271143000
| 28> 6       -4.167293000     -0.486874000     -0.280573000
| 29> 9        3.773270000      0.661263000      1.561452000
| 30> 9        1.970359000      2.066783000      0.467874000
| 31> 9        2.224148000      1.139568000     -1.497142000
| 32> 9        1.004343000     -1.072357000     -0.715309000
| 33> 9        1.140078000     -0.507349000      1.388970000
| 34> 9       -0.578007000      1.396134000      1.165026000
| 35> 9       -0.404293000      1.496500000     -1.009743000
| 36> 9       -1.370350000     -1.378675000      0.711798000
| 37> 9       -1.621974000     -0.759767000     -1.365861000
| 38> 9       -3.023504000      1.552413000     -0.215655000
| 39> 9       -3.063695000      0.348521000      1.604867000
| 40> 9       -4.054402000     -1.778011000      0.012259000
| 41> 9       -5.273603000     -0.014128000      0.281795000
| 42> 9       -4.268062000     -0.346613000     -1.594991000
| 43> *
| 44> 
| 45>                          ****END OF INPUT****
================================================================================

                       ****************************
                       * Single Point Calculation *
                       ****************************

---------------------------------
CARTESIAN COORDINATES (ANGSTROEM)
---------------------------------
  C      4.406807   -0.672494   -0.384234
  O      3.978529   -1.085801   -1.481434
  O      5.444089   -0.966900    0.236821
  C      3.522989    0.332427    0.290406
  C      2.216275    0.886374   -0.174567
  C      0.997208   -0.034588    0.135282
  C     -0.388227    0.672155    0.049139
  C     -1.574882   -0.326819   -0.096513
  C     -2.949983    0.303845    0.271143
  C     -4.167293   -0.486874   -0.280573
  F      3.773270    0.661263    1.561452
  F      1.970359    2.066783    0.467874
  F      2.224148    1.139568   -1.497142
  F      1.004343   -1.072357   -0.715309
  F      1.140078   -0.507349    1.388970
  F     -0.578007    1.396134    1.165026
  F     -0.404293    1.496500   -1.009743
  F     -1.370350   -1.378675    0.711798
  F     -1.621974   -0.759767   -1.365861
  F     -3.023504    1.552413   -0.215655
  F     -3.063695    0.348521    1.604867
  F     -4.054402   -1.778011    0.012259
  F     -5.273603   -0.014128    0.281795
  F     -4.268062   -0.346613   -1.594991

----------------------------
CARTESIAN COORDINATES (A.U.)
----------------------------
  NO LB      ZA    FRAG     MASS         X           Y           Z
   0 C     6.0000    0    12.011    8.327658   -1.270829   -0.726097
   1 O     8.0000    0    15.999    7.518330   -2.051867   -2.799505
   2 O     8.0000    0    15.999   10.287837   -1.827176    0.447527
   3 C     6.0000    0    12.011    6.657484    0.628196    0.548788
   4 C     6.0000    0    12.011    4.188153    1.675004   -0.329884
   5 C     6.0000    0    12.011    1.884450   -0.065362    0.255646
   6 C     6.0000    0    12.011   -0.733643    1.270189    0.092859
   7 C     6.0000    0    12.011   -2.976096   -0.617598   -0.182383
   8 C     6.0000    0    12.011   -5.574660    0.574184    0.512386
   9 C     6.0000    0    12.011   -7.875042   -0.920059   -0.530206
  10 F     9.0000    0    18.998    7.130447    1.249606    2.950717
  11 F     9.0000    0    18.998    3.723439    3.905654    0.884154
  12 F     9.0000    0    18.998    4.203031    2.153471   -2.829188
  13 F     9.0000    0    18.998    1.897933   -2.026461   -1.351738
  14 F     9.0000    0    18.998    2.154435   -0.958751    2.624773
  15 F     9.0000    0    18.998   -1.092275    2.638311    2.201580
  16 F     9.0000    0    18.998   -0.764003    2.827975   -1.908138
  17 F     9.0000    0    18.998   -2.589586   -2.605318    1.345103
  18 F     9.0000    0    18.998   -3.065087   -1.435752   -2.581103
  19 F     9.0000    0    18.998   -5.713595    2.933635   -0.407529
  20 F     9.0000    0    18.998   -5.789545    0.658609    3.032759
  21 F     9.0000    0    18.998   -7.661709   -3.359954    0.023166
  22 F     9.0000    0    18.998   -9.965665   -0.026698    0.532515
  23 F     9.0000    0    18.998   -8.065468   -0.655004   -3.014096

--------------------------------
INTERNAL COORDINATES (ANGSTROEM)
--------------------------------
 C      0   0   0     0.000000000000     0.00000000     0.00000000
 O      1   0   0     1.248235779624     0.00000000     0.00000000
 O      1   2   0     1.244322367148   130.27038984     0.00000000
 C      1   2   3     1.498712648564   114.54208088   180.36300730
 C      4   1   2     1.493505489556   128.64682163     0.26640671
 C      5   4   1     1.558942512966   113.77757636    82.17579611
 C      6   5   4     1.557670190934   114.61300332   163.03543601
 C      7   6   5     1.557983840354   113.05967937   161.37374207
 C      8   7   6     1.556859266418   113.01183807   161.51909469
 C      9   8   7     1.552891083662   113.71662593   161.58469747
 F      4   1   2     1.336537177924   118.85733975   168.67221976
 F      5   4   1     1.366224917361   109.36264932   200.51840516
 F      5   4   1     1.346615689939   111.73997128   319.39773670
 F      6   5   4     1.341834734558   109.07114596   285.14018811
 F      6   5   4     1.347459981359   108.01594016    42.92242261
 F      7   6   5     1.343639028017   108.91525782   281.93163273
 F      7   6   5     1.342026037491   109.44977948    40.79203242
 F      8   7   6     1.342237332397   109.27588719    41.17849299
 F      8   7   6     1.341978379957   108.78500405   282.53037160
 F      9   8   7     1.342125061561   109.85126208    40.97556529
 F      9   8   7     1.339308057206   108.88512602   281.68294425
 F     10   9   8     1.328732369920   110.48023914    49.47052292
 F     10   9   8     1.328031763189   108.74250642   168.89201997
 F     10   9   8     1.325715738085   110.97544447   288.27877714

---------------------------
INTERNAL COORDINATES (A.U.)
---------------------------
 C      0   0   0     0.000000000000     0.00000000     0.00000000
 O      1   0   0     2.358823774051     0.00000000     0.00000000
 O      1   2   0     2.351428496222   130.27038984     0.00000000
 C      1   2   3     2.832156459229   114.54208088   180.36300730
 C      4   1   2     2.822316354769   128.64682163     0.26640671
 C      5   4   1     2.945974408033   113.77757636    82.17579611
 C      6   5   4     2.943570067837   114.61300332   163.03543601
 C      7   6   5     2.944162779344   113.05967937   161.37374207
 C      8   7   6     2.942037642588   113.01183807   161.51909469
 C      9   8   7     2.934538863929   113.71662593   161.58469747
 F      4   1   2     2.525689234080   118.85733975   168.67221976
 F      5   4   1     2.581790931151   109.36264932   200.51840516
 F      5   4   1     2.544734861626   111.73997128   319.39773670
 F      6   5   4     2.535700165298   109.07114596   285.14018811
 F      6   5   4     2.546330341188   108.01594016    42.92242261
 F      7   6   5     2.539109785800   108.91525782   281.93163273
 F      7   6   5     2.536061675450   109.44977948    40.79203242
 F      8   7   6     2.536460964956   109.27588719    41.17849299
 F      8   7   6     2.535971615762   108.78500405   282.53037160
 F      9   8   7     2.536248803822   109.85126208    40.97556529
 F      9   8   7     2.530925437073   108.88512602   281.68294425
 F     10   9   8     2.510940284425   110.48023914    49.47052292
 F     10   9   8     2.509616329577   108.74250642   168.89201997
 F     10   9   8     2.505239676410   110.97544447   288.27877714

---------------------
BASIS SET INFORMATION
---------------------
There are 3 groups of distinct atoms

 Group   1 Type C   : 11s6p2d1f contracted to 5s3p2d1f pattern {62111/411/11/1}
 Group   2 Type O   : 11s6p2d1f contracted to 5s3p2d1f pattern {62111/411/11/1}
 Group   3 Type F   : 11s6p2d1f contracted to 5s3p2d1f pattern {62111/411/11/1}

Atom   0C    basis set group =>   1
Atom   1O    basis set group =>   2
Atom   2O    basis set group =>   2
Atom   3C    basis set group =>   1
Atom   4C    basis set group =>   1
Atom   5C    basis set group =>   1
Atom   6C    basis set group =>   1
Atom   7C    basis set group =>   1
Atom   8C    basis set group =>   1
Atom   9C    basis set group =>   1
Atom  10F    basis set group =>   3
Atom  11F    basis set group =>   3
Atom  12F    basis set group =>   3
Atom  13F    basis set group =>   3
Atom  14F    basis set group =>   3
Atom  15F    basis set group =>   3
Atom  16F    basis set group =>   3
Atom  17F    basis set group =>   3
Atom  18F    basis set group =>   3
Atom  19F    basis set group =>   3
Atom  20F    basis set group =>   3
Atom  21F    basis set group =>   3
Atom  22F    basis set group =>   3
Atom  23F    basis set group =>   3
---------------------------------
AUXILIARY/J BASIS SET INFORMATION
---------------------------------
There are 3 groups of distinct atoms

 Group   1 Type C   : 12s5p4d2f1g contracted to 6s4p3d1f1g pattern {711111/2111/211/2/1}
 Group   2 Type O   : 12s5p4d2f1g contracted to 6s4p3d1f1g pattern {711111/2111/211/2/1}
 Group   3 Type F   : 12s5p4d2f1g contracted to 6s4p3d1f1g pattern {711111/2111/211/2/1}

Atom   0C    basis set group =>   1
Atom   1O    basis set group =>   2
Atom   2O    basis set group =>   2
Atom   3C    basis set group =>   1
Atom   4C    basis set group =>   1
Atom   5C    basis set group =>   1
Atom   6C    basis set group =>   1
Atom   7C    basis set group =>   1
Atom   8C    basis set group =>   1
Atom   9C    basis set group =>   1
Atom  10F    basis set group =>   3
Atom  11F    basis set group =>   3
Atom  12F    basis set group =>   3
Atom  13F    basis set group =>   3
Atom  14F    basis set group =>   3
Atom  15F    basis set group =>   3
Atom  16F    basis set group =>   3
Atom  17F    basis set group =>   3
Atom  18F    basis set group =>   3
Atom  19F    basis set group =>   3
Atom  20F    basis set group =>   3
Atom  21F    basis set group =>   3
Atom  22F    basis set group =>   3
Atom  23F    basis set group =>   3


           ************************************************************
           *        Program running with 20 parallel MPI-processes    *
           *              working on a common directory               *
           ************************************************************
------------------------------------------------------------------------------
                             ORCA STARTUP CALCULATIONS
                           -- RI-GTO INTEGRALS CHOSEN --
------------------------------------------------------------------------------
------------------------------------------------------------------------------
                   ___                                                        
                  /   \      - P O W E R E D   B Y -                         
                 /     \                                                     
                 |  |  |   _    _      __       _____    __    __             
                 |  |  |  | |  | |    /  \     |  _  \  |  |  /  |          
                  \  \/   | |  | |   /    \    | | | |  |  | /  /          
                 / \  \   | |__| |  /  /\  \   | |_| |  |  |/  /          
                |  |  |   |  __  | /  /__\  \  |    /   |      \           
                |  |  |   | |  | | |   __   |  |    \   |  |\   \          
                \     /   | |  | | |  |  |  |  | |\  \  |  | \   \       
                 \___/    |_|  |_| |__|  |__|  |_| \__\ |__|  \__/        
                                                                              
                      - O R C A' S   B I G   F R I E N D -                    
                                      &                                       
                       - I N T E G R A L  F E E D E R -                       
                                                                              
 v1 FN, 2020, v2 2021, v3 2022-2024                                           
------------------------------------------------------------------------------


----------------------
SHARK INTEGRAL PACKAGE
----------------------

Number of atoms                             ...     24
Number of basis functions                   ...    744
Number of shells                            ...    264
Maximum angular momentum                    ...      3
Integral batch strategy                     ... SHARK/LIBINT Hybrid
RI-J (if used) integral strategy            ... SPLIT-RIJ (Revised 2003 algorithm where possible)
Printlevel                                  ...      1
Contraction scheme used                     ... SEGMENTED contraction
Prescreening option                         ... SCHWARTZ
   Thresh                                   ... 2.500e-11
   Tcut                                     ... 2.500e-12
   Tpresel                                  ... 2.500e-12 
Coulomb Range Separation                    ... NOT USED
Exchange Range Separation                   ... NOT USED
Multipole approximations                    ... NOT USED
Finite Nucleus Model                        ... NOT USED
CABS basis                                  ... NOT available
Auxiliary Coulomb fitting basis             ... AVAILABLE
   # of basis functions in Aux-J            ...   1176
   # of shells in Aux-J                     ...    360
   Maximum angular momentum in Aux-J        ...      4
Auxiliary J/K fitting basis                 ... NOT available
Auxiliary Correlation fitting basis         ... NOT available
Auxiliary 'external' fitting basis          ... NOT available

Checking pre-screening integrals            ... done (  0.0 sec) Dimension = 264
Check shell pair data                       ... done (  0.0 sec)
Shell pair information
Shell pair cut-off parameter TPreSel        ...   2.5e-12
Total number of shell pairs                 ...     34980
Shell pairs after pre-screening             ...     22187
Total number of primitive shell pairs       ...    115968
Primitive shell pairs kept                  ...     47132
          la=0 lb=0:   4124 shell pairs
          la=1 lb=0:   6034 shell pairs
          la=1 lb=1:   2110 shell pairs
          la=2 lb=0:   3299 shell pairs
          la=2 lb=1:   2440 shell pairs
          la=2 lb=2:    690 shell pairs
          la=3 lb=0:   1516 shell pairs
          la=3 lb=1:   1181 shell pairs
          la=3 lb=2:    641 shell pairs
          la=3 lb=3:    152 shell pairs

Calculating one electron integrals          ... done (  0.0 sec)
Calculating RI/J V-Matrix + Cholesky decomp.... done (  0.1 sec)
Calculating Nuclear repulsion               ... done (  0.0 sec) ENN=   2665.987155005932 Eh

Diagonalization of the overlap matrix:
Smallest eigenvalue                        ... 5.897e-05
Time for diagonalization                   ...    0.111 sec
Threshold for overlap eigenvalues          ... 1.000e-07
Number of eigenvalues below threshold      ... 0
Time for construction of square roots      ...    0.051 sec
Total time needed                          ...    0.167 sec

-------------------
DFT GRID GENERATION
-------------------

General Integration Accuracy     IntAcc      ... 4.388
Radial Grid Type                 RadialGrid  ... OptM3 with GC (2021)
Angular Grid (max. ang.)         AngularGrid ... 4 (Lebedev-302)
Angular grid pruning method      GridPruning ... 4 (adaptive)
Weight generation scheme         WeightScheme... mBecke (2022)
Basis function cutoff            BFCut       ... 1.0000e-11
Integration weight cutoff        WCut        ... 1.0000e-14
Partially contracted basis set               ... off
Rotationally invariant grid construction     ... off
Angular grids for H and He will be reduced by one unit

Total number of grid points                  ...   145395
Total number of batches                      ...     2283
Average number of points per batch           ...       63
Average number of grid points per atom       ...     6058

--------------------
COSX GRID GENERATION
--------------------

GRIDX 1
-------
General Integration Accuracy     IntAcc      ... 3.816
Radial Grid Type                 RadialGrid  ... OptM3 with GC (2021)
Angular Grid (max. ang.)         AngularGrid ... 1 (Lebedev-50)
Angular grid pruning method      GridPruning ... 4 (adaptive)
Weight generation scheme         WeightScheme... mBecke (2022)
Basis function cutoff            BFCut       ... 1.0000e-11
Integration weight cutoff        WCut        ... 1.0000e-14
Partially contracted basis set               ... on
Rotationally invariant grid construction     ... off
Angular grids for H and He will be reduced by one unit

Total number of grid points                  ...    18252
Total number of batches                      ...      153
Average number of points per batch           ...      119
Average number of grid points per atom       ...      760
UseSFitting                                  ... on

GRIDX 2
-------
General Integration Accuracy     IntAcc      ... 4.020
Radial Grid Type                 RadialGrid  ... OptM3 with GC (2021)
Angular Grid (max. ang.)         AngularGrid ... 2 (Lebedev-110)
Angular grid pruning method      GridPruning ... 4 (adaptive)
Weight generation scheme         WeightScheme... mBecke (2022)
Basis function cutoff            BFCut       ... 1.0000e-11
Integration weight cutoff        WCut        ... 1.0000e-14
Partially contracted basis set               ... on
Rotationally invariant grid construction     ... off
Angular grids for H and He will be reduced by one unit

Total number of grid points                  ...    43279
Total number of batches                      ...      351
Average number of points per batch           ...      123
Average number of grid points per atom       ...     1803
UseSFitting                                  ... on

GRIDX 3
-------
General Integration Accuracy     IntAcc      ... 4.338
Radial Grid Type                 RadialGrid  ... OptM3 with GC (2021)
Angular Grid (max. ang.)         AngularGrid ... 3 (Lebedev-194)
Angular grid pruning method      GridPruning ... 4 (adaptive)
Weight generation scheme         WeightScheme... mBecke (2022)
Basis function cutoff            BFCut       ... 1.0000e-11
Integration weight cutoff        WCut        ... 1.0000e-14
Partially contracted basis set               ... on
Rotationally invariant grid construction     ... off
Angular grids for H and He will be reduced by one unit

Total number of grid points                  ...    95937
Total number of batches                      ...      759
Average number of points per batch           ...      126
Average number of grid points per atom       ...     3997
UseSFitting                                  ... on
Initializing property integral containers    ... done (  0.0 sec)

SHARK setup successfully completed in   4.0 seconds

Maximum memory used throughout the entire STARTUP-calculation: 57.3 MB


           ************************************************************
           *        Program running with 20 parallel MPI-processes    *
           *              working on a common directory               *
           ************************************************************
-------------------------------------------------------------------------------
                                 ORCA GUESS
                   Start orbitals & Density for SCF / CASSCF
-------------------------------------------------------------------------------

------------
SCF SETTINGS
------------
Hamiltonian:
 Density Functional     Method          .... DFT(GTOs)
  Functional kind                       .... Exchange
  Functional name                       .... Re-regularized SCAN exchange by Furness et al
  Functional family                     .... MGGA
  Functional refs                              
    [ 0] J. W. Furness, A. D. Kaplan, J. Ning, J. P. Perdew, and J. Sun.,  J. Phys. Chem. Lett. 11, 8208-8215 (2020), doi: 10.1021/acs.jpclett.0c02405
    [ 1] J. W. Furness, A. D. Kaplan, J. Ning, J. P. Perdew, and J. Sun.,  J. Phys. Chem. Lett. 11, 9248-9248 (2020), doi: 10.1021/acs.jpclett.0c03077
  Functional external parameters        .... 6
    Parameter  0 _c1        =  6.670000e-01 : c1 parameter        
    Parameter  1 _c2        =  8.000000e-01 : c2 parameter        
    Parameter  2 _d         =  1.240000e+00 : d parameter         
    Parameter  3 _k1        =  6.500000e-02 : k1 parameter        
    Parameter  4 _eta       =  1.000000e-03 : eta parameter       
    Parameter  5 _dp2       =  3.610000e-01 : dp2 parameter       
  Functional kind                       .... Correlation
  Functional name                       .... Re-regularized SCAN correlation by Furness et al
  Functional family                     .... MGGA
  Functional refs                              
    [ 0] J. W. Furness, A. D. Kaplan, J. Ning, J. P. Perdew, and J. Sun.,  J. Phys. Chem. Lett. 11, 8208-8215 (2020), doi: 10.1021/acs.jpclett.0c02405
    [ 1] J. W. Furness, A. D. Kaplan, J. Ning, J. P. Perdew, and J. Sun.,  J. Phys. Chem. Lett. 11, 9248-9248 (2020), doi: 10.1021/acs.jpclett.0c03077
  Functional external parameters        .... 1
    Parameter  0 _eta       =  1.000000e-03 : Regularization parameter
 Gradients option       PostSCFGGA      .... off
 Hybrid DFT is turned on
   Fraction HF Exchange ScalHFX         ....  0.100000
   Scaling of DF-GGA-X  ScalDFX         ....  0.900000
   Scaling of DF-GGA-C  ScalDFC         ....  1.000000
   Scaling of DF-LDA-C  ScalLDAC        ....  1.000000
   Perturbative correction              ....  0.000000
   NL short-range parameter             .... 11.900000
 RI-approximation to the Coulomb term is turned on
   Number of AuxJ basis functions       .... 1176
   RIJ-COSX (HFX calculated with COS-X)).... on


General Settings:
 Integral files         IntName         .... rf_mecn_freq_r2s_C2_D_B
 Hartree-Fock type      HFTyp           .... UHF
 Total Charge           Charge          ....   -1
 Multiplicity           Mult            ....    2
 Number of Electrons    NEL             ....  191
 Basis Dimension        Dim             ....  744
 Nuclear Repulsion      ENuc            ....   2665.9871550059 Eh

Convergence Acceleration:
 AO-DIIS                CNVDIIS         .... on
   Start iteration      DIISMaxIt       ....     0
   Startup error        DIISStart       ....  0.200000
   # of expansion vecs  DIISMaxEq       ....     5
   Bias factor          DIISBfac        ....   1.050
   Max. coefficient     DIISMaxC        ....  10.000
 MO-DIIS                CNVKDIIS        .... off
 Trust-Rad. Augm. Hess. CNVTRAH         .... auto
   Auto Start mean grad. ratio tolernc. ....  1.125000
   Auto Start start iteration           ....    50
   Auto Start num. interpolation iter.  ....    10
   Max. Number of Micro iterations      ....    24
   Max. Number of Macro iterations      .... Maxiter - #DIIS iter
   Number of Davidson start vectors     ....     2
   Converg. threshold    (grad. norm)   ....   1.000e-05
   Grad. Scal. Fac. for Micro threshold ....   0.100
   Minimum threshold for Micro iter.    ....   1.000e-02
   NR start threshold (gradient norm)   ....   1.000e-04
   Initial trust radius                 ....   0.400
   Minimum AH scaling param. (alpha)    ....   1.000
   Maximum AH scaling param. (alpha)    .... 1000.000
   Quad. conv. algorithm                .... NR
   White noise on init. David. guess    .... on
   Maximum white noise                  ....   0.010
   Pseudo random numbers                .... off
   Inactive MOs                         .... canonical
   Orbital update algorithm             .... Taylor
   Preconditioner                       .... Diag
   Full preconditioner red. dimension   ....   250
 SOSCF                  CNVSOSCF        .... on
   Start iteration      SOSCFMaxIt      ....   150
   Startup grad/error   SOSCFStart      ....  0.001000
   Hessian update       SOSCFHessUp     .... L-BFGS
 Level Shifting         CNVShift        .... on
   Level shift para.    LevelShift      ....    0.2500
   Turn off err/grad.   ShiftErr        ....    0.0000
 Zerner damping         CNVZerner       .... off
 Static damping         CNVDamp         .... on
   Fraction old density DampFac         ....    0.8500
   Max. Damping (<1)    DampMax         ....    0.9800
   Min. Damping (>=0)   DampMin         ....    0.0000
   Turn off err/grad.   DampErr         ....    0.0300

SCF Procedure:
 Maximum # iterations   MaxIter         ....  1500
 SCF integral mode      SCFMode         .... Direct
   Integral package                     .... SHARK and LIBINT hybrid scheme
 Reset frequency        DirectResetFreq ....    20
 Integral Threshold     Thresh          ....  2.500e-11 Eh
 Primitive CutOff       TCut            ....  2.500e-12 Eh

Convergence Tolerance:
 Convergence Check Mode ConvCheckMode   .... Total+1el-Energy
 Convergence forced     ConvForced      .... 0
 Energy Change          TolE            ....  1.000e-08 Eh
 1-El. energy change                    ....  1.000e-05 Eh
 Orbital Gradient       TolG            ....  1.000e-05
 Orbital Rotation angle TolX            ....  1.000e-05
 DIIS Error             TolErr          ....  5.000e-07

------------------------------
INITIAL GUESS: MODEL POTENTIAL
------------------------------
Loading Hartree-Fock densities                     ... done
Calculating cut-offs                               ... done
Initializing the effective Hamiltonian             ... done
Setting up the integral package (SHARK)            ... done
Starting the Coulomb interaction                   ... done (   0.2 sec)
Making the grid                                    ... done (   0.6 sec)
Mapping shells                                     ... done
Starting the XC term evaluation                    ... done (   0.2 sec)
  promolecular density results
     # of electrons  =    190.000344985
     EX              =   -197.254263093
     EC              =     -6.682476577
     EX+EC           =   -203.936739669
Transforming the Hamiltonian                       ... done (   0.1 sec)
Diagonalizing the Hamiltonian                      ... done (   0.1 sec)
Back transforming the eigenvectors                 ... done (   0.0 sec)
Now organizing SCF variables                       ... done
                      ------------------
                      INITIAL GUESS DONE (   1.5 sec)
                      ------------------
             **** ENERGY FILE WAS UPDATED (rf_mecn_freq_r2s_C2_D_B.en.tmp) ****
Finished Guess after   2.3 sec
Maximum memory used throughout the entire GUESS-calculation: 46.0 MB


           ************************************************************
           *        Program running with 20 parallel MPI-processes    *
           *              working on a common directory               *
           ************************************************************

-------------------------------------------------------------------------------------------
                                      ORCA LEAN-SCF
                              memory conserving SCF solver
-------------------------------------------------------------------------------------------

--------------------
CPCM SOLVATION MODEL
--------------------
CPCM parameters:
  Epsilon                                         ...      35.6880
  Refrac                                          ...       1.3442
  Rsolv                                           ...       1.3000
  Surface type                                    ... GAUSSIAN VDW
  Discretization scheme                           ... Constant charge density
    Threshold for H atoms                         ...       5.0000 (charges/Ang^2)
    Threshold for non-H atoms                     ...       5.0000 (charges/Ang^2)
  Epsilon function type                           ...         CPCM
Solvent:                                          ... ACETONITRILE
SMD-CDS solvent descriptors:
  Soln                                            ...       1.3442
  Soln25                                          ...       1.3416
  Sola                                            ...       0.0700
  Solb                                            ...       0.3200
  Solg                                            ...      41.2500
  Solc                                            ...       0.0000
  Solh                                            ...       0.0000
Radii:
  Scheme                                          ... Element-dependent radii
  Radius for C  used is    3.4960 Bohr (=   1.8500 Ang.)
  Radius for O  used is    4.0969 Bohr (=   2.1680 Ang.)
  Radius for F  used is    3.2692 Bohr (=   1.7300 Ang.)
Calculating surface                               ...        done! (  0.0s)
Cavity surface points                             ...         2097
Cavity Volume                                     ...    2091.8486
Cavity Surface-area                               ...    1083.9396
Calculating surface distance matrix               ...        done! (  0.0s)
Performing Cholesky decomposition & store         ...        done! (  0.1s)
Overall time for CPCM initialization              ...                 0.1s

----------------------------------------D-I-I-S--------------------------------------------
Iteration    Energy (Eh)           Delta-E    RMSDP     MaxDP     DIISErr   Damp  Time(sec)
-------------------------------------------------------------------------------------------
               ***  Starting incremental Fock matrix formation  ***
    1    -1852.6456054456912170     0.00e+00  3.86e-04  7.49e-02  1.62e-01  0.850   7.6
Warning: op=0 Small HOMO/LUMO gap (   0.019) - skipping pre-diagonalization
         Will do a full diagonalization
    2    -1852.7857212172630170    -1.40e-01  5.77e-04  1.40e-01  1.13e-01  0.850   5.8
                               ***Turning on AO-DIIS***
    3    -1852.8641920959671552    -7.85e-02  2.36e-04  5.39e-02  6.93e-02  0.850   4.7
    4    -1852.9116032207521130    -4.74e-02  1.03e-04  1.53e-02  5.20e-02  0.850   4.6
    5    -1852.9455346423346782    -3.39e-02  6.57e-05  4.46e-03  4.29e-02  0.850   4.4
    6    -1852.9724545623930680    -2.69e-02  5.61e-05  5.05e-03  3.68e-02  0.850   4.3
    7    -1852.9948624586213555    -2.24e-02  5.03e-05  5.11e-03  3.17e-02  0.850   4.2
    8    -1853.0138501102819646    -1.90e-02  4.41e-05  4.21e-03  2.68e-02  0.850   4.5
    9    -1853.0297578166000676    -1.59e-02  2.53e-04  2.35e-02  2.23e-02  0.000   4.2
   10    -1853.1141945933868556    -8.44e-02  2.83e-05  6.15e-03  2.66e-03  0.000   4.6
                              *** Initializing SOSCF ***
---------------------------------------S-O-S-C-F--------------------------------------
Iteration    Energy (Eh)           Delta-E    RMSDP     MaxDP     MaxGrad    Time(sec)
--------------------------------------------------------------------------------------
   11    -1853.1143338786005188    -1.39e-04  1.33e-05  2.36e-03  7.37e-04     4.5
               *** Restarting incremental Fock matrix formation ***
   12    -1853.1143573061881398    -2.34e-05  1.43e-05  1.80e-03  1.01e-03     7.6
   13    -1853.1143778268760798    -2.05e-05  1.35e-05  1.64e-03  3.00e-04     4.9
   14    -1853.1143785137828672    -6.87e-07  6.19e-06  7.56e-04  4.93e-04     4.9
   15    -1853.1143835326229237    -5.02e-06  4.63e-06  6.23e-04  1.80e-04     4.6
   16    -1853.1143826751922461     8.57e-07  2.71e-06  2.65e-04  1.98e-04     4.6
   17    -1853.1143843938016289    -1.72e-06  9.44e-07  1.66e-04  1.20e-05     4.3
   18    -1853.1143844040980184    -1.03e-08  3.89e-07  6.15e-05  1.33e-05     3.9
   19    -1853.1143844301432182    -2.60e-08  2.97e-07  5.40e-05  3.15e-06     3.8
   20    -1853.1143844132539016     1.69e-08  1.15e-07  2.61e-05  4.14e-06     3.4
   21    -1853.1143844218941013    -8.64e-09  1.80e-07  4.10e-05  1.10e-06     3.4
                 **** Energy Check signals convergence ****

               *****************************************************
               *                     SUCCESS                       *
               *           SCF CONVERGED AFTER  21 CYCLES          *
               *****************************************************

Recomputing exchange energy using gridx3       ... done (    8.677 sec)
Old exchange energy                            :    -19.918516734 Eh
New exchange energy                            :    -19.918526521 Eh
Exchange energy change after final integration :     -0.000009787 Eh
Total energy after final integration           :  -1853.114394209 Eh

SMD CDS free energy correction energy :                 3.19101     Kcal/mol
Total Energy after SMD CDS correction =             -1853.109309016 Eh
             **** ENERGY FILE WAS UPDATED (rf_mecn_freq_r2s_C2_D_B.en.tmp) ****

----------------
TOTAL SCF ENERGY
----------------

Total Energy       :      -1853.10930901613324 Eh          -50425.66789 eV

Components:
Nuclear Repulsion  :       2665.98715500593244 Eh           72545.19861 eV
Electronic Energy  :      -4519.01861831865426 Eh         -122968.74821 eV
One Electron Energy:      -7906.32845251165691 Eh         -215142.13481 eV
Two Electron Energy:       3387.30983419300219 Eh           92173.38659 eV
CPCM Dielectric    :         -0.08292110917186 Eh              -2.25640 eV
SMD CDS (Gcds)     :          0.00508519319660 Eh               0.13838 eV

Virial components:
Potential Energy   :      -3700.09215143504116 Eh         -100684.62615 eV
Kinetic Energy     :       1846.98284241890815 Eh           50258.95826 eV
Virial Ratio       :          2.00331701326971

DFT components:
N(Alpha)           :       95.999983608399 electrons
N(Beta)            :       94.999973871921 electrons
N(Total)           :      190.999957480320 electrons
E(X)               :     -180.220757233821 Eh       
E(C)               :       -6.652019049692 Eh       
E(XC)              :     -186.872776283513 Eh       

CPCM Solvation Model Properties:
Surface-charge          :          0.99015958359337
Corrected charge        :          1.00000000000000
Outlying charge corr.   :          0.00000535943711 Eh               0.00015 eV
Free-energy (cav+disp)  :          0.00508519319660 Eh               0.13838 eV

---------------
SCF CONVERGENCE
---------------

  Last Energy change         ...    8.6402e-09  Tolerance :   1.0000e-08
  Last MAX-Density change    ...    4.1045e-05  Tolerance :   1.0000e-07
  Last RMS-Density change    ...    1.7975e-07  Tolerance :   5.0000e-09
  Last DIIS Error            ...    7.3705e-04  Tolerance :   5.0000e-07
  Last Orbital Gradient      ...    1.0993e-06  Tolerance :   1.0000e-05
  Last Orbital Rotation      ...    8.9327e-06  Tolerance :   1.0000e-05


----------------------
UHF SPIN CONTAMINATION
----------------------

Warning: in a DFT calculation there is little theoretical justification to 
         calculate <S**2> as in Hartree-Fock theory. We will do it anyways
         but you should keep in mind that the values have only limited relevance

Expectation value of <S**2>     :     0.758676
Ideal value S*(S+1) for S=0.5   :     0.750000
Deviation                       :     0.008676

----------------
ORBITAL ENERGIES
----------------
                 SPIN UP ORBITALS
  NO   OCC          E(Eh)            E(eV) 
   0   1.0000     -24.731901      -672.9892 
   1   1.0000     -24.730863      -672.9610 
   2   1.0000     -24.730588      -672.9535 
   3   1.0000     -24.730016      -672.9380 
   4   1.0000     -24.729950      -672.9362 
   5   1.0000     -24.729778      -672.9315 
   6   1.0000     -24.729380      -672.9206 
   7   1.0000     -24.726027      -672.8294 
   8   1.0000     -24.725608      -672.8180 
   9   1.0000     -24.718161      -672.6153 
  10   1.0000     -24.718070      -672.6129 
  11   1.0000     -24.701836      -672.1711 
  12   1.0000     -24.701080      -672.1506 
  13   1.0000     -24.696718      -672.0318 
  14   1.0000     -19.041387      -518.1425 
  15   1.0000     -19.039511      -518.0914 
  16   1.0000     -10.439319      -284.0683 
  17   1.0000     -10.384651      -282.5807 
  18   1.0000     -10.384165      -282.5675 
  19   1.0000     -10.380134      -282.4578 
  20   1.0000     -10.369039      -282.1559 
  21   1.0000     -10.355851      -281.7970 
  22   1.0000     -10.253209      -279.0040 
  23   1.0000     -10.229809      -278.3673 
  24   1.0000      -1.361086       -37.0370 
  25   1.0000      -1.335291       -36.3351 
  26   1.0000      -1.319006       -35.8920 
  27   1.0000      -1.312609       -35.7179 
  28   1.0000      -1.305626       -35.5279 
  29   1.0000      -1.287789       -35.0425 
  30   1.0000      -1.272382       -34.6233 
  31   1.0000      -1.266268       -34.4569 
  32   1.0000      -1.264624       -34.4122 
  33   1.0000      -1.257695       -34.2236 
  34   1.0000      -1.254559       -34.1383 
  35   1.0000      -1.251215       -34.0473 
  36   1.0000      -1.245988       -33.9050 
  37   1.0000      -1.227651       -33.4061 
  38   1.0000      -1.020508       -27.7694 
  39   1.0000      -0.934338       -25.4246 
  40   1.0000      -0.843111       -22.9422 
  41   1.0000      -0.820590       -22.3294 
  42   1.0000      -0.793760       -21.5993 
  43   1.0000      -0.752589       -20.4790 
  44   1.0000      -0.705980       -19.2107 
  45   1.0000      -0.678035       -18.4503 
  46   1.0000      -0.656805       -17.8726 
  47   1.0000      -0.639802       -17.4099 
  48   1.0000      -0.635255       -17.2862 
  49   1.0000      -0.628032       -17.0896 
  50   1.0000      -0.616286       -16.7700 
  51   1.0000      -0.612767       -16.6742 
  52   1.0000      -0.610641       -16.6164 
  53   1.0000      -0.598205       -16.2780 
  54   1.0000      -0.592716       -16.1286 
  55   1.0000      -0.584625       -15.9085 
  56   1.0000      -0.583494       -15.8777 
  57   1.0000      -0.572993       -15.5919 
  58   1.0000      -0.564013       -15.3476 
  59   1.0000      -0.557706       -15.1760 
  60   1.0000      -0.533666       -14.5218 
  61   1.0000      -0.502713       -13.6795 
  62   1.0000      -0.498708       -13.5705 
  63   1.0000      -0.492681       -13.4065 
  64   1.0000      -0.488807       -13.3011 
  65   1.0000      -0.485893       -13.2218 
  66   1.0000      -0.485363       -13.2074 
  67   1.0000      -0.477915       -13.0047 
  68   1.0000      -0.473346       -12.8804 
  69   1.0000      -0.470184       -12.7944 
  70   1.0000      -0.465608       -12.6698 
  71   1.0000      -0.462118       -12.5749 
  72   1.0000      -0.458164       -12.4673 
  73   1.0000      -0.449314       -12.2265 
  74   1.0000      -0.447757       -12.1841 
  75   1.0000      -0.445920       -12.1341 
  76   1.0000      -0.438161       -11.9230 
  77   1.0000      -0.437294       -11.8994 
  78   1.0000      -0.433710       -11.8018 
  79   1.0000      -0.432246       -11.7620 
  80   1.0000      -0.427123       -11.6226 
  81   1.0000      -0.426592       -11.6082 
  82   1.0000      -0.424666       -11.5557 
  83   1.0000      -0.422749       -11.5036 
  84   1.0000      -0.416127       -11.3234 
  85   1.0000      -0.409091       -11.1319 
  86   1.0000      -0.404110       -10.9964 
  87   1.0000      -0.391502       -10.6533 
  88   1.0000      -0.382423       -10.4063 
  89   1.0000      -0.380112       -10.3434 
  90   1.0000      -0.362180        -9.8554 
  91   1.0000      -0.326960        -8.8970 
  92   1.0000      -0.239842        -6.5264 
  93   1.0000      -0.229927        -6.2566 
  94   1.0000      -0.220540        -6.0012 
  95   1.0000      -0.213030        -5.7968 
  96   0.0000      -0.005454        -0.1484 
  97   0.0000       0.005163         0.1405 
  98   0.0000       0.037000         1.0068 
  99   0.0000       0.053586         1.4581 
 100   0.0000       0.082876         2.2552 
 101   0.0000       0.088989         2.4215 
 102   0.0000       0.112808         3.0697 
 103   0.0000       0.116146         3.1605 
 104   0.0000       0.122193         3.3250 
 105   0.0000       0.138357         3.7649 
 106   0.0000       0.151170         4.1135 

                 SPIN DOWN ORBITALS
  NO   OCC          E(Eh)            E(eV) 
   0   1.0000     -24.731902      -672.9893 
   1   1.0000     -24.730864      -672.9610 
   2   1.0000     -24.730587      -672.9535 
   3   1.0000     -24.730010      -672.9378 
   4   1.0000     -24.729946      -672.9360 
   5   1.0000     -24.729780      -672.9315 
   6   1.0000     -24.729379      -672.9206 
   7   1.0000     -24.726011      -672.8290 
   8   1.0000     -24.725614      -672.8182 
   9   1.0000     -24.718126      -672.6144 
  10   1.0000     -24.718038      -672.6120 
  11   1.0000     -24.701289      -672.1562 
  12   1.0000     -24.700539      -672.1358 
  13   1.0000     -24.691996      -671.9034 
  14   1.0000     -19.038822      -518.0727 
  15   1.0000     -19.038062      -518.0520 
  16   1.0000     -10.439311      -284.0681 
  17   1.0000     -10.384587      -282.5790 
  18   1.0000     -10.384141      -282.5668 
  19   1.0000     -10.379957      -282.4530 
  20   1.0000     -10.368202      -282.1331 
  21   1.0000     -10.356800      -281.8229 
  22   1.0000     -10.237606      -278.5794 
  23   1.0000     -10.231223      -278.4057 
  24   1.0000      -1.361079       -37.0368 
  25   1.0000      -1.335212       -36.3330 
  26   1.0000      -1.318879       -35.8885 
  27   1.0000      -1.312568       -35.7168 
  28   1.0000      -1.305443       -35.5229 
  29   1.0000      -1.286550       -35.0088 
  30   1.0000      -1.272377       -34.6231 
  31   1.0000      -1.266261       -34.4567 
  32   1.0000      -1.264592       -34.4113 
  33   1.0000      -1.257587       -34.2207 
  34   1.0000      -1.254361       -34.1329 
  35   1.0000      -1.247584       -33.9485 
  36   1.0000      -1.241794       -33.7909 
  37   1.0000      -1.226026       -33.3619 
  38   1.0000      -1.017879       -27.6979 
  39   1.0000      -0.930334       -25.3157 
  40   1.0000      -0.842500       -22.9256 
  41   1.0000      -0.817581       -22.2475 
  42   1.0000      -0.787094       -21.4179 
  43   1.0000      -0.744809       -20.2673 
  44   1.0000      -0.699905       -19.0454 
  45   1.0000      -0.675073       -18.3697 
  46   1.0000      -0.649680       -17.6787 
  47   1.0000      -0.639671       -17.4063 
  48   1.0000      -0.634474       -17.2649 
  49   1.0000      -0.627990       -17.0885 
  50   1.0000      -0.615906       -16.7596 
  51   1.0000      -0.611672       -16.6445 
  52   1.0000      -0.609588       -16.5877 
  53   1.0000      -0.597833       -16.2679 
  54   1.0000      -0.592009       -16.1094 
  55   1.0000      -0.583737       -15.8843 
  56   1.0000      -0.581114       -15.8129 
  57   1.0000      -0.572046       -15.5662 
  58   1.0000      -0.562914       -15.3177 
  59   1.0000      -0.555230       -15.1086 
  60   1.0000      -0.530668       -14.4402 
  61   1.0000      -0.502594       -13.6763 
  62   1.0000      -0.498633       -13.5685 
  63   1.0000      -0.492638       -13.4053 
  64   1.0000      -0.487786       -13.2733 
  65   1.0000      -0.485340       -13.2068 
  66   1.0000      -0.480810       -13.0835 
  67   1.0000      -0.473680       -12.8895 
  68   1.0000      -0.470222       -12.7954 
  69   1.0000      -0.465439       -12.6652 
  70   1.0000      -0.461938       -12.5700 
  71   1.0000      -0.461440       -12.5564 
  72   1.0000      -0.453703       -12.3459 
  73   1.0000      -0.448590       -12.2068 
  74   1.0000      -0.444631       -12.0990 
  75   1.0000      -0.441747       -12.0206 
  76   1.0000      -0.437564       -11.9067 
  77   1.0000      -0.437223       -11.8974 
  78   1.0000      -0.432728       -11.7751 
  79   1.0000      -0.431665       -11.7462 
  80   1.0000      -0.426806       -11.6140 
  81   1.0000      -0.426270       -11.5994 
  82   1.0000      -0.423450       -11.5227 
  83   1.0000      -0.421324       -11.4648 
  84   1.0000      -0.415407       -11.3038 
  85   1.0000      -0.407989       -11.1019 
  86   1.0000      -0.402710       -10.9583 
  87   1.0000      -0.389386       -10.5957 
  88   1.0000      -0.380578       -10.3561 
  89   1.0000      -0.372613       -10.1393 
  90   1.0000      -0.359812        -9.7910 
  91   1.0000      -0.324061        -8.8181 
  92   1.0000      -0.227049        -6.1783 
  93   1.0000      -0.221946        -6.0395 
  94   1.0000      -0.215745        -5.8707 
  95   0.0000      -0.092186        -2.5085 
  96   0.0000      -0.002644        -0.0719 
  97   0.0000       0.006423         0.1748 
  98   0.0000       0.038789         1.0555 
  99   0.0000       0.057389         1.5616 
 100   0.0000       0.089328         2.4307 
 101   0.0000       0.094481         2.5710 
 102   0.0000       0.113905         3.0995 
 103   0.0000       0.118476         3.2239 
 104   0.0000       0.130869         3.5611 
 105   0.0000       0.141407         3.8479 
*Only the first 10 virtual orbitals were printed.

                    ********************************
                    * MULLIKEN POPULATION ANALYSIS *
                    ********************************

--------------------------------------------
MULLIKEN ATOMIC CHARGES AND SPIN POPULATIONS
--------------------------------------------
   0 C :    0.266762   -0.076924
   1 O :   -0.533384    0.081746
   2 O :   -0.540965    0.048480
   3 C :    0.043335    0.824207
   4 C :    0.436010   -0.017737
   5 C :    0.274598    0.034563
   6 C :    0.329630    0.006137
   7 C :    0.298693    0.002704
   8 C :    0.330835    0.000578
   9 C :    0.470412    0.000303
  10 F :   -0.191903    0.078428
  11 F :   -0.198592    0.008578
  12 F :   -0.180266    0.007243
  13 F :   -0.169756    0.000825
  14 F :   -0.179998    0.000296
  15 F :   -0.168920    0.000304
  16 F :   -0.167145   -0.000055
  17 F :   -0.165182    0.000083
  18 F :   -0.165164    0.000107
  19 F :   -0.163814    0.000004
  20 F :   -0.160541    0.000037
  21 F :   -0.156324   -0.000012
  22 F :   -0.154050    0.000102
  23 F :   -0.154272    0.000002
Sum of atomic charges         :   -1.0000000
Sum of atomic spin populations:    1.0000000

-----------------------------------------------------
MULLIKEN REDUCED ORBITAL CHARGES AND SPIN POPULATIONS
-----------------------------------------------------
CHARGE
  0 C s       :     2.955306  s :     2.955306
      pz      :     0.806534  p :     2.494832
      px      :     0.825936
      py      :     0.862363
      dz2     :     0.066105  d :     0.258956
      dxz     :     0.062659
      dyz     :     0.045057
      dx2y2   :     0.040692
      dxy     :     0.044443
      f0      :     0.003486  f :     0.024143
      f+1     :     0.005956
      f-1     :     0.002685
      f+2     :     0.004158
      f-2     :     0.003207
      f+3     :     0.002250
      f-3     :     0.002402

  1 O s       :     3.806927  s :     3.806927
      pz      :     1.410981  p :     4.696054
      px      :     1.675594
      py      :     1.609480
      dz2     :     0.009994  d :     0.028624
      dxz     :     0.007209
      dyz     :     0.007331
      dx2y2   :     0.001823
      dxy     :     0.002267
      f0      :     0.000504  f :     0.001779
      f+1     :     0.000386
      f-1     :     0.000345
      f+2     :     0.000214
      f-2     :     0.000252
      f+3     :     0.000042
      f-3     :     0.000036

  2 O s       :     3.807370  s :     3.807370
      pz      :     1.640150  p :     4.703361
      px      :     1.431920
      py      :     1.631291
      dz2     :     0.004567  d :     0.028436
      dxz     :     0.008011
      dyz     :     0.002903
      dx2y2   :     0.006950
      dxy     :     0.006004
      f0      :     0.000158  f :     0.001798
      f+1     :     0.000416
      f-1     :     0.000050
      f+2     :     0.000350
      f-2     :     0.000300
      f+3     :     0.000284
      f-3     :     0.000240

  3 C s       :     3.295054  s :     3.295054
      pz      :     0.650139  p :     2.498242
      px      :     0.905668
      py      :     0.942436
      dz2     :     0.031184  d :     0.145968
      dxz     :     0.043752
      dyz     :     0.037399
      dx2y2   :     0.020510
      dxy     :     0.013123
      f0      :     0.003380  f :     0.017401
      f+1     :     0.004000
      f-1     :     0.003733
      f+2     :     0.001520
      f-2     :     0.001840
      f+3     :     0.001317
      f-3     :     0.001611

  4 C s       :     3.031091  s :     3.031091
      pz      :     0.614225  p :     2.219538
      px      :     0.918745
      py      :     0.686568
      dz2     :     0.062623  d :     0.286278
      dxz     :     0.059804
      dyz     :     0.066021
      dx2y2   :     0.044295
      dxy     :     0.053534
      f0      :     0.003721  f :     0.027083
      f+1     :     0.004903
      f-1     :     0.007571
      f+2     :     0.002371
      f-2     :     0.002679
      f+3     :     0.003278
      f-3     :     0.002560

  5 C s       :     3.148295  s :     3.148295
      pz      :     0.583907  p :     2.259856
      px      :     0.955469
      py      :     0.720480
      dz2     :     0.075009  d :     0.289392
      dxz     :     0.059501
      dyz     :     0.059978
      dx2y2   :     0.036862
      dxy     :     0.058042
      f0      :     0.004803  f :     0.027859
      f+1     :     0.004234
      f-1     :     0.006358
      f+2     :     0.003042
      f-2     :     0.004471
      f+3     :     0.002753
      f-3     :     0.002199

  6 C s       :     3.130916  s :     3.130916
      pz      :     0.574159  p :     2.221487
      px      :     0.927708
      py      :     0.719619
      dz2     :     0.081912  d :     0.290044
      dxz     :     0.062250
      dyz     :     0.055428
      dx2y2   :     0.034046
      dxy     :     0.056409
      f0      :     0.006120  f :     0.027924
      f+1     :     0.003895
      f-1     :     0.004334
      f+2     :     0.004101
      f-2     :     0.005303
      f+3     :     0.002205
      f-3     :     0.001966

  7 C s       :     3.142763  s :     3.142763
      pz      :     0.588145  p :     2.238247
      px      :     0.934082
      py      :     0.716020
      dz2     :     0.074790  d :     0.292278
      dxz     :     0.062986
      dyz     :     0.063169
      dx2y2   :     0.035957
      dxy     :     0.055376
      f0      :     0.004509  f :     0.028019
      f+1     :     0.004576
      f-1     :     0.006783
      f+2     :     0.003111
      f-2     :     0.003950
      f+3     :     0.002771
      f-3     :     0.002319

  8 C s       :     3.101373  s :     3.101373
      pz      :     0.622798  p :     2.251223
      px      :     0.945951
      py      :     0.682474
      dz2     :     0.057379  d :     0.288471
      dxz     :     0.060142
      dyz     :     0.076482
      dx2y2   :     0.034623
      dxy     :     0.059845
      f0      :     0.003634  f :     0.028098
      f+1     :     0.005213
      f-1     :     0.008277
      f+2     :     0.002103
      f-2     :     0.002215
      f+3     :     0.004125
      f-3     :     0.002531

  9 C s       :     3.021366  s :     3.021366
      pz      :     0.648698  p :     2.109183
      px      :     0.781127
      py      :     0.679357
      dz2     :     0.067826  d :     0.358388
      dxz     :     0.071179
      dyz     :     0.085814
      dx2y2   :     0.061052
      dxy     :     0.072517
      f0      :     0.004960  f :     0.040650
      f+1     :     0.008681
      f-1     :     0.007946
      f+2     :     0.004910
      f-2     :     0.002976
      f+3     :     0.007299
      f-3     :     0.003878

 10 F s       :     3.922664  s :     3.922664
      pz      :     1.510676  p :     5.251468
      px      :     1.885418
      py      :     1.855374
      dz2     :     0.007267  d :     0.017054
      dxz     :     0.004109
      dyz     :     0.004531
      dx2y2   :     0.000523
      dxy     :     0.000624
      f0      :     0.000266  f :     0.000716
      f+1     :     0.000166
      f-1     :     0.000188
      f+2     :     0.000042
      f-2     :     0.000047
      f+3     :     0.000003
      f-3     :     0.000003

 11 F s       :     3.926216  s :     3.926216
      pz      :     1.806277  p :     5.256115
      px      :     1.893819
      py      :     1.556019
      dz2     :     0.002012  d :     0.015611
      dxz     :     0.001015
      dyz     :     0.005098
      dx2y2   :     0.004226
      dxy     :     0.003259
      f0      :     0.000074  f :     0.000650
      f+1     :     0.000008
      f-1     :     0.000114
      f+2     :     0.000161
      f-2     :     0.000082
      f+3     :     0.000104
      f-3     :     0.000108

 12 F s       :     3.921838  s :     3.921838
      pz      :     1.464491  p :     5.241113
      px      :     1.905454
      py      :     1.871168
      dz2     :     0.008322  d :     0.016602
      dxz     :     0.003793
      dyz     :     0.003868
      dx2y2   :     0.000271
      dxy     :     0.000348
      f0      :     0.000332  f :     0.000713
      f+1     :     0.000152
      f-1     :     0.000186
      f+2     :     0.000016
      f-2     :     0.000023
      f+3     :     0.000002
      f-3     :     0.000001

 13 F s       :     3.926963  s :     3.926963
      pz      :     1.715452  p :     5.224836
      px      :     1.897460
      py      :     1.611924
      dz2     :     0.002785  d :     0.017234
      dxz     :     0.001665
      dyz     :     0.006677
      dx2y2   :     0.003403
      dxy     :     0.002704
      f0      :     0.000081  f :     0.000723
      f+1     :     0.000012
      f-1     :     0.000188
      f+2     :     0.000202
      f-2     :     0.000105
      f+3     :     0.000066
      f-3     :     0.000070

 14 F s       :     3.928080  s :     3.928080
      pz      :     1.507760  p :     5.234351
      px      :     1.896945
      py      :     1.829646
      dz2     :     0.006899  d :     0.016859
      dxz     :     0.003621
      dyz     :     0.004873
      dx2y2   :     0.000695
      dxy     :     0.000771
      f0      :     0.000234  f :     0.000708
      f+1     :     0.000124
      f-1     :     0.000228
      f+2     :     0.000051
      f-2     :     0.000062
      f+3     :     0.000004
      f-3     :     0.000005

 15 F s       :     3.927973  s :     3.927973
      pz      :     1.583141  p :     5.223076
      px      :     1.890153
      py      :     1.749782
      dz2     :     0.004912  d :     0.017154
      dxz     :     0.003026
      dyz     :     0.006157
      dx2y2   :     0.001460
      dxy     :     0.001598
      f0      :     0.000133  f :     0.000717
      f+1     :     0.000073
      f-1     :     0.000252
      f+2     :     0.000113
      f-2     :     0.000110
      f+3     :     0.000019
      f-3     :     0.000017

 16 F s       :     3.927495  s :     3.927495
      pz      :     1.613210  p :     5.221692
      px      :     1.899420
      py      :     1.709063
      dz2     :     0.004289  d :     0.017235
      dxz     :     0.002521
      dyz     :     0.006688
      dx2y2   :     0.001915
      dxy     :     0.001822
      f0      :     0.000112  f :     0.000723
      f+1     :     0.000045
      f-1     :     0.000256
      f+2     :     0.000148
      f-2     :     0.000108
      f+3     :     0.000029
      f-3     :     0.000025

 17 F s       :     3.928501  s :     3.928501
      pz      :     1.729750  p :     5.218677
      px      :     1.887402
      py      :     1.601525
      dz2     :     0.002625  d :     0.017282
      dxz     :     0.001670
      dyz     :     0.006398
      dx2y2   :     0.003548
      dxy     :     0.003041
      f0      :     0.000081  f :     0.000722
      f+1     :     0.000015
      f-1     :     0.000168
      f+2     :     0.000189
      f-2     :     0.000116
      f+3     :     0.000077
      f-3     :     0.000076

 18 F s       :     3.928478  s :     3.928478
      pz      :     1.486064  p :     5.218667
      px      :     1.897999
      py      :     1.834604
      dz2     :     0.007492  d :     0.017297
      dxz     :     0.003716
      dyz     :     0.004880
      dx2y2   :     0.000549
      dxy     :     0.000661
      f0      :     0.000264  f :     0.000722
      f+1     :     0.000128
      f-1     :     0.000230
      f+2     :     0.000041
      f-2     :     0.000052
      f+3     :     0.000004
      f-3     :     0.000002

 19 F s       :     3.928551  s :     3.928551
      pz      :     1.832656  p :     5.217328
      px      :     1.895860
      py      :     1.488812
      dz2     :     0.002207  d :     0.017213
      dxz     :     0.000576
      dyz     :     0.005000
      dx2y2   :     0.005629
      dxy     :     0.003801
      f0      :     0.000077  f :     0.000721
      f+1     :     0.000005
      f-1     :     0.000126
      f+2     :     0.000171
      f-2     :     0.000048
      f+3     :     0.000131
      f-3     :     0.000163

 20 F s       :     3.926451  s :     3.926451
      pz      :     1.436387  p :     5.216002
      px      :     1.895101
      py      :     1.884513
      dz2     :     0.009081  d :     0.017352
      dxz     :     0.004282
      dyz     :     0.003621
      dx2y2   :     0.000199
      dxy     :     0.000169
      f0      :     0.000370  f :     0.000737
      f+1     :     0.000185
      f-1     :     0.000162
      f+2     :     0.000009
      f-2     :     0.000009
      f+3     :     0.000001
      f-3     :     0.000001

 21 F s       :     3.924584  s :     3.924584
      pz      :     1.866785  p :     5.213625
      px      :     1.886323
      py      :     1.460517
      dz2     :     0.002400  d :     0.017347
      dxz     :     0.000303
      dyz     :     0.004232
      dx2y2   :     0.006514
      dxy     :     0.003900
      f0      :     0.000073  f :     0.000768
      f+1     :     0.000011
      f-1     :     0.000145
      f+2     :     0.000136
      f-2     :     0.000025
      f+3     :     0.000162
      f-3     :     0.000215

 22 F s       :     3.923034  s :     3.923034
      pz      :     1.813659  p :     5.212844
      px      :     1.565777
      py      :     1.833408
      dz2     :     0.002351  d :     0.017393
      dxz     :     0.004905
      dyz     :     0.001483
      dx2y2   :     0.004369
      dxy     :     0.004285
      f0      :     0.000086  f :     0.000779
      f+1     :     0.000124
      f-1     :     0.000025
      f+2     :     0.000126
      f-2     :     0.000138
      f+3     :     0.000127
      f-3     :     0.000153

 23 F s       :     3.923126  s :     3.923126
      pz      :     1.444219  p :     5.212843
      px      :     1.885732
      py      :     1.882892
      dz2     :     0.009215  d :     0.017519
      dxz     :     0.004007
      dyz     :     0.003853
      dx2y2   :     0.000274
      dxy     :     0.000171
      f0      :     0.000384  f :     0.000783
      f+1     :     0.000182
      f-1     :     0.000185
      f+2     :     0.000018
      f-2     :     0.000012
      f+3     :     0.000001
      f-3     :     0.000001


SPIN
  0 C s       :    -0.021587  s :    -0.021587
      pz      :    -0.016227  p :    -0.068928
      px      :    -0.017673
      py      :    -0.035029
      dz2     :     0.000675  d :     0.012150
      dxz     :     0.004870
      dyz     :    -0.000883
      dx2y2   :     0.008052
      dxy     :    -0.000564
      f0      :     0.000199  f :     0.001441
      f+1     :     0.000129
      f-1     :     0.000123
      f+2     :     0.000375
      f-2     :     0.000102
      f+3     :     0.000137
      f-3     :     0.000377

  1 O s       :     0.003770  s :     0.003770
      pz      :     0.022980  p :     0.078247
      px      :     0.033831
      py      :     0.021436
      dz2     :    -0.000171  d :    -0.000201
      dxz     :    -0.000075
      dyz     :     0.000036
      dx2y2   :     0.000054
      dxy     :    -0.000045
      f0      :    -0.000023  f :    -0.000070
      f+1     :    -0.000018
      f-1     :    -0.000015
      f+2     :    -0.000009
      f-2     :    -0.000017
      f+3     :     0.000005
      f-3     :     0.000007

  2 O s       :     0.001909  s :     0.001909
      pz      :     0.008190  p :     0.046850
      px      :     0.013198
      py      :     0.025462
      dz2     :     0.000006  d :    -0.000235
      dxz     :    -0.000047
      dyz     :    -0.000033
      dx2y2   :    -0.000140
      dxy     :    -0.000020
      f0      :     0.000001  f :    -0.000045
      f+1     :    -0.000008
      f-1     :     0.000003
      f+2     :    -0.000007
      f-2     :    -0.000011
      f+3     :    -0.000016
      f-3     :    -0.000008

  3 C s       :     0.073010  s :     0.073010
      pz      :     0.085185  p :     0.750734
      px      :     0.189840
      py      :     0.475709
      dz2     :     0.000610  d :     0.003145
      dxz     :     0.001395
      dyz     :     0.000966
      dx2y2   :     0.001247
      dxy     :    -0.001072
      f0      :    -0.000451  f :    -0.002682
      f+1     :    -0.000217
      f-1     :    -0.000552
      f+2     :    -0.000247
      f-2     :    -0.000395
      f+3     :    -0.000197
      f-3     :    -0.000623

  4 C s       :    -0.016700  s :    -0.016700
      pz      :    -0.002754  p :    -0.023416
      px      :    -0.024003
      py      :     0.003341
      dz2     :     0.002812  d :     0.021238
      dxz     :    -0.000783
      dyz     :     0.000522
      dx2y2   :     0.012492
      dxy     :     0.006195
      f0      :     0.000113  f :     0.001141
      f+1     :     0.000103
      f-1     :     0.000000
      f+2     :     0.000102
      f-2     :     0.000248
      f+3     :     0.000586
      f-3     :    -0.000011

  5 C s       :    -0.003039  s :    -0.003039
      pz      :     0.002663  p :     0.032839
      px      :     0.012376
      py      :     0.017800
      dz2     :     0.000910  d :     0.004791
      dxz     :    -0.000000
      dyz     :     0.000102
      dx2y2   :     0.003580
      dxy     :     0.000199
      f0      :    -0.000007  f :    -0.000027
      f+1     :     0.000012
      f-1     :    -0.000025
      f+2     :    -0.000012
      f-2     :     0.000015
      f+3     :     0.000021
      f-3     :    -0.000032

  6 C s       :    -0.003036  s :    -0.003036
      pz      :     0.000688  p :     0.008103
      px      :     0.001918
      py      :     0.005497
      dz2     :     0.000193  d :     0.001036
      dxz     :    -0.000014
      dyz     :     0.000074
      dx2y2   :     0.000669
      dxy     :     0.000115
      f0      :     0.000004  f :     0.000033
      f+1     :     0.000003
      f-1     :    -0.000003
      f+2     :     0.000003
      f-2     :     0.000005
      f+3     :     0.000021
      f-3     :    -0.000000

  7 C s       :    -0.000130  s :    -0.000130
      pz      :    -0.000057  p :     0.002341
      px      :     0.000342
      py      :     0.002055
      dz2     :     0.000055  d :     0.000480
      dxz     :    -0.000016
      dyz     :     0.000003
      dx2y2   :     0.000422
      dxy     :     0.000017
      f0      :    -0.000002  f :     0.000013
      f+1     :     0.000001
      f-1     :     0.000001
      f+2     :     0.000002
      f-2     :     0.000001
      f+3     :     0.000011
      f-3     :    -0.000001

  8 C s       :    -0.000122  s :    -0.000122
      pz      :    -0.000010  p :     0.000588
      px      :     0.000316
      py      :     0.000281
      dz2     :     0.000005  d :     0.000108
      dxz     :    -0.000005
      dyz     :    -0.000001
      dx2y2   :     0.000074
      dxy     :     0.000036
      f0      :    -0.000001  f :     0.000004
      f+1     :     0.000000
      f-1     :    -0.000000
      f+2     :     0.000001
      f-2     :     0.000001
      f+3     :     0.000002
      f-3     :     0.000000

  9 C s       :     0.000134  s :     0.000134
      pz      :     0.000046  p :     0.000143
      px      :    -0.000026
      py      :     0.000123
      dz2     :    -0.000000  d :     0.000024
      dxz     :     0.000001
      dyz     :     0.000001
      dx2y2   :     0.000017
      dxy     :     0.000006
      f0      :    -0.000000  f :     0.000002
      f+1     :     0.000000
      f-1     :    -0.000000
      f+2     :     0.000000
      f-2     :     0.000001
      f+3     :     0.000002
      f-3     :    -0.000000

 10 F s       :     0.008629  s :     0.008629
      pz      :     0.002614  p :     0.068100
      px      :     0.018440
      py      :     0.047046
      dz2     :     0.000546  d :     0.001664
      dxz     :     0.000271
      dyz     :     0.000748
      dx2y2   :     0.000010
      dxy     :     0.000089
      f0      :     0.000018  f :     0.000035
      f+1     :     0.000001
      f-1     :     0.000008
      f+2     :    -0.000001
      f-2     :     0.000007
      f+3     :     0.000001
      f-3     :     0.000001

 11 F s       :    -0.000146  s :    -0.000146
      pz      :     0.002933  p :     0.008746
      px      :     0.000896
      py      :     0.004917
      dz2     :     0.000014  d :    -0.000027
      dxz     :    -0.000010
      dyz     :    -0.000018
      dx2y2   :     0.000024
      dxy     :    -0.000036
      f0      :     0.000001  f :     0.000005
      f+1     :     0.000000
      f-1     :     0.000000
      f+2     :     0.000001
      f-2     :     0.000000
      f+3     :     0.000001
      f-3     :     0.000002

 12 F s       :    -0.000617  s :    -0.000617
      pz      :     0.008342  p :     0.007847
      px      :     0.000056
      py      :    -0.000551
      dz2     :    -0.000021  d :     0.000009
      dxz     :    -0.000041
      dyz     :     0.000007
[...]
 15:    137.71   0.000184    0.93  0.000416  (-0.015138  0.003694 -0.013174)
 16:    178.96   0.000749    3.79  0.001306  (-0.023463  0.011336 -0.025048)
 17:    180.87   0.000826    4.17  0.001425  (-0.005473  0.013278 -0.034905)
 18:    195.81   0.001829    9.24  0.002914  (-0.006524 -0.006777  0.053160)
 19:    201.94   0.000054    0.27  0.000084  (-0.001332  0.008958 -0.001268)
 20:    219.51   0.000420    2.12  0.000597  (-0.005259  0.023084 -0.006042)
 21:    238.08   0.000002    0.01  0.000003  (-0.000779 -0.000154  0.001480)
 22:    253.17   0.000054    0.27  0.000067  ( 0.008078 -0.000495 -0.001159)
 23:    256.22   0.000073    0.37  0.000089  (-0.006981 -0.005731 -0.002786)
 24:    286.36   0.001601    8.09  0.001745  ( 0.040743  0.007859 -0.004801)
 25:    288.57   0.001333    6.74  0.001442  (-0.034659  0.009482  0.012273)
 26:    294.21   0.000725    3.66  0.000769  ( 0.021241  0.003463 -0.017483)
 27:    315.07   0.000200    1.01  0.000198  (-0.007821 -0.007887  0.008618)
 28:    321.65   0.000619    3.13  0.000600  (-0.020822  0.006241  0.011298)
 29:    345.73   0.000097    0.49  0.000088  (-0.005672  0.000064  0.007460)
 30:    355.91   0.000217    1.09  0.000190  ( 0.002812  0.001286  0.013432)
 31:    363.56   0.000049    0.25  0.000042  ( 0.000722 -0.001177 -0.006305)
 32:    372.69   0.000060    0.30  0.000050  (-0.007002  0.000366  0.000951)
 33:    379.36   0.000453    2.29  0.000373  (-0.018641  0.001882  0.004636)
 34:    387.69   0.000443    2.24  0.000357  ( 0.017642 -0.001902 -0.006453)
 35:    408.78   0.000337    1.70  0.000257  ( 0.008886  0.011742 -0.006366)
 36:    464.92   0.000157    0.79  0.000105  (-0.000081  0.005115 -0.008892)
 37:    521.75   0.001824    9.22  0.001091  (-0.032321 -0.004165  0.005406)
 38:    532.21   0.006497   32.83  0.003810  (-0.057024  0.021879  0.008900)
 39:    560.81   0.004289   21.67  0.002387  ( 0.010528  0.047418 -0.005231)
 40:    567.92   0.007022   35.48  0.003858  ( 0.061298 -0.001425  0.009937)
 41:    576.02   0.005906   29.84  0.003199  (-0.047396 -0.022493 -0.021142)
 42:    601.52   0.000218    1.10  0.000113  (-0.001718 -0.004837  0.009320)
 43:    609.52   0.003195   16.15  0.001636  ( 0.040204 -0.002535  0.003618)
 44:    641.59   0.003590   18.14  0.001746  ( 0.037048  0.016638  0.009838)
 45:    670.35   0.039493  199.58  0.018385  (-0.135564  0.002617 -0.000526)
 46:    697.24   0.013217   66.79  0.005916  (-0.075123  0.015237  0.006316)
 47:    726.70   0.001092    5.52  0.000469  (-0.007838  0.017910  0.009320)
 48:    740.12   0.010006   50.57  0.004219  (-0.050643 -0.040216  0.006082)
 49:    757.94   0.006933   35.03  0.002854  (-0.036224  0.022765  0.031998)
 50:    786.10   0.007363   37.21  0.002923  (-0.009732  0.046563  0.025691)
 51:    882.71   0.004318   21.82  0.001527  (-0.020961  0.026009  0.020267)
 52:   1022.31   0.010459   52.86  0.003193  ( 0.053827 -0.012970  0.011281)
 53:   1061.21   0.033615  169.88  0.009885  (-0.024693 -0.094578 -0.018176)
 54:   1125.01   0.007670   38.76  0.002128  ( 0.034189 -0.030960  0.000476)
 55:   1137.65   0.049828  251.81  0.013668  (-0.001424  0.006037 -0.116746)
 56:   1147.65   0.069882  353.15  0.019002  (-0.004225 -0.135991 -0.022145)
 57:   1159.77   0.043848  221.59  0.011798  (-0.003475  0.087921  0.063688)
 58:   1170.10   0.023536  118.94  0.006277  ( 0.018549 -0.039856  0.065911)
 59:   1176.00   0.082521  417.03  0.021898  ( 0.008731 -0.018964  0.146498)
 60:   1185.58   0.091569  462.75  0.024102  ( 0.055522 -0.143622 -0.019814)
 61:   1189.03   0.092066  465.26  0.024163  (-0.014886 -0.021560  0.153221)
 62:   1208.33   0.078477  396.59  0.020267  (-0.022131 -0.056599  0.128741)
 63:   1210.33   0.019150   96.78  0.004938  (-0.038526  0.015479 -0.056689)
 64:   1230.51   0.032678  165.14  0.008287  (-0.008739  0.023356  0.087553)
 65:   1242.68   0.004302   21.74  0.001080  ( 0.009461 -0.005534  0.030986)
 66:   1280.65   0.009303   47.01  0.002267  ( 0.037598 -0.011427 -0.026883)
 67:   1300.42   0.037031  187.14  0.008886  (-0.051620  0.073266  0.029222)
 68:   1313.14   0.021439  108.35  0.005095  (-0.019666  0.060951  0.031515)
 69:   1360.16   0.050277  254.08  0.011535  (-0.104915  0.022976  0.000376)
 70:   1383.71   0.002190   11.07  0.000494  (-0.001846  0.020581  0.008186)
 71:   1685.86   0.145120  733.38  0.026863  ( 0.111773  0.004219  0.119798)

* The epsilon (eps) is given for a Dirac delta lineshape.
** The dipole moment derivative (T) already includes vibrational overlap.

The first frequency considered to be a vibration is 6
The total number of vibrations considered is 66


--------------------------
THERMOCHEMISTRY AT 298.15K
--------------------------

Temperature         ...   298.15 K
Pressure            ...     1.00 atm
Total Mass          ...   394.06 AMU
Quasi RRHO          ...     True
Cut-Off Frequency   ...     1.00 cm^-1

Throughout the following assumptions are being made:
  (1) The electronic state is orbitally nondegenerate
      but the spin degeneracy is treated
  (2) There are no thermally accessible electronically excited states
  (3) Hindered rotations indicated by low frequency modes are not
      treated as such but are treated as vibrations and this may
      cause some error
  (4) All equations used are the standard statistical mechanics
      equations for an ideal gas
  (5) All vibrations are strictly harmonic

freq.      24.71  E(vib)   ...       0.56 
freq.      29.73  E(vib)   ...       0.55 
freq.      34.54  E(vib)   ...       0.54 
freq.      47.27  E(vib)   ...       0.53 
freq.      50.01  E(vib)   ...       0.52 
freq.      62.76  E(vib)   ...       0.51 
freq.      69.68  E(vib)   ...       0.50 
freq.      83.40  E(vib)   ...       0.48 
freq.     120.32  E(vib)   ...       0.44 
freq.     137.71  E(vib)   ...       0.42 
freq.     178.96  E(vib)   ...       0.37 
freq.     180.87  E(vib)   ...       0.37 
freq.     195.81  E(vib)   ...       0.36 
freq.     201.94  E(vib)   ...       0.35 
freq.     219.51  E(vib)   ...       0.33 
freq.     238.08  E(vib)   ...       0.32 
freq.     253.17  E(vib)   ...       0.30 
freq.     256.22  E(vib)   ...       0.30 
freq.     286.36  E(vib)   ...       0.27 
freq.     288.57  E(vib)   ...       0.27 
freq.     294.21  E(vib)   ...       0.27 
freq.     315.07  E(vib)   ...       0.25 
freq.     321.65  E(vib)   ...       0.25 
freq.     345.73  E(vib)   ...       0.23 
freq.     355.91  E(vib)   ...       0.22 
freq.     363.56  E(vib)   ...       0.22 
freq.     372.69  E(vib)   ...       0.21 
freq.     379.36  E(vib)   ...       0.21 
freq.     387.69  E(vib)   ...       0.20 
freq.     408.78  E(vib)   ...       0.19 
freq.     464.92  E(vib)   ...       0.16 
freq.     521.75  E(vib)   ...       0.13 
freq.     532.21  E(vib)   ...       0.13 
freq.     560.81  E(vib)   ...       0.11 
freq.     567.92  E(vib)   ...       0.11 
freq.     576.02  E(vib)   ...       0.11 
freq.     601.52  E(vib)   ...       0.10 
freq.     609.52  E(vib)   ...       0.10 
freq.     641.59  E(vib)   ...       0.09 
freq.     670.35  E(vib)   ...       0.08 
freq.     697.24  E(vib)   ...       0.07 
freq.     726.70  E(vib)   ...       0.06 
freq.     740.12  E(vib)   ...       0.06 
freq.     757.94  E(vib)   ...       0.06 
freq.     786.10  E(vib)   ...       0.05 
freq.     882.71  E(vib)   ...       0.04 
freq.    1022.31  E(vib)   ...       0.02 
freq.    1061.21  E(vib)   ...       0.02 
freq.    1125.01  E(vib)   ...       0.01 
freq.    1137.65  E(vib)   ...       0.01 
freq.    1147.65  E(vib)   ...       0.01 
freq.    1159.77  E(vib)   ...       0.01 
freq.    1170.10  E(vib)   ...       0.01 
freq.    1176.00  E(vib)   ...       0.01 
freq.    1185.58  E(vib)   ...       0.01 
freq.    1189.03  E(vib)   ...       0.01 
freq.    1208.33  E(vib)   ...       0.01 
freq.    1210.33  E(vib)   ...       0.01 
freq.    1230.51  E(vib)   ...       0.01 
freq.    1242.68  E(vib)   ...       0.01 
freq.    1280.65  E(vib)   ...       0.01 
freq.    1300.42  E(vib)   ...       0.01 
freq.    1313.14  E(vib)   ...       0.01 
freq.    1360.16  E(vib)   ...       0.01 
freq.    1383.71  E(vib)   ...       0.00 
freq.    1685.86  E(vib)   ...       0.00 

------------
INNER ENERGY
------------

The inner energy is: U= E(el) + E(ZPE) + E(vib) + E(rot) + E(trans)
    E(el)   - is the total energy from the electronic structure calculation
              = E(kin-el) + E(nuc-el) + E(el-el) + E(nuc-nuc)
    E(ZPE)  - the the zero temperature vibrational energy from the frequency calculation
    E(vib)  - the the finite temperature correction to E(ZPE) due to population
              of excited vibrational states
    E(rot)  - is the rotational thermal energy
    E(trans)- is the translational thermal energy

Summary of contributions to the inner energy U:
Electronic energy                ...  -1853.11746007 Eh
Zero point energy                ...      0.09438854 Eh      59.23 kcal/mol
Thermal vibrational correction   ...      0.01945161 Eh      12.21 kcal/mol
Thermal rotational correction    ...      0.00141627 Eh       0.89 kcal/mol
Thermal translational correction ...      0.00141627 Eh       0.89 kcal/mol
-----------------------------------------------------------------------
Total thermal energy                  -1853.00078738 Eh


Summary of corrections to the electronic energy:
(perhaps to be used in another calculation)
Total thermal correction                  0.02228416 Eh      13.98 kcal/mol
Non-thermal (ZPE) correction              0.09438854 Eh      59.23 kcal/mol
-----------------------------------------------------------------------
Total correction                          0.11667269 Eh      73.21 kcal/mol


--------
ENTHALPY
--------

The enthalpy is H = U + kB*T
                kB is Boltzmann's constant
Total thermal energy              ...  -1853.00078738 Eh 
Thermal Enthalpy correction       ...      0.00094421 Eh       0.59 kcal/mol
-----------------------------------------------------------------------
Total Enthalpy                    ...  -1852.99984317 Eh


Note: Only C1 symmetry has been detected, increase convergence thresholds 
      if your molecule has a higher symmetry. Symmetry factor of 1.0 is   
      used for the rotational entropy correction. 
 

Note: Rotational entropy computed according to Herzberg 
Infrared and Raman Spectra, Chapter V,1, Van Nostrand Reinhold, 1945 
Point Group:  C1, Symmetry Number:   1  
Rotational constants in cm-1:     0.020984     0.004247     0.004122 

Vibrational entropy computed according to the QRRHO of S. Grimme
Chem.Eur.J. 2012 18 9955 using a reference frequency of 100.0 cm-1


-------
ENTROPY
-------

The entropy contributions are T*S = T*(S(el)+S(vib)+S(rot)+S(trans))
     S(el)   - electronic entropy
     S(vib)  - vibrational entropy
     S(rot)  - rotational entropy
     S(trans)- translational entropy
The entropies will be listed as multiplied by the temperature to get
units of energy

Electronic entropy                ...      0.00065446 Eh      0.41 kcal/mol
Vibrational entropy               ...      0.03492226 Eh     21.91 kcal/mol
Rotational entropy                ...      0.01650581 Eh     10.36 kcal/mol
Translational entropy             ...      0.02081341 Eh     13.06 kcal/mol
-----------------------------------------------------------------------
Final entropy term                ...      0.07289594 Eh     45.74 kcal/mol

In case the symmetry of your molecule has not been determined correctly
or in case you have a reason to use a different symmetry number we print 
out the resulting rotational entropy values for sn=1,12:

 non-linear molecules -----------------------------------
|  sn= 1 | S(rot)=       0.01650581 Eh     10.36 kcal/mol|
|  sn= 2 | S(rot)=       0.01585135 Eh      9.95 kcal/mol|
|  sn= 3 | S(rot)=       0.01546852 Eh      9.71 kcal/mol|
|  sn= 4 | S(rot)=       0.01519689 Eh      9.54 kcal/mol|
|  sn= 5 | S(rot)=       0.01498621 Eh      9.40 kcal/mol|
|  sn= 6 | S(rot)=       0.01481406 Eh      9.30 kcal/mol|
|  sn= 7 | S(rot)=       0.01466852 Eh      9.20 kcal/mol|
|  sn= 8 | S(rot)=       0.01454244 Eh      9.13 kcal/mol|
|  sn= 9 | S(rot)=       0.01443123 Eh      9.06 kcal/mol|
|  sn=10 | S(rot)=       0.01433175 Eh      8.99 kcal/mol|
|  sn=11 | S(rot)=       0.01424176 Eh      8.94 kcal/mol|
|  sn=12 | S(rot)=       0.01415961 Eh      8.89 kcal/mol|
 linear molecules ---------------------------------------
|  Dinfh | S(rot)=       0.01051079 Eh      6.60 kcal/mol|
|  Cinfv | S(rot)=       0.01116525 Eh      7.01 kcal/mol|
 --------------------------------------------------------


-------------------
GIBBS FREE ENERGY
-------------------

The Gibbs free energy is G = H - T*S

Total enthalpy                    ...  -1852.99984317 Eh 
Total entropy correction          ...     -0.07289594 Eh    -45.74 kcal/mol
-----------------------------------------------------------------------
Final Gibbs free energy         ...  -1853.07273911 Eh

For completeness - the Gibbs free energy minus the electronic energy
G-E(el)                           ...      0.04472096 Eh     28.06 kcal/mol


Maximum memory used throughout the entire PROP-calculation: 524.3 MB

--------------------------------
SUGGESTED CITATIONS FOR THIS RUN
--------------------------------

Below you find a list of papers that are relevant to this ORCA run
We neither can nor want to force you to cite these papers, but we appreciate if you do
You receive ORCA, which is the product of decades of hard work by many enthusiastic individuals, for free
The only thing we kindly ask in return is that you cite our papers,
We deeply appreciate it, if you show your appreciation for ORCA by not just citing the generic ORCA reference.

Please note that relegating all ORCA citations to the supporting information does *not* help us.
SI sections are not indexed - citations you put there will not count into any citation statistics
But we need these citations in order to attract the funding resources that allow us to do what we are doing

Therefore, if you are a happy ORCA user, please consider citing a few of the papers listed below in the main body of your paper

In addition to the list printed below, the program has created the file rf_mecn_freq_r2s_C2_D_B.bibtex that contains the list in bibtex format
You can import this file easily into all common literature databanks and citation aid programs


List of essential papers. We consider these as the minimum necessary citations

  1. Neese,F.
     Software update: the ORCA program system, version 5.0
     WIRES Comput. Molec. Sci., 2022 12(1)e1606
     doi.org/10.1002/wcms.1606

List of papers to cite with high priority. The work reported in these papers was absolutely
necessary for this run to complete.
Our perspective: the developers of density functionals and basis sets usually get cited in chemistry papers
Good! But without the algorithms to do something with them, the functionals or basis sets would not do anything.
Hence, in our opinion, the algorithm design and method developments papers are equally worthy of getting cited

  1. Neese,F.
     An improvement of the resolution of the identity approximation for the formation of the Coulomb matrix
     J. Comp. Chem., 2003 24(14)1740-1747
     doi.org/10.1002/jcc.10318
  2. Neese,F.; Wennmohs,F.; Hansen,A.; Becker,U.
     Efficient, approximate and parallel Hartree-Fock and hybrid DFT calculations. A 'chain-of-spheres' algorithm for the Hartree-Fock exchange
     Chem. Phys., 2009 356(1-3)98-109
     doi.org/10.1016/j.chemphys.2008.10.036
  3. Bykov,D.; Petrenko,T.; Izsak,R.; Kossmann,S.; Becker,U.; Valeev,E.; Neese,F.
     Efficient implementation of the analytic second derivatives of Hartree-Fock and hybrid DFT energies: a detailed analysis of different approximations
     Molec. Phys., 2015 113 1961-1977
     doi.org/10.1080/00268976.2015.1025114
  4. Garcia-Rates,M.; Neese,F.
     Efficient implementation of the analytical second derivatives of hartree-fock and hybrid DFT energies within the framework of the conductor-like polarizable continuum model
     J. Comput. Chem., 2019 40 1816-1828
     doi.org/10.1002/jcc.25833
  5. Garcia-Rates,M.; Neese,F.
     Effect of the Solute Cavity on the Solvation Energy and its Derivatives within the Framework of the Gaussian Charge Scheme
     J. Comput. Chem., 2020 41 922-939
     doi.org/10.1002/jcc.26139
  6. Helmich-Paris,B.; de Souza,B.; Neese,F.; Izsák,R.
     An improved chain of spheres for exchange algorithm
     J. Chem. Phys., 2021 155 104109
     doi.org/doi: 10.1063/5.0058766.
  7. Neese,F.
     The SHARK Integral Generation and Digestion System
     J. Comp. Chem., 2022  1-16
     doi.org/10.1002/jcc.26942
  8. Lehtola,S.; Steigemann,C.; Oliveira,M.; Marques,M.
     Recent developments in Libxc - A comprehensive library of functionals for density functional theory
     Software X, 2018 7 
     doi.org/10.1016/j.softx.2017.11.002
  9. Grimme,S.; Antony,J.; Ehrlich,S.; Krieg,H.
     A consistent and accurate ab initio parametrization of density functional dispersion correction (DFT-D) for the 94 elements H-Pu
     J. Chem. Phys., 2010 132 154104
     doi.org/10.1063/1.3382344
 10. Grimme,S.; Ehrlich,S.; Goerigk,L.
     Effect of the damping function in dispersion corrected density functional theory
     J. Comput. Chem., 2011 32(7)1456-1465
     doi.org/10.1002/jcc.21759
 11. Bursch,M.; Neugebauer,H.; Ehlert,S.; Grimme,S.
     Dispersion corrected r2SCAN based global hybrid functionals: r2SCANh, r2SCAN0, and r2SCAN50
     J. Phys. Chem., 2022 156(13)134105
     doi.org/10.1063/5.0086040

List of suggested additional citations. These are papers that are important in the 'surrounding' of 
of this run, or papers that preceded the highly important papers. If you like your results we are grateful for a citation.

  1. Izsak,R.; Neese,F.
     An overlap fitted chain of spheres exchange method
     J. Chem. Phys., 2011 135 144105
     doi.org/10.1063/1.3646921
  2. Izsak,R.; Hansen,A.; Neese,F.
     The resolution of identity and chain of spheres approximations for the LPNO-CCSD singles Fock term
     Molec. Phys., 2012 110 2413-2417
     doi.org/10.1080/00268976.2012.687466
  3. Neese,F.
     The ORCA program system
     WIRES Comput. Molec. Sci., 2012 2(1)73-78
     doi.org/10.1002/wcms.81
  4. Izsak,R.; Neese,F.; Klopper,W.
     Robust fitting techniques in the chain of spheres approximation to the Fock exchange: The role of the complementary space
     J. Chem. Phys., 2013 139 
     doi.org/10.1063/1.4819264
  5. Neese,F.
     Software update: the ORCA program system, version 4.0
     WIRES Comput. Molec. Sci., 2018 8(1)1-6
     doi.org/10.1002/wcms.1327
  6. Neese,F.; Wennmohs,F.; Becker,U.; Riplinger,C.
     The ORCA quantum chemistry program package
     J. Chem. Phys., 2020 152 Art. No. L224108
     doi.org/10.1063/5.0004608
  7. Wittmann,L.; Neugebauer,H.; Grimme,S.; Bursch,M.
     Dispersion-corrected r2SCAN based double-hybrid functionals
     J. Chem. Phys., 2023 159(22)224103
     doi.org/10.1063/5.0174988

List of optional additional citations

  1. Neese,F.
     Approximate second-order SCF convergence for spin unrestricted wavefunctions
     Chem. Phys. Lett., 2000 325(1-3)93-98
     doi.org/10.1016/s0009-2614(00)00662-x

Timings for individual modules:

Sum of individual times          ...     1345.004 sec (=  22.417 min)
Startup calculation              ...        4.616 sec (=   0.077 min)   0.3 %
SCF iterations                   ...      113.454 sec (=   1.891 min)   8.4 %
Property integrals               ...      400.173 sec (=   6.670 min)  29.8 %
SCF Response                     ...      596.672 sec (=   9.945 min)  44.4 %
Property calculations            ...      230.090 sec (=   3.835 min)  17.1 %
                             ****ORCA TERMINATED NORMALLY****
TOTAL RUN TIME: 0 days 0 hours 22 minutes 25 seconds 822 msec
