
                                 *****************
                                 * O   R   C   A *
                                 *****************

                                            #,                                       
                                            ###                                      
                                            ####                                     
                                            #####                                    
                                            ######                                   
                                           ########,                                 
                                     ,,################,,,,,                         
                               ,,#################################,,                 
                          ,,##########################################,,             
                       ,#########################################, ''#####,          
                    ,#############################################,,   '####,        
                  ,##################################################,,,,####,       
                ,###########''''           ''''###############################       
              ,#####''   ,,,,##########,,,,          '''####'''          '####       
            ,##' ,,,,###########################,,,                        '##       
           ' ,,###''''                  '''############,,,                           
         ,,##''                                '''############,,,,        ,,,,,,###''
      ,#''                                            '''#######################'''  
     '                                                          ''''####''''         
             ,#######,   #######,   ,#######,      ##                                
            ,#'     '#,  ##    ##  ,#'     '#,    #''#        ######   ,####,        
            ##       ##  ##   ,#'  ##            #'  '#       #        #'  '#        
            ##       ##  #######   ##           ,######,      #####,   #    #        
            '#,     ,#'  ##    ##  '#,     ,#' ,#      #,         ##   #,  ,#        
             '#######'   ##     ##  '#######'  #'      '#     #####' # '####'        



                  #######################################################
                  #                        -***-                        #
                  #          Department of theory and spectroscopy      #
                  #    Directorship and core code : Frank Neese         #
                  #        Max Planck Institute fuer Kohlenforschung    #
                  #                Kaiser Wilhelm Platz 1               #
                  #                 D-45470 Muelheim/Ruhr               #
                  #                      Germany                        #
                  #                                                     #
                  #                  All rights reserved                #
                  #                        -***-                        #
                  #######################################################


                         Program Version 5.0.3 -  RELEASE  -


 With contributions from (in alphabetic order):
   Daniel Aravena         : Magnetic Suceptibility
   Michael Atanasov       : Ab Initio Ligand Field Theory (pilot matlab implementation)
   Alexander A. Auer      : GIAO ZORA, VPT2 properties, NMR spectrum
   Ute Becker             : Parallelization
   Giovanni Bistoni       : ED, misc. LED, open-shell LED, HFLD
   Martin Brehm           : Molecular dynamics
   Dmytro Bykov           : SCF Hessian
   Vijay G. Chilkuri      : MRCI spin determinant printing, contributions to CSF-ICE
   Dipayan Datta          : RHF DLPNO-CCSD density
   Achintya Kumar Dutta   : EOM-CC, STEOM-CC
   Dmitry Ganyushin       : Spin-Orbit,Spin-Spin,Magnetic field MRCI
   Miquel Garcia          : C-PCM and meta-GGA Hessian, CC/C-PCM, Gaussian charge scheme
   Yang Guo               : DLPNO-NEVPT2, F12-NEVPT2, CIM, IAO-localization
   Andreas Hansen         : Spin unrestricted coupled pair/coupled cluster methods
   Benjamin Helmich-Paris : MC-RPA, TRAH-SCF, COSX integrals
   Lee Huntington         : MR-EOM, pCC
   Robert Izsak           : Overlap fitted RIJCOSX, COSX-SCS-MP3, EOM
   Marcus Kettner         : VPT2
   Christian Kollmar      : KDIIS, OOCD, Brueckner-CCSD(T), CCSD density, CASPT2, CASPT2-K
   Simone Kossmann        : Meta GGA functionals, TD-DFT gradient, OOMP2, MP2 Hessian
   Martin Krupicka        : Initial AUTO-CI
   Lucas Lang             : DCDCAS
   Marvin Lechner         : AUTO-CI (C++ implementation), FIC-MRCC
   Dagmar Lenk            : GEPOL surface, SMD
   Dimitrios Liakos       : Extrapolation schemes; Compound Job, initial MDCI parallelization
   Dimitrios Manganas     : Further ROCIS development; embedding schemes
   Dimitrios Pantazis     : SARC Basis sets
   Anastasios Papadopoulos: AUTO-CI, single reference methods and gradients
   Taras Petrenko         : DFT Hessian,TD-DFT gradient, ASA, ECA, R-Raman, ABS, FL, XAS/XES, NRVS
   Peter Pinski           : DLPNO-MP2, DLPNO-MP2 Gradient
   Christoph Reimann      : Effective Core Potentials
   Marius Retegan         : Local ZFS, SOC
   Christoph Riplinger    : Optimizer, TS searches, QM/MM, DLPNO-CCSD(T), (RO)-DLPNO pert. Triples
   Tobias Risthaus        : Range-separated hybrids, TD-DFT gradient, RPA, STAB
   Michael Roemelt        : Original ROCIS implementation
   Masaaki Saitow         : Open-shell DLPNO-CCSD energy and density
   Barbara Sandhoefer     : DKH picture change effects
   Avijit Sen             : IP-ROCIS
   Kantharuban Sivalingam : CASSCF convergence, NEVPT2, FIC-MRCI
   Bernardo de Souza      : ESD, SOC TD-DFT
   Georgi Stoychev        : AutoAux, RI-MP2 NMR, DLPNO-MP2 response
   Willem Van den Heuvel  : Paramagnetic NMR
   Boris Wezisla          : Elementary symmetry handling
   Frank Wennmohs         : Technical directorship


 We gratefully acknowledge several colleagues who have allowed us to
 interface, adapt or use parts of their codes:
   Stefan Grimme, W. Hujo, H. Kruse, P. Pracht,  : VdW corrections, initial TS optimization,
                  C. Bannwarth, S. Ehlert          DFT functionals, gCP, sTDA/sTD-DF
   Ed Valeev, F. Pavosevic, A. Kumar             : LibInt (2-el integral package), F12 methods
   Garnet Chan, S. Sharma, J. Yang, R. Olivares  : DMRG
   Ulf Ekstrom                                   : XCFun DFT Library
   Mihaly Kallay                                 : mrcc  (arbitrary order and MRCC methods)
   Jiri Pittner, Ondrej Demel                    : Mk-CCSD
   Frank Weinhold                                : gennbo (NPA and NBO analysis)
   Christopher J. Cramer and Donald G. Truhlar   : smd solvation model
   Lars Goerigk                                  : TD-DFT with DH, B97 family of functionals
   V. Asgeirsson, H. Jonsson                     : NEB implementation
   FAccTs GmbH                                   : IRC, NEB, NEB-TS, DLPNO-Multilevel, CI-OPT
                                                   MM, QMMM, 2- and 3-layer-ONIOM, Crystal-QMMM,
                                                   LR-CPCM, SF, NACMEs, symmetry and pop. for TD-DFT,
                                                   nearIR, NL-DFT gradient (VV10), updates on ESD,
                                                   ML-optimized integration grids
   S Lehtola, MJT Oliveira, MAL Marques          : LibXC Library
   Liviu Ungur et al                             : ANISO software


 Your calculation uses the libint2 library for the computation of 2-el integrals
 For citations please refer to: http://libint.valeyev.net

 Your ORCA version has been built with support for libXC version: 5.1.0
 For citations please refer to: https://tddft.org/programs/libxc/

 This ORCA versions uses:
   CBLAS   interface :  Fast vector & matrix operations
   LAPACKE interface :  Fast linear algebra routines
   SCALAPACK package :  Parallel linear algebra routines
   Shared memory     :  Shared parallel matrices
   BLAS/LAPACK       :  OpenBLAS 0.3.15  USE64BITINT DYNAMIC_ARCH NO_AFFINITY SkylakeX SINGLE_THREADED
        Core in use  :  SkylakeX
   Copyright (c) 2011-2014, The OpenBLAS Project


Your calculation utilizes the atom-pairwise dispersion correction
with the Becke-Johnson damping scheme (D3BJ)
Cite in your paper:
S.Grimme, S.Ehrlich, L.Goerigk, J Comput Chem, (2011), 32, 1456–1465 
S.Grimme, J.Antony, S.Ehrlich and H.Krieg, J.Chem.Phys., 132, (2010), 154104 
   

Your calculation utilizes the SMD solvation module
Please cite in your paper:
A.V. Marenich, C.J. Cramer, D.G. Truhlar J. Phys. Chem. B, 113, (2009), 6378 

================================================================================

----- Orbital basis set information -----
Your calculation utilizes the basis: def2-TZVP
   F. Weigend and R. Ahlrichs, Phys. Chem. Chem. Phys. 7, 3297 (2005).

----- AuxJ basis set information -----
Your calculation utilizes the auxiliary basis: def2/J
   F. Weigend, Phys. Chem. Chem. Phys. 8, 1057 (2006).

================================================================================
                                        WARNINGS
                       Please study these warnings very carefully!
================================================================================


WARNING: your system is open-shell and RHF/RKS was chosen
  ===> : WILL SWITCH to UHF/UKS


WARNING: Geometry Optimization
  ===> : Switching off AutoStart
         For restart on a previous wavefunction, please use MOREAD

INFO   : the flag for use of the SHARK integral package has been found!

================================================================================
                                       INPUT FILE
================================================================================
NAME = rf_mecn_opt_TPS_C5_D_B.inp
|  1> !TPSSh def2-TZVP opt d3 TightSCF SlowConv defgrid2
|  2>  
|  3> %pal
|  4> nprocs 20
|  5> end
|  6>  
|  7> %scf
|  8> MaxIter 1500
|  9> end
| 10>  
| 11> %maxcore 8000
| 12>  
| 13> !CPCM
| 14> %cpcm smd true
| 15> SMDsolvent "ACETONITRILE"
| 16> end
| 17>  
| 18> * xyz -1 2
| 19> 6        4.790427000     -0.033865800     -0.529943200
| 20> 8        5.449345000     -1.206924000     -0.894594600
| 21> 8        4.978223000      1.323071000     -0.737377200
| 22> 6        3.506687600     -0.338741600      0.376153800
| 23> 6        2.222300000      0.400524800     -0.110681600
| 24> 6        0.900506800     -0.386389800      0.175703000
| 25> 6       -0.395261200      0.487294000      0.065549000
| 26> 6       -1.705693600     -0.364773800     -0.068373600
| 27> 6       -3.005136200      0.445344800      0.258164000
| 28> 6       -4.319880200     -0.214526000     -0.270540800
| 29> 9        3.211587400     -1.692050400      0.412735200
| 30> 9        3.741061800      0.055285800      1.689948800
| 31> 9        2.125696800      1.616867800      0.483236600
| 32> 9        2.314152400      0.589704000     -1.455769200
| 33> 9        0.794028800     -1.413561400     -0.700839000
| 34> 9        0.958350600     -0.884509000      1.435093400
| 35> 9       -0.498373400      1.260265600      1.173340200
| 36> 9       -1.641790400     -1.418189000      0.779523800
| 37> 9       -1.792381400     -0.831391600     -1.336863600
| 38> 9       -2.918792200      1.679227200     -0.295171200
| 39> 9       -3.119771000      0.573779800      1.598579800
| 40> 9       -4.383115600     -1.504377600      0.089127600
| 41> 9       -5.365669800      0.430528600      0.260394200
| 42> 9       -4.396020400     -0.128550600     -1.602941800
| 43> *
| 44> 
| 45>                          ****END OF INPUT****
================================================================================

                       *****************************
                       * Geometry Optimization Run *
                       *****************************

Geometry optimization settings:
Update method            Update   .... BFGS
Choice of coordinates    CoordSys .... Z-matrix Internals
Initial Hessian          InHess   .... Almoef's Model

Convergence Tolerances:
Energy Change            TolE     ....  5.0000e-06 Eh
Max. Gradient            TolMAXG  ....  3.0000e-04 Eh/bohr
RMS Gradient             TolRMSG  ....  1.0000e-04 Eh/bohr
Max. Displacement        TolMAXD  ....  4.0000e-03 bohr
RMS Displacement         TolRMSD  ....  2.0000e-03 bohr
Strict Convergence                ....  False
------------------------------------------------------------------------------
                        ORCA OPTIMIZATION COORDINATE SETUP
------------------------------------------------------------------------------

The optimization will be done in new redundant internal coordinates
Making redundant internal coordinates   ...  (new redundants) done
Evaluating the initial hessian          ...  (Almloef) done
Evaluating the coordinates              ...  done
Calculating the B-matrix                .... done
Calculating the G-matrix                .... done
Diagonalizing the G-matrix              .... done
Small eigenvalue found = 5.683e-03
Small eigenvalue found = 1.650e-02
The first mode is                       ....   53
The number of degrees of freedom        ....   66

    -----------------------------------------------------------------
                    Redundant Internal Coordinates


    -----------------------------------------------------------------
         Definition                    Initial Value    Approx d2E/dq
    -----------------------------------------------------------------
      1. B(O   1,C   0)                  1.3940         0.551454   
      2. B(O   2,C   0)                  1.3855         0.568952   
      3. B(C   3,C   0)                  1.6006         0.288221   
      4. B(C   4,C   3)                  1.5599         0.334759   
      5. B(C   5,C   4)                  1.5647         0.328824   
      6. B(C   6,C   5)                  1.5667         0.326486   
      7. B(C   7,C   6)                  1.5688         0.323927   
      8. B(C   8,C   7)                  1.5657         0.327637   
      9. B(C   9,C   8)                  1.5632         0.330714   
     10. B(F  10,C   3)                  1.3856         0.528443   
     11. B(F  11,C   3)                  1.3915         0.517117   
     12. B(F  12,C   4)                  1.3570         0.586881   
     13. B(F  13,C   4)                  1.3614         0.577499   
     14. B(F  14,C   5)                  1.3545         0.592326   
     15. B(F  15,C   5)                  1.3556         0.590092   
     16. B(F  16,C   6)                  1.3547         0.591865   
     17. B(F  17,C   7)                  1.3538         0.593973   
     18. B(F  18,C   7)                  1.3544         0.592672   
     19. B(F  19,C   8)                  1.3550         0.591238   
     20. B(F  20,C   8)                  1.3514         0.599114   
     21. B(F  21,C   9)                  1.3406         0.623533   
     22. B(F  22,C   9)                  1.3385         0.628179   
     23. B(F  23,C   9)                  1.3373         0.630929   
     24. A(O   1,C   0,O   2)          136.1318         0.413163   
     25. A(O   2,C   0,C   3)          112.3347         0.371210   
     26. A(O   1,C   0,C   3)          111.5249         0.369222   
     27. A(C   4,C   3,F  10)          107.2033         0.374492   
     28. A(C   0,C   3,C   4)          113.1687         0.341363   
     29. A(C   4,C   3,F  11)          107.4072         0.373095   
     30. A(C   0,C   3,F  10)          111.8265         0.364982   
     31. A(F  10,C   3,F  11)          106.7094         0.399684   
     32. A(C   0,C   3,F  11)          110.2099         0.363632   
     33. A(F  12,C   4,F  13)          108.2194         0.415201   
     34. A(C   3,C   4,C   5)          113.5839         0.349005   
     35. A(C   3,C   4,F  13)          108.5818         0.380286   
     36. A(C   5,C   4,F  13)          107.9208         0.379109   
     37. A(C   5,C   4,F  12)          108.0911         0.380169   
     38. A(C   3,C   4,F  12)          110.2926         0.381351   
     39. A(C   4,C   5,C   6)          113.9128         0.347536   
     40. A(F  14,C   5,F  15)          109.0206         0.417483   
     41. A(C   6,C   5,F  15)          107.7906         0.380059   
     42. A(C   4,C   5,F  15)          108.5900         0.380529   
     43. A(C   4,C   5,F  14)          109.2282         0.380779   
     44. A(C   6,C   5,F  14)          108.2026         0.380308   
     45. A(C   5,C   6,C   7)          113.2023         0.346660   
     46. A(C   7,C   6,F  16)          108.4284         0.379738   
     47. A(C   5,C   6,F  16)          108.8835         0.380256   
     48. A(C   8,C   7,F  18)          108.6915         0.380579   
     49. A(C   6,C   7,F  18)          108.6955         0.379828   
     50. A(C   8,C   7,F  17)          108.1296         0.380723   
     51. A(C   6,C   7,F  17)          109.2524         0.379972   
     52. A(C   6,C   7,C   8)          113.2298         0.346865   
     53. A(F  17,C   7,F  18)          108.7561         0.418014   
     54. A(F  19,C   8,F  20)          108.8987         0.418476   
     55. A(C   7,C   8,C   9)          114.1471         0.348078   
     56. A(C   9,C   8,F  20)          107.7127         0.381912   
     57. A(C   7,C   8,F  20)          109.0521         0.381293   
     58. A(C   9,C   8,F  19)          107.4499         0.381036   
     59. A(C   7,C   8,F  19)          109.4572         0.380419   
     60. A(F  22,C   9,F  23)          108.6464         0.426961   
     61. A(F  21,C   9,F  23)          109.0552         0.426394   
     62. A(C   8,C   9,F  23)          110.9604         0.385362   
     63. A(F  21,C   9,F  22)          108.6877         0.426061   
     64. A(C   8,C   9,F  22)          108.6349         0.385069   
     65. A(C   8,C   9,F  21)          110.7995         0.384572   
     66. D(F  10,C   3,C   0,O   2)    171.0025         0.006601   
     67. D(C   4,C   3,C   0,O   1)   -131.0839         0.006601   
     68. D(F  11,C   3,C   0,O   1)    108.6317         0.006601   
     69. D(F  10,C   3,C   0,O   1)     -9.8890         0.006601   
     70. D(F  11,C   3,C   0,O   2)    -70.4768         0.006601   
     71. D(C   4,C   3,C   0,O   2)     49.8076         0.006601   
     72. D(F  13,C   4,C   3,C   0)     28.5784         0.009100   
     73. D(F  12,C   4,C   3,F  11)     32.0233         0.009100   
     74. D(C   5,C   4,C   3,C   0)    148.6429         0.009100   
     75. D(F  12,C   4,C   3,C   0)    -89.8453         0.009100   
     76. D(C   5,C   4,C   3,F  10)     24.8733         0.009100   
     77. D(C   5,C   4,C   3,F  11)    -89.4885         0.009100   
     78. D(F  12,C   4,C   3,F  10)    146.3851         0.009100   
     79. D(F  13,C   4,C   3,F  10)    -95.1911         0.009100   
     80. D(F  13,C   4,C   3,F  11)    150.4470         0.009100   
     81. D(F  15,C   5,C   4,F  13)    164.2540         0.008811   
     82. D(F  15,C   5,C   4,F  12)    -78.9166         0.008811   
     83. D(F  15,C   5,C   4,C   3)     43.8158         0.008811   
     84. D(F  14,C   5,C   4,F  12)    162.3014         0.008811   
     85. D(F  14,C   5,C   4,F  13)     45.4721         0.008811   
     86. D(F  14,C   5,C   4,C   3)    -74.9661         0.008811   
     87. D(C   6,C   5,C   4,F  13)    -75.6292         0.008811   
     88. D(C   6,C   5,C   4,F  12)     41.2001         0.008811   
     89. D(C   6,C   5,C   4,C   3)    163.9326         0.008811   
     90. D(F  16,C   6,C   5,F  15)     44.2190         0.008172   
     91. D(F  16,C   6,C   5,F  14)    161.9826         0.008172   
     92. D(F  16,C   6,C   5,C   4)    -76.3465         0.008172   
     93. D(C   7,C   6,C   5,C   4)    162.9815         0.008172   
     94. D(C   7,C   6,C   5,F  14)     41.3107         0.008172   
     95. D(C   7,C   6,C   5,F  15)    -76.4529         0.008172   
     96. D(C   8,C   7,C   6,C   5)    162.3638         0.008059   
     97. D(F  18,C   7,C   6,F  16)    162.3257         0.008059   
     98. D(F  18,C   7,C   6,C   5)    -76.7446         0.008059   
     99. D(F  17,C   7,C   6,F  16)    -79.1358         0.008059   
    100. D(F  17,C   7,C   6,C   5)     41.7939         0.008059   
    101. D(C   8,C   7,C   6,F  16)     41.4341         0.008059   
    102. D(F  20,C   8,C   7,F  18)    162.0243         0.008755   
    103. D(F  20,C   8,C   7,F  17)     44.1231         0.008755   
    104. D(F  20,C   8,C   7,C   6)    -77.0818         0.008755   
    105. D(F  19,C   8,C   7,F  18)    -78.9355         0.008755   
    106. D(F  19,C   8,C   7,F  17)    163.1633         0.008755   
    107. D(F  19,C   8,C   7,C   6)     41.9584         0.008755   
    108. D(C   9,C   8,C   7,F  18)     41.5227         0.008755   
    109. D(C   9,C   8,C   7,F  17)    -76.3785         0.008755   
    110. D(C   9,C   8,C   7,C   6)    162.4166         0.008755   
    111. D(F  23,C   9,C   8,F  20)    167.4828         0.008903   
    112. D(F  23,C   9,C   8,F  19)     50.3013         0.008903   
    113. D(F  23,C   9,C   8,C   7)    -71.2711         0.008903   
    114. D(F  22,C   9,C   8,F  20)     48.1091         0.008903   
    115. D(F  22,C   9,C   8,F  19)    -69.0724         0.008903   
    116. D(F  22,C   9,C   8,C   7)    169.3552         0.008903   
    117. D(F  21,C   9,C   8,F  20)    -71.2185         0.008903   
    118. D(F  21,C   9,C   8,F  19)    171.5999         0.008903   
    119. D(F  21,C   9,C   8,C   7)     50.0276         0.008903   
    -----------------------------------------------------------------

Number of atoms                         .... 24
Number of degrees of freedom            .... 119

         *************************************************************
         *                GEOMETRY OPTIMIZATION CYCLE   1            *
         *************************************************************
---------------------------------
CARTESIAN COORDINATES (ANGSTROEM)
---------------------------------
  C      4.790427   -0.033866   -0.529943
  O      5.449345   -1.206924   -0.894595
  O      4.978223    1.323071   -0.737377
  C      3.506688   -0.338742    0.376154
  C      2.222300    0.400525   -0.110682
  C      0.900507   -0.386390    0.175703
  C     -0.395261    0.487294    0.065549
  C     -1.705694   -0.364774   -0.068374
  C     -3.005136    0.445345    0.258164
  C     -4.319880   -0.214526   -0.270541
  F      3.211587   -1.692050    0.412735
  F      3.741062    0.055286    1.689949
  F      2.125697    1.616868    0.483237
  F      2.314152    0.589704   -1.455769
  F      0.794029   -1.413561   -0.700839
  F      0.958351   -0.884509    1.435093
  F     -0.498373    1.260266    1.173340
  F     -1.641790   -1.418189    0.779524
  F     -1.792381   -0.831392   -1.336864
  F     -2.918792    1.679227   -0.295171
  F     -3.119771    0.573780    1.598580
  F     -4.383116   -1.504378    0.089128
  F     -5.365670    0.430529    0.260394
  F     -4.396020   -0.128551   -1.602942

----------------------------
CARTESIAN COORDINATES (A.U.)
----------------------------
  NO LB      ZA    FRAG     MASS         X           Y           Z
   0 C     6.0000    0    12.011    9.052595   -0.063997   -1.001448
   1 O     8.0000    0    15.999   10.297770   -2.280756   -1.690539
   2 O     8.0000    0    15.999    9.407478    2.500242   -1.393441
   3 C     6.0000    0    12.011    6.626679   -0.640129    0.710828
   4 C     6.0000    0    12.011    4.199538    0.756882   -0.209158
   5 C     6.0000    0    12.011    1.701711   -0.730171    0.332031
   6 C     6.0000    0    12.011   -0.746935    0.920852    0.123870
   7 C     6.0000    0    12.011   -3.223294   -0.689323   -0.129207
   8 C     6.0000    0    12.011   -5.678884    0.841580    0.487859
   9 C     6.0000    0    12.011   -8.163391   -0.405395   -0.511248
  10 F     9.0000    0    18.998    6.069021   -3.197512    0.779956
  11 F     9.0000    0    18.998    7.069582    0.104475    3.193540
  12 F     9.0000    0    18.998    4.016985    3.055437    0.913185
  13 F     9.0000    0    18.998    4.373114    1.114379   -2.751005
  14 F     9.0000    0    18.998    1.500497   -2.671244   -1.324394
  15 F     9.0000    0    18.998    1.811020   -1.671480    2.711934
  16 F     9.0000    0    18.998   -0.941789    2.381557    2.217292
  17 F     9.0000    0    18.998   -3.102534   -2.679989    1.473086
  18 F     9.0000    0    18.998   -3.387110   -1.571102   -2.526306
  19 F     9.0000    0    18.998   -5.515718    3.173280   -0.557793
  20 F     9.0000    0    18.998   -5.895513    1.084287    3.020878
  21 F     9.0000    0    18.998   -8.282888   -2.842862    0.168427
  22 F     9.0000    0    18.998  -10.139646    0.813581    0.492074
  23 F     9.0000    0    18.998   -8.307275   -0.242925   -3.029121

--------------------------------
INTERNAL COORDINATES (ANGSTROEM)
--------------------------------
 C      0   0   0     0.000000000000     0.00000000     0.00000000
 O      1   0   0     1.393990356793     0.00000000     0.00000000
 O      1   2   0     1.385486802956   136.13177198     0.00000000
 C      1   2   3     1.600608594862   111.52489317   181.18992567
 C      4   1   2     1.559863783763   113.16872737   228.91614990
 C      5   4   1     1.564732561934   113.58394786   148.64287440
 C      6   5   4     1.566675459667   113.91280616   163.93256239
 C      7   6   5     1.568817348692   113.20226571   162.98152714
 C      8   7   6     1.565717094808   113.22984595   162.36375422
 C      9   8   7     1.563173062643   114.14707705   162.41661495
 F      4   1   2     1.385592665621   111.82651119   350.11101305
 F      4   1   2     1.391490625050   110.20991618   108.63170802
 F      5   4   1     1.357041377479   110.29260564   270.15468021
 F      5   4   1     1.361428031433   108.58179722    28.57841973
 F      6   5   4     1.354527570075   109.22822656   285.03385927
 F      6   5   4     1.355556277776   108.59004089    43.81583148
 F      7   6   5     1.354739297058   108.88346185   283.65347401
 F      8   7   6     1.353771473879   109.25240264    41.79387651
 F      8   7   6     1.354368423305   108.69554158   283.25540020
 F      9   8   7     1.355028009646   109.45719767    41.95842364
 F      9   8   7     1.351425618925   109.05210362   282.91820052
 F     10   9   8     1.340551089588   110.79953142    50.02756898
 F     10   9   8     1.338530275591   108.63493714   169.35523750
 F     10   9   8     1.337341214598   110.96044107   288.72891896

---------------------------
INTERNAL COORDINATES (A.U.)
---------------------------
 C      0   0   0     0.000000000000     0.00000000     0.00000000
 O      1   0   0     2.634260007667     0.00000000     0.00000000
 O      1   2   0     2.618190619750   136.13177198     0.00000000
 C      1   2   3     3.024711891890   111.52489317   181.18992567
 C      4   1   2     2.947715357535   113.16872737   228.91614990
 C      5   4   1     2.956916014884   113.58394786   148.64287440
 C      6   5   4     2.960587559506   113.91280616   163.93256239
 C      7   6   5     2.964635143173   113.20226571   162.98152714
 C      8   7   6     2.958776512386   113.22984595   162.36375422
 C      9   8   7     2.953968988318   114.14707705   162.41661495
 F      4   1   2     2.618390671194   111.82651119   350.11101305
 F      4   1   2     2.629536199263   110.20991618   108.63170802
 F      5   4   1     2.564436555835   110.29260564   270.15468021
 F      5   4   1     2.572726130452   108.58179722    28.57841973
 F      6   5   4     2.559686148288   109.22822656   285.03385927
 F      6   5   4     2.561630124115   108.59004089    43.81583148
 F      7   6   5     2.560086254300   108.88346185   283.65347401
 F      8   7   6     2.558257333546   109.25240264    41.79387651
 F      8   7   6     2.559385404477   108.69554158   283.25540020
 F      9   8   7     2.560631842023   109.45719767    41.95842364
 F      9   8   7     2.553824310132   109.05210362   282.91820052
 F     10   9   8     2.533274427850   110.79953142    50.02756898
 F     10   9   8     2.529455642830   108.63493714   169.35523750
 F     10   9   8     2.527208643196   110.96044107   288.72891896

---------------------
BASIS SET INFORMATION
---------------------
There are 3 groups of distinct atoms

 Group   1 Type C   : 11s6p2d1f contracted to 5s3p2d1f pattern {62111/411/11/1}
 Group   2 Type O   : 11s6p2d1f contracted to 5s3p2d1f pattern {62111/411/11/1}
 Group   3 Type F   : 11s6p2d1f contracted to 5s3p2d1f pattern {62111/411/11/1}

Atom   0C    basis set group =>   1
Atom   1O    basis set group =>   2
Atom   2O    basis set group =>   2
Atom   3C    basis set group =>   1
Atom   4C    basis set group =>   1
Atom   5C    basis set group =>   1
Atom   6C    basis set group =>   1
Atom   7C    basis set group =>   1
Atom   8C    basis set group =>   1
Atom   9C    basis set group =>   1
Atom  10F    basis set group =>   3
Atom  11F    basis set group =>   3
Atom  12F    basis set group =>   3
Atom  13F    basis set group =>   3
Atom  14F    basis set group =>   3
Atom  15F    basis set group =>   3
Atom  16F    basis set group =>   3
Atom  17F    basis set group =>   3
Atom  18F    basis set group =>   3
Atom  19F    basis set group =>   3
Atom  20F    basis set group =>   3
Atom  21F    basis set group =>   3
Atom  22F    basis set group =>   3
Atom  23F    basis set group =>   3
---------------------------------
AUXILIARY/J BASIS SET INFORMATION
---------------------------------
There are 3 groups of distinct atoms

 Group   1 Type C   : 12s5p4d2f1g contracted to 6s4p3d1f1g pattern {711111/2111/211/2/1}
 Group   2 Type O   : 12s5p4d2f1g contracted to 6s4p3d1f1g pattern {711111/2111/211/2/1}
 Group   3 Type F   : 12s5p4d2f1g contracted to 6s4p3d1f1g pattern {711111/2111/211/2/1}

Atom   0C    basis set group =>   1
Atom   1O    basis set group =>   2
Atom   2O    basis set group =>   2
Atom   3C    basis set group =>   1
Atom   4C    basis set group =>   1
Atom   5C    basis set group =>   1
Atom   6C    basis set group =>   1
Atom   7C    basis set group =>   1
Atom   8C    basis set group =>   1
Atom   9C    basis set group =>   1
Atom  10F    basis set group =>   3
Atom  11F    basis set group =>   3
Atom  12F    basis set group =>   3
Atom  13F    basis set group =>   3
Atom  14F    basis set group =>   3
Atom  15F    basis set group =>   3
Atom  16F    basis set group =>   3
Atom  17F    basis set group =>   3
Atom  18F    basis set group =>   3
Atom  19F    basis set group =>   3
Atom  20F    basis set group =>   3
Atom  21F    basis set group =>   3
Atom  22F    basis set group =>   3
Atom  23F    basis set group =>   3


           ************************************************************
           *        Program running with 20 parallel MPI-processes    *
           *              working on a common directory               *
           ************************************************************
------------------------------------------------------------------------------
                           ORCA GTO INTEGRAL CALCULATION
                           -- RI-GTO INTEGRALS CHOSEN --
------------------------------------------------------------------------------
------------------------------------------------------------------------------
                   ___                                                        
                  /   \      - P O W E R E D   B Y -                         
                 /     \                                                     
                 |  |  |   _    _      __       _____    __    __             
                 |  |  |  | |  | |    /  \     |  _  \  |  |  /  |          
                  \  \/   | |  | |   /    \    | | | |  |  | /  /          
                 / \  \   | |__| |  /  /\  \   | |_| |  |  |/  /          
                |  |  |   |  __  | /  /__\  \  |    /   |      \           
                |  |  |   | |  | | |   __   |  |    \   |  |\   \          
                \     /   | |  | | |  |  |  |  | |\  \  |  | \   \       
                 \___/    |_|  |_| |__|  |__|  |_| \__\ |__|  \__/        
                                                                              
                      - O R C A' S   B I G   F R I E N D -                    
                                      &                                       
                       - I N T E G R A L  F E E D E R -                       
                                                                              
 v1 FN, 2020, v2 2021                                                         
------------------------------------------------------------------------------


Reading SHARK input file rf_mecn_opt_TPS_C5_D_B.SHARKINP.tmp ... ok
----------------------
SHARK INTEGRAL PACKAGE
----------------------

Number of atoms                             ...     24
Number of basis functions                   ...    744
Number of shells                            ...    264
Maximum angular momentum                    ...      3
Integral batch strategy                     ... SHARK/LIBINT Hybrid
RI-J (if used) integral strategy            ... SPLIT-RIJ (Revised 2003 algorithm where possible)
Printlevel                                  ...      1
Contraction scheme used                     ... SEGMENTED contraction
Coulomb Range Separation                    ... NOT USED
Exchange Range Separation                   ... NOT USED
Finite Nucleus Model                        ... NOT USED
Auxiliary Coulomb fitting basis             ... AVAILABLE
   # of basis functions in Aux-J            ...   1176
   # of shells in Aux-J                     ...    360
   Maximum angular momentum in Aux-J        ...      4
Auxiliary J/K fitting basis                 ... NOT available
Auxiliary Correlation fitting basis         ... NOT available
Auxiliary 'external' fitting basis          ... NOT available
Integral threshold                          ...     2.500000e-11
Primitive cut-off                           ...     2.500000e-12
Primitive pair pre-selection threshold      ...     2.500000e-12

Calculating pre-screening integrals         ... done (  0.1 sec) Dimension = 264
Organizing shell pair data                  ... done (  0.3 sec)
Shell pair information
Total number of shell pairs                 ...     34980
Shell pairs after pre-screening             ...     21367
Total number of primitive shell pairs       ...    115968
Primitive shell pairs kept                  ...     45490
          la=0 lb=0:   3987 shell pairs
          la=1 lb=0:   5806 shell pairs
          la=1 lb=1:   2036 shell pairs
          la=2 lb=0:   3175 shell pairs
          la=2 lb=1:   2358 shell pairs
          la=2 lb=2:    669 shell pairs
          la=3 lb=0:   1443 shell pairs
          la=3 lb=1:   1134 shell pairs
          la=3 lb=2:    611 shell pairs
          la=3 lb=3:    148 shell pairs

Calculating one electron integrals          ... done (  0.0 sec)
Calculating RI/J V-Matrix + Cholesky decomp.... done (  0.1 sec)
Calculating Nuclear repulsion               ... done (  0.0 sec) ENN=   2588.978657418115 Eh

SHARK setup successfully completed in   1.0 seconds

Maximum memory used throughout the entire GTOINT-calculation: 38.2 MB


           ************************************************************
           *        Program running with 20 parallel MPI-processes    *
           *              working on a common directory               *
           ************************************************************
-------------------------------------------------------------------------------
                                 ORCA SCF
-------------------------------------------------------------------------------

------------
SCF SETTINGS
------------
Hamiltonian:
 Density Functional     Method          .... DFT(GTOs)
 Exchange Functional    Exchange        .... TPSS
 Correlation Functional Correlation     .... TPSS
 LDA part of GGA corr.  LDAOpt          .... PW91-LDA
 Gradients option       PostSCFGGA      .... off
 Hybrid DFT is turned on
   Fraction HF Exchange ScalHFX         ....  0.100000
   Scaling of DF-GGA-X  ScalDFX         ....  0.900000
   Scaling of DF-GGA-C  ScalDFC         ....  1.000000
   Scaling of DF-LDA-C  ScalLDAC        ....  1.000000
   Perturbative correction              ....  0.000000
   Density functional embedding theory  .... OFF
   NL short-range parameter             ....  5.200000
 RI-approximation to the Coulomb term is turned on
   Number of AuxJ basis functions       .... 1176
   RIJ-COSX (HFX calculated with COS-X)).... on


General Settings:
 Integral files         IntName         .... rf_mecn_opt_TPS_C5_D_B
 Hartree-Fock type      HFTyp           .... UHF
 Total Charge           Charge          ....   -1
 Multiplicity           Mult            ....    2
 Number of Electrons    NEL             ....  191
 Basis Dimension        Dim             ....  744
 Nuclear Repulsion      ENuc            ....   2588.9786574181 Eh

Convergence Acceleration:
 DIIS                   CNVDIIS         .... on
   Start iteration      DIISMaxIt       ....     0
   Startup error        DIISStart       ....  0.200000
   # of expansion vecs  DIISMaxEq       ....     5
   Bias factor          DIISBfac        ....   1.050
   Max. coefficient     DIISMaxC        ....  10.000
 Trust-Rad. Augm. Hess. CNVTRAH         .... auto
   Auto Start mean grad. ratio tolernc. ....  1.125000
   Auto Start start iteration           ....    20
   Auto Start num. interpolation iter.  ....    10
   Max. Number of Micro iterations      ....    16
   Max. Number of Macro iterations      .... Maxiter - #DIIS iter
   Number of Davidson start vectors     ....     2
   Converg. threshold I  (grad. norm)   ....   1.000e-05
   Converg. threshold II (energy diff.) ....   1.000e-08
   Grad. Scal. Fac. for Micro threshold ....   0.100
   Minimum threshold for Micro iter.    ....   0.010
   NR start threshold (gradient norm)   ....   0.001
   Initial trust radius                 ....   0.400
   Minimum AH scaling param. (alpha)    ....   1.000
   Maximum AH scaling param. (alpha)    .... 1000.000
   Orbital update algorithm             .... Taylor
   White noise on init. David. guess    .... on
   Maximum white noise                  ....   0.010
   Quad. conv. algorithm                .... NR
 SOSCF                  CNVSOSCF        .... off
 Level Shifting         CNVShift        .... on
   Level shift para.    LevelShift      ....    0.2500
   Turn off err/grad.   ShiftErr        ....    0.0000
 Zerner damping         CNVZerner       .... off
 Static damping         CNVDamp         .... on
   Fraction old density DampFac         ....    0.8500
   Max. Damping (<1)    DampMax         ....    0.9800
   Min. Damping (>=0)   DampMin         ....    0.0000
   Turn off err/grad.   DampErr         ....    0.0300
 Fernandez-Rico         CNVRico         .... off

SCF Procedure:
 Maximum # iterations   MaxIter         ....  1500
 SCF integral mode      SCFMode         .... Direct
   Integral package                     .... SHARK and LIBINT hybrid scheme
 Reset frequency        DirectResetFreq ....    20
 Integral Threshold     Thresh          ....  2.500e-11 Eh
 Primitive CutOff       TCut            ....  2.500e-12 Eh

Convergence Tolerance:
 Convergence Check Mode ConvCheckMode   .... Total+1el-Energy
 Convergence forced     ConvForced      .... 0
 Energy Change          TolE            ....  1.000e-08 Eh
 1-El. energy change                    ....  1.000e-05 Eh
 DIIS Error             TolErr          ....  5.000e-07


Diagonalization of the overlap matrix:
Smallest eigenvalue                        ... 6.774e-05
Time for diagonalization                   ...    0.159 sec
Threshold for overlap eigenvalues          ... 1.000e-08
Number of eigenvalues below threshold      ... 0
Time for construction of square roots      ...    0.093 sec
Total time needed                          ...    0.257 sec

Time for model grid setup =    0.284 sec

------------------------------
INITIAL GUESS: MODEL POTENTIAL
------------------------------
Loading Hartree-Fock densities                     ... done
Calculating cut-offs                               ... done
Initializing the effective Hamiltonian             ... done
Setting up the integral package (SHARK)            ... done
Starting the Coulomb interaction                   ... done (   0.3 sec)
Reading the grid                                   ... done
Mapping shells                                     ... done
Starting the XC term evaluation                    ... done (   0.2 sec)
  promolecular density results
     # of electrons  =    189.999877799
     EX              =   -197.018043732
     EC              =     -6.647769626
     EX+EC           =   -203.665813358
Transforming the Hamiltonian                       ... done (   0.1 sec)
Diagonalizing the Hamiltonian                      ... done (   0.1 sec)
Back transforming the eigenvectors                 ... done (   0.0 sec)
Now organizing SCF variables                       ... done
                      ------------------
                      INITIAL GUESS DONE (   1.1 sec)
                      ------------------
-------------------
DFT GRID GENERATION
-------------------

General Integration Accuracy     IntAcc      ... 4.388
Radial Grid Type                 RadialGrid  ... OptM3 with GC (2021)
Angular Grid (max. ang.)         AngularGrid ... 4 (Lebedev-302)
Angular grid pruning method      GridPruning ... 4 (adaptive)
Weight generation scheme         WeightScheme... Becke
Basis function cutoff            BFCut       ... 1.0000e-11
Integration weight cutoff        WCut        ... 1.0000e-14
Angular grids for H and He will be reduced by one unit
Partially contracted basis set               ... off
Rotationally invariant grid construction     ... off

Total number of grid points                  ...   145512
Total number of batches                      ...     2284
Average number of points per batch           ...       63
Average number of grid points per atom       ...     6063
Time for grid setup =    1.119 sec

--------------------
COSX GRID GENERATION
--------------------

GRIDX 1
-------
General Integration Accuracy     IntAcc      ... 3.816
Radial Grid Type                 RadialGrid  ... OptM3 with GC (2021)
Angular Grid (max. ang.)         AngularGrid ... 1 (Lebedev-50)
Angular grid pruning method      GridPruning ... 4 (adaptive)
Weight generation scheme         WeightScheme... Becke
Basis function cutoff            BFCut       ... 1.0000e-11
Integration weight cutoff        WCut        ... 1.0000e-14
Angular grids for H and He will be reduced by one unit
Partially contracted basis set               ... on
Rotationally invariant grid construction     ... off

Total number of grid points                  ...    18282
Total number of batches                      ...      297
Average number of points per batch           ...       61
Average number of grid points per atom       ...      762
UseSFitting                                  ... on

GRIDX 2
-------
General Integration Accuracy     IntAcc      ... 4.020
Radial Grid Type                 RadialGrid  ... OptM3 with GC (2021)
Angular Grid (max. ang.)         AngularGrid ... 2 (Lebedev-110)
Angular grid pruning method      GridPruning ... 4 (adaptive)
Weight generation scheme         WeightScheme... Becke
Basis function cutoff            BFCut       ... 1.0000e-11
Integration weight cutoff        WCut        ... 1.0000e-14
Angular grids for H and He will be reduced by one unit
Partially contracted basis set               ... on
Rotationally invariant grid construction     ... off

Total number of grid points                  ...    43385
Total number of batches                      ...      694
Average number of points per batch           ...       62
Average number of grid points per atom       ...     1808
UseSFitting                                  ... on

GRIDX 3
-------
General Integration Accuracy     IntAcc      ... 4.338
Radial Grid Type                 RadialGrid  ... OptM3 with GC (2021)
Angular Grid (max. ang.)         AngularGrid ... 3 (Lebedev-194)
Angular grid pruning method      GridPruning ... 4 (adaptive)
Weight generation scheme         WeightScheme... Becke
Basis function cutoff            BFCut       ... 1.0000e-11
Integration weight cutoff        WCut        ... 1.0000e-14
Angular grids for H and He will be reduced by one unit
Partially contracted basis set               ... on
Rotationally invariant grid construction     ... off

Total number of grid points                  ...    96130
Total number of batches                      ...     1513
Average number of points per batch           ...       63
Average number of grid points per atom       ...     4005
UseSFitting                                  ... on

Time for X-Grid setup             =    2.063 sec


--------------------
CPCM SOLVATION MODEL
--------------------
CPCM parameters:
  Epsilon                                         ...      35.6880
  Refrac                                          ...       1.3442
  Rsolv                                           ...       1.3000
  Surface type                                    ... GAUSSIAN VDW
  Epsilon function type                           ...         CPCM
Solvent:                                     ... ACETONITRILE
SMD-CDS solvent descriptors:
  Soln                                       ...    1.3442
  Soln25                                     ...    1.3416
  Sola                                       ...    0.0700
  Solb                                       ...    0.3200
  Solg                                       ...   41.2500
  Solc                                       ...    0.0000
  Solh                                       ...    0.0000
Radii:
 Radius for C  used is    3.4960 Bohr (=   1.8500 Ang.)
 Radius for O  used is    4.0969 Bohr (=   2.1680 Ang.)
 Radius for F  used is    3.2692 Bohr (=   1.7300 Ang.)
Calculating surface                               ...        done! (  0.0s)
GEPOL surface points                              ...         1278
GEPOL Volume                                      ...    2149.4170
GEPOL Surface-area                                ...    1121.9463
Calculating surface distance matrix               ...        done! (  0.0s)
Performing Cholesky decomposition & store         ...        done! (  0.1s)
Overall time for CPCM initialization              ...                 0.1s
--------------
SCF ITERATIONS
--------------
ITER       Energy         Delta-E        Max-DP      RMS-DP      [F,P]     Damp
               ***  Starting incremental Fock matrix formation  ***
  0  -1853.4079900212   0.000000000000 0.03608524  0.00018605  0.1564100 0.8500
  1  -1853.5610250202  -0.153034998953 0.05624731  0.00020996  0.1024151 0.8500
                               ***Turning on DIIS***
  2  -1853.6376582752  -0.076633254959 0.04292042  0.00015327  0.0576754 0.8500
  3  -1853.6782734989  -0.040615223749 0.11187575  0.00048113  0.0293528 0.0000
  4  -1853.8473467646  -0.169073265720 0.01177449  0.00003714  0.0343593 0.8500
  5  -1853.8524281326  -0.005081367998 0.09878196  0.00031005  0.0293287 0.0000
  6  -1853.8700360750  -0.017607942393 0.01191284  0.00005006  0.0080674 0.0000
  7  -1853.8709635896  -0.000927514592 0.00169410  0.00001301  0.0022989 0.0000
  8  -1853.8710389694  -0.000075379780 0.00067203  0.00000622  0.0023826 0.0000
  9  -1853.8710854775  -0.000046508157 0.00049274  0.00000352  0.0004625 0.0000
               *** Restarting incremental Fock matrix formation ***
                                   *** Resetting DIIS ***
 10  -1853.8710985568  -0.000013079232 0.00028732  0.00000254  0.0002955 0.0000
 11  -1853.8711024559  -0.000003899156 0.00020057  0.00000151  0.0004765 0.0000
 12  -1853.8711061693  -0.000003713322 0.00016668  0.00000127  0.0001726 0.0000
 13  -1853.8711077454  -0.000001576151 0.00013885  0.00000093  0.0001362 0.0000
 14  -1853.8711086858  -0.000000940384 0.00010941  0.00000070  0.0001083 0.0000
 15  -1853.8711092583  -0.000000572550 0.00009004  0.00000054  0.0000845 0.0000
 16  -1853.8711095743  -0.000000316000 0.00007009  0.00000043  0.0000662 0.0000
 17  -1853.8711097643  -0.000000189967 0.00005895  0.00000035  0.0000519 0.0000
 18  -1853.8711099138  -0.000000149451 0.00004324  0.00000028  0.0000402 0.0000
 19  -1853.8711099853  -0.000000071500 0.00003314  0.00000022  0.0000311 0.0000
 20  -1853.8711100561  -0.000000070822 0.00002420  0.00000017  0.0000239 0.0000
 21  -1853.8711100544   0.000000001659 0.00001897  0.00000015  0.0000185 0.0000
 22  -1853.8711100873  -0.000000032878 0.00001701  0.00000012  0.0000142 0.0000
 23  -1853.8711101042  -0.000000016877 0.00001671  0.00000010  0.0000110 0.0000
 24  -1853.8711100888   0.000000015382 0.00000954  0.00000007  0.0000086 0.0000
 25  -1853.8711100803   0.000000008491 0.00001592  0.00000008  0.0000066 0.0000
 26  -1853.8711100804  -0.000000000053 0.00000591  0.00000005  0.0000051 0.0000
 27  -1853.8711101279  -0.000000047537 0.00000730  0.00000006  0.0000040 0.0000
 28  -1853.8711101165   0.000000011390 0.00000596  0.00000004  0.0000032 0.0000
 29  -1853.8711100956   0.000000020891 0.00003179  0.00000017  0.0000024 0.0000
               *** Restarting incremental Fock matrix formation ***
                                   *** Resetting DIIS ***
 30  -1853.8711100661   0.000000029498 0.00003263  0.00000017  0.0000019 0.0000
 31  -1853.8711100334   0.000000032688 0.00000495  0.00000003  0.0000015 0.0000
 32  -1853.8711100024   0.000000031004 0.00000870  0.00000004  0.0000012 0.0000
                            ***DIIS convergence achieved***

               *****************************************************
               *                     SUCCESS                       *
               *           SCF CONVERGED AFTER  33 CYCLES          *
               *****************************************************

Old exchange energy                            =    -19.871854181 Eh
New exchange energy                            =    -19.871861074 Eh
Exchange energy change after final integration =     -0.000006893 Eh
Total energy after final integration           =  -1853.871116915 Eh
Final COS-X integration done in                =    10.679 sec

SMD CDS free energy correction energy :                 3.61095     Kcal/mol
Total Energy after SMD CDS correction =             -1853.865362493 Eh

----------------
TOTAL SCF ENERGY
----------------

Total Energy       :        -1853.86536249 Eh          -50446.24115 eV

Components:
Nuclear Repulsion  :         2588.97865742 Eh           70449.69086 eV
Electronic Energy  :        -4442.84401991 Eh         -120895.93201 eV
One Electron Energy:        -7752.60247884 Eh         -210959.03840 eV
Two Electron Energy:         3309.75845893 Eh           90063.10639 eV
Max COSX asymmetry :            0.00000031 Eh               0.00001 eV
CPCM Dielectric    :           -0.08316095 Eh              -2.26292 eV
SMD CDS (Gcds)     :            0.00575442 Eh               0.15659 eV

Virial components:
Potential Energy   :        -3700.47973303 Eh         -100695.17278 eV
Kinetic Energy     :         1846.61437054 Eh           50248.93163 eV
Virial Ratio       :            2.00392664


DFT components:
N(Alpha)           :       95.999991323567 electrons
N(Beta)            :       94.999978542477 electrons
N(Total)           :      190.999969866044 electrons
E(X)               :     -180.648125899875 Eh       
E(C)               :       -6.696235271326 Eh       
E(XC)              :     -187.344361171201 Eh       
DFET-embed. en.    :        0.000000000000 Eh       
CPCM Solvation Model Properties:
Surface-charge          :            0.98980039
Charge-correction       :           -0.00104273 Eh              -0.02837 eV
Free-energy (cav+disp)  :            0.00575442 Eh               0.15659 eV

---------------
SCF CONVERGENCE
---------------

  Last Energy change         ...   -1.9695e-08  Tolerance :   1.0000e-08
  Last MAX-Density change    ...    0.0000e+00  Tolerance :   1.0000e-07
  Last RMS-Density change    ...    0.0000e+00  Tolerance :   5.0000e-09
  Last DIIS Error            ...    9.2279e-07  Tolerance :   5.0000e-07

             **** THE GBW FILE WAS UPDATED (rf_mecn_opt_TPS_C5_D_B.gbw) ****
             **** DENSITY rf_mecn_opt_TPS_C5_D_B.scfp WAS UPDATED ****
             **** ENERGY FILE WAS UPDATED (rf_mecn_opt_TPS_C5_D_B.en.tmp) ****
----------------------
UHF SPIN CONTAMINATION
----------------------

Warning: in a DFT calculation there is little theoretical justification to 
         calculate <S**2> as in Hartree-Fock theory. We will do it anyways
         but you should keep in mind that the values have only limited relevance

Expectation value of <S**2>     :     0.753882
Ideal value S*(S+1) for S=0.5   :     0.750000
Deviation                       :     0.003882

             **** THE GBW FILE WAS UPDATED (rf_mecn_opt_TPS_C5_D_B.gbw) ****
             **** DENSITY rf_mecn_opt_TPS_C5_D_B.scfp WAS UPDATED ****
----------------
ORBITAL ENERGIES
----------------
                 SPIN UP ORBITALS
  NO   OCC          E(Eh)            E(eV) 
   0   1.0000     -24.661229      -671.0662 
   1   1.0000     -24.659872      -671.0292 
   2   1.0000     -24.658968      -671.0046 
   3   1.0000     -24.658348      -670.9878 
   4   1.0000     -24.657643      -670.9686 
   5   1.0000     -24.656277      -670.9314 
   6   1.0000     -24.655936      -670.9221 
   7   1.0000     -24.652295      -670.8230 
   8   1.0000     -24.646980      -670.6784 
   9   1.0000     -24.646813      -670.6739 
  10   1.0000     -24.639033      -670.4622 
  11   1.0000     -24.636170      -670.3843 
  12   1.0000     -24.619022      -669.9176 
  13   1.0000     -24.616492      -669.8488 
  14   1.0000     -19.012217      -517.3487 
  15   1.0000     -19.010333      -517.2975 
  16   1.0000     -10.394676      -282.8535 
  17   1.0000     -10.341060      -281.3945 
  18   1.0000     -10.340326      -281.3746 
  19   1.0000     -10.331487      -281.1340 
  20   1.0000     -10.317192      -280.7451 
  21   1.0000     -10.295419      -280.1526 
  22   1.0000     -10.275856      -279.6203 
  23   1.0000     -10.227860      -278.3142 
  24   1.0000      -1.319047       -35.8931 
  25   1.0000      -1.287625       -35.0381 
  26   1.0000      -1.277530       -34.7634 
  27   1.0000      -1.271056       -34.5872 
  28   1.0000      -1.256667       -34.1956 
  29   1.0000      -1.248125       -33.9632 
  30   1.0000      -1.234085       -33.5812 
  31   1.0000      -1.229547       -33.4577 
  32   1.0000      -1.226850       -33.3843 
  33   1.0000      -1.223762       -33.3003 
  34   1.0000      -1.217679       -33.1347 
  35   1.0000      -1.214887       -33.0588 
  36   1.0000      -1.201630       -32.6980 
  37   1.0000      -1.175098       -31.9760 
  38   1.0000      -0.934923       -25.4406 
  39   1.0000      -0.876901       -23.8617 
  40   1.0000      -0.819824       -22.3086 
  41   1.0000      -0.797277       -21.6950 
  42   1.0000      -0.768753       -20.9188 
  43   1.0000      -0.726296       -19.7635 
  44   1.0000      -0.685837       -18.6626 
  45   1.0000      -0.656896       -17.8751 
  46   1.0000      -0.635460       -17.2918 
  47   1.0000      -0.617000       -16.7894 
  48   1.0000      -0.609562       -16.5870 
  49   1.0000      -0.606713       -16.5095 
  50   1.0000      -0.589728       -16.0473 
  51   1.0000      -0.587126       -15.9765 
  52   1.0000      -0.583559       -15.8794 
  53   1.0000      -0.579453       -15.7677 
  54   1.0000      -0.574927       -15.6446 
  55   1.0000      -0.561568       -15.2810 
  56   1.0000      -0.558390       -15.1946 
  57   1.0000      -0.548006       -14.9120 
  58   1.0000      -0.541812       -14.7434 
  59   1.0000      -0.538388       -14.6503 
  60   1.0000      -0.521639       -14.1945 
  61   1.0000      -0.495074       -13.4716 
  62   1.0000      -0.483182       -13.1481 
  63   1.0000      -0.476300       -12.9608 
  64   1.0000      -0.471265       -12.8238 
  65   1.0000      -0.465929       -12.6786 
  66   1.0000      -0.464507       -12.6399 
  67   1.0000      -0.455789       -12.4026 
  68   1.0000      -0.451560       -12.2876 
  69   1.0000      -0.449077       -12.2200 
  70   1.0000      -0.446589       -12.1523 
  71   1.0000      -0.445227       -12.1152 
  72   1.0000      -0.435328       -11.8459 
  73   1.0000      -0.433812       -11.8046 
  74   1.0000      -0.431198       -11.7335 
  75   1.0000      -0.430350       -11.7104 
  76   1.0000      -0.424988       -11.5645 
  77   1.0000      -0.421305       -11.4643 
  78   1.0000      -0.418749       -11.3947 
  79   1.0000      -0.416384       -11.3304 
  80   1.0000      -0.411317       -11.1925 
  81   1.0000      -0.410019       -11.1572 
  82   1.0000      -0.406205       -11.0534 
  83   1.0000      -0.401252       -10.9186 
  84   1.0000      -0.399049       -10.8587 
  85   1.0000      -0.386216       -10.5095 
  86   1.0000      -0.384880       -10.4731 
  87   1.0000      -0.371377       -10.1057 
  88   1.0000      -0.363626        -9.8948 
  89   1.0000      -0.347242        -9.4489 
  90   1.0000      -0.327187        -8.9032 
  91   1.0000      -0.318375        -8.6634 
  92   1.0000      -0.284165        -7.7325 
  93   1.0000      -0.230626        -6.2757 
  94   1.0000      -0.223132        -6.0717 
  95   1.0000      -0.220339        -5.9957 
  96   0.0000      -0.029346        -0.7986 
  97   0.0000      -0.016328        -0.4443 
  98   0.0000       0.015408         0.4193 
  99   0.0000       0.034114         0.9283 
 100   0.0000       0.042389         1.1535 
 101   0.0000       0.076590         2.0841 
 102   0.0000       0.092963         2.5297 
 103   0.0000       0.099688         2.7127 
 104   0.0000       0.105023         2.8578 
 105   0.0000       0.111978         3.0471 
 106   0.0000       0.121766         3.3134 
 107   0.0000       0.130884         3.5615 
 108   0.0000       0.142486         3.8772 
 109   0.0000       0.151230         4.1152 
 110   0.0000       0.164520         4.4768 
 111   0.0000       0.169042         4.5999 
 112   0.0000       0.177379         4.8267 
 113   0.0000       0.196539         5.3481 
 114   0.0000       0.197796         5.3823 
 115   0.0000       0.201220         5.4755 
 116   0.0000       0.205084         5.5806 
 117   0.0000       0.208589         5.6760 
 118   0.0000       0.213386         5.8065 
 119   0.0000       0.217080         5.9071 
 120   0.0000       0.221790         6.0352 
 121   0.0000       0.225991         6.1495 
 122   0.0000       0.228950         6.2300 
 123   0.0000       0.237827         6.4716 
 124   0.0000       0.242442         6.5972 
 125   0.0000       0.249708         6.7949 
 126   0.0000       0.254025         6.9124 
 127   0.0000       0.254362         6.9215 
 128   0.0000       0.265750         7.2314 
 129   0.0000       0.275016         7.4836 
 130   0.0000       0.281396         7.6572 
 131   0.0000       0.287144         7.8136 
 132   0.0000       0.294877         8.0240 
 133   0.0000       0.296056         8.0561 
 134   0.0000       0.307054         8.3554 
 135   0.0000       0.312833         8.5126 
 136   0.0000       0.321634         8.7521 
 137   0.0000       0.325221         8.8497 
 138   0.0000       0.332696         9.0531 
 139   0.0000       0.341988         9.3060 
 140   0.0000       0.348177         9.4744 
 141   0.0000       0.354937         9.6583 
 142   0.0000       0.376500        10.2451 
 143   0.0000       0.386904        10.5282 
 144   0.0000       0.394076        10.7234 
 145   0.0000       0.411836        11.2066 
 146   0.0000       0.419022        11.4022 
 147   0.0000       0.424975        11.5642 
 148   0.0000       0.435154        11.8412 
 149   0.0000       0.437524        11.9056 
 150   0.0000       0.450055        12.2466 
 151   0.0000       0.456028        12.4091 
 152   0.0000       0.461921        12.5695 
 153   0.0000       0.468132        12.7385 
 154   0.0000       0.474411        12.9094 
 155   0.0000       0.482110        13.1189 
 156   0.0000       0.489168        13.3109 
 157   0.0000       0.496353        13.5064 
 158   0.0000       0.508763        13.8442 
 159   0.0000       0.511674        13.9234 
 160   0.0000       0.522406        14.2154 
 161   0.0000       0.528491        14.3810 
 162   0.0000       0.531552        14.4643 
 163   0.0000       0.539321        14.6757 
 164   0.0000       0.552486        15.0339 
 165   0.0000       0.568244        15.4627 
 166   0.0000       0.571641        15.5552 
 167   0.0000       0.581068        15.8117 
 168   0.0000       0.598671        16.2907 
 169   0.0000       0.616753        16.7827 
 170   0.0000       0.624572        16.9955 
 171   0.0000       0.635277        17.2868 
 172   0.0000       0.641546        17.4574 
 173   0.0000       0.651314        17.7232 
 174   0.0000       0.654030        17.7971 
 175   0.0000       0.664781        18.0896 
 176   0.0000       0.677820        18.4444 
 177   0.0000       0.682345        18.5676 
 178   0.0000       0.689761        18.7694 
 179   0.0000       0.701533        19.0897 
 180   0.0000       0.709129        19.2964 
 181   0.0000       0.718409        19.5489 
 182   0.0000       0.722667        19.6648 
 183   0.0000       0.723775        19.6949 
 184   0.0000       0.728651        19.8276 
 185   0.0000       0.735960        20.0265 
 186   0.0000       0.751845        20.4587 
 187   0.0000       0.757037        20.6000 
 188   0.0000       0.761308        20.7163 
 189   0.0000       0.767588        20.8871 
 190   0.0000       0.775614        21.1055 
 191   0.0000       0.779607        21.2142 
 192   0.0000       0.784437        21.3456 
 193   0.0000       0.784664        21.3518 
 194   0.0000       0.801041        21.7974 
 195   0.0000       0.807497        21.9731 
 196   0.0000       0.821289        22.3484 
 197   0.0000       0.828997        22.5581 
 198   0.0000       0.838955        22.8291 
 199   0.0000       0.847904        23.0726 
 200   0.0000       0.854111        23.2415 
 201   0.0000       0.857571        23.3357 
 202   0.0000       0.864763        23.5314 
 203   0.0000       0.881071        23.9752 
 204   0.0000       0.887812        24.1586 
 205   0.0000       0.897094        24.4112 
 206   0.0000       0.898508        24.4496 
 207   0.0000       0.907760        24.7014 
 208   0.0000       0.915765        24.9192 
 209   0.0000       0.930591        25.3227 
 210   0.0000       0.936185        25.4749 
 211   0.0000       0.939346        25.5609 
 212   0.0000       0.956043        26.0152 
 213   0.0000       0.965908        26.2837 
 214   0.0000       0.972807        26.4714 
 215   0.0000       0.978663        26.6308 
 216   0.0000       0.982659        26.7395 
 217   0.0000       1.009854        27.4795 
 218   0.0000       1.012911        27.5627 
 219   0.0000       1.017818        27.6962 
 220   0.0000       1.021514        27.7968 
 221   0.0000       1.039154        28.2768 
 222   0.0000       1.059055        28.8183 
 223   0.0000       1.072781        29.1919 
 224   0.0000       1.083867        29.4935 
 225   0.0000       1.092781        29.7361 
 226   0.0000       1.098611        29.8947 
 227   0.0000       1.108918        30.1752 
 228   0.0000       1.116236        30.3743 
 229   0.0000       1.118712        30.4417 
 230   0.0000       1.127136        30.6709 
 231   0.0000       1.135249        30.8917 
 232   0.0000       1.146377        31.1945 
 233   0.0000       1.151635        31.3376 
 234   0.0000       1.162031        31.6205 
 235   0.0000       1.169652        31.8279 
 236   0.0000       1.176721        32.0202 
 237   0.0000       1.189188        32.3594 
 238   0.0000       1.201275        32.6884 
 239   0.0000       1.220462        33.2105 
 240   0.0000       1.227421        33.3998 
 241   0.0000       1.230362        33.4799 
 242   0.0000       1.244191        33.8561 
 243   0.0000       1.260023        34.2870 
 244   0.0000       1.267242        34.4834 
 245   0.0000       1.275113        34.6976 
 246   0.0000       1.279225        34.8095 
 247   0.0000       1.291095        35.1325 
 248   0.0000       1.317561        35.8527 
 249   0.0000       1.328028        36.1375 
 250   0.0000       1.331019        36.2189 
 251   0.0000       1.356691        36.9175 
 252   0.0000       1.372484        37.3472 
 253   0.0000       1.400909        38.1207 
 254   0.0000       1.411341        38.4045 
 255   0.0000       1.439673        39.1755 
 256   0.0000       1.455138        39.5963 
 257   0.0000       1.467733        39.9390 
 258   0.0000       1.473609        40.0989 
 259   0.0000       1.516932        41.2778 
 260   0.0000       1.531750        41.6810 
 261   0.0000       1.549478        42.1634 
 262   0.0000       1.559672        42.4408 
 263   0.0000       1.592694        43.3394 
 264   0.0000       1.604009        43.6473 
 265   0.0000       1.624261        44.1984 
 266   0.0000       1.635478        44.5036 
 267   0.0000       1.661679        45.2166 
 268   0.0000       1.669364        45.4257 
 269   0.0000       1.690211        45.9930 
 270   0.0000       1.694415        46.1074 
 271   0.0000       1.722244        46.8646 
 272   0.0000       1.741482        47.3881 
 273   0.0000       1.758888        47.8618 
 274   0.0000       1.773056        48.2473 
 275   0.0000       1.785694        48.5912 
 276   0.0000       1.791811        48.7576 
 277   0.0000       1.807505        49.1847 
 278   0.0000       1.815383        49.3991 
 279   0.0000       1.835589        49.9489 
 280   0.0000       1.849936        50.3393 
 281   0.0000       1.853686        50.4413 
 282   0.0000       1.865735        50.7692 
 283   0.0000       1.884483        51.2794 
 284   0.0000       1.891755        51.4773 
 285   0.0000       1.896449        51.6050 
 286   0.0000       1.906231        51.8712 
 287   0.0000       1.908883        51.9433 
 288   0.0000       1.915780        52.1310 
 289   0.0000       1.917823        52.1866 
 290   0.0000       1.924127        52.3581 
 291   0.0000       1.927961        52.4625 
 292   0.0000       1.941735        52.8373 
 293   0.0000       1.951443        53.1015 
 294   0.0000       1.962854        53.4120 
 295   0.0000       1.986902        54.0664 
 296   0.0000       1.993579        54.2480 
 297   0.0000       2.003777        54.5256 
 298   0.0000       2.022941        55.0470 
 299   0.0000       2.030285        55.2469 
 300   0.0000       2.039573        55.4996 
 301   0.0000       2.043414        55.6041 
 302   0.0000       2.047676        55.7201 
 303   0.0000       2.059294        56.0362 
 304   0.0000       2.068323        56.2819 
 305   0.0000       2.071314        56.3633 
 306   0.0000       2.074292        56.4443 
 307   0.0000       2.081974        56.6534 
 308   0.0000       2.086106        56.7658 
 309   0.0000       2.087196        56.7955 
 310   0.0000       2.098769        57.1104 
 311   0.0000       2.119026        57.6616 
 312   0.0000       2.119753        57.6814 
 313   0.0000       2.127320        57.8873 
 314   0.0000       2.133652        58.0596 
 315   0.0000       2.139950        58.2310 
 316   0.0000       2.157443        58.7070 
 317   0.0000       2.164795        58.9071 
 318   0.0000       2.174932        59.1829 
 319   0.0000       2.180122        59.3241 
 320   0.0000       2.184416        59.4410 
 321   0.0000       2.215898        60.2977 
 322   0.0000       2.233627        60.7801 
 323   0.0000       2.243631        61.0523 
 324   0.0000       2.257765        61.4369 
 325   0.0000       2.265403        61.6448 
 326   0.0000       2.271857        61.8204 
 327   0.0000       2.286037        62.2062 
 328   0.0000       2.296602        62.4937 
 329   0.0000       2.331566        63.4451 
 330   0.0000       2.332274        63.4644 
 331   0.0000       2.344640        63.8009 
 332   0.0000       2.354039        64.0566 
 333   0.0000       2.369034        64.4647 
 334   0.0000       2.379993        64.7629 
 335   0.0000       2.396708        65.2177 
 336   0.0000       2.402816        65.3839 
 337   0.0000       2.412131        65.6374 
 338   0.0000       2.426337        66.0240 
 339   0.0000       2.436603        66.3033 
 340   0.0000       2.444610        66.5212 
 341   0.0000       2.451396        66.7059 
 342   0.0000       2.454090        66.7792 
 343   0.0000       2.459247        66.9195 
 344   0.0000       2.464688        67.0676 
 345   0.0000       2.470381        67.2225 
 346   0.0000       2.477377        67.4129 
 347   0.0000       2.478718        67.4494 
 348   0.0000       2.498338        67.9832 
 349   0.0000       2.515543        68.4514 
 350   0.0000       2.518905        68.5429 
 351   0.0000       2.541256        69.1511 
 352   0.0000       2.555366        69.5350 
 353   0.0000       2.568594        69.8950 
 354   0.0000       2.590213        70.4833 
 355   0.0000       2.604191        70.8636 
 356   0.0000       2.613403        71.1143 
 357   0.0000       2.616563        71.2003 
 358   0.0000       2.633591        71.6636 
 359   0.0000       2.640525        71.8523 
 360   0.0000       2.668835        72.6227 
 361   0.0000       2.687078        73.1191 
 362   0.0000       2.719878        74.0116 
 363   0.0000       2.750679        74.8498 
 364   0.0000       2.757878        75.0457 
 365   0.0000       2.776977        75.5654 
 366   0.0000       2.806259        76.3622 
 367   0.0000       2.822348        76.8000 
 368   0.0000       2.843195        77.3673 
 369   0.0000       2.858447        77.7823 
 370   0.0000       2.862477        77.8920 
 371   0.0000       2.887611        78.5759 
 372   0.0000       2.892465        78.7080 
 373   0.0000       2.903171        78.9993 
 374   0.0000       2.911307        79.2207 
 375   0.0000       2.924255        79.5730 
 376   0.0000       2.930051        79.7307 
 377   0.0000       2.939110        79.9773 
 378   0.0000       2.951928        80.3260 
 379   0.0000       2.966802        80.7308 
 380   0.0000       2.970231        80.8241 
 381   0.0000       2.981014        81.1175 
 382   0.0000       2.987431        81.2921 
 383   0.0000       2.994081        81.4731 
 384   0.0000       3.005913        81.7951 
 385   0.0000       3.014113        82.0182 
 386   0.0000       3.017459        82.1092 
 387   0.0000       3.032331        82.5139 
 388   0.0000       3.042543        82.7918 
 389   0.0000       3.049511        82.9814 
 390   0.0000       3.051677        83.0403 
 391   0.0000       3.065518        83.4170 
 392   0.0000       3.069648        83.5294 
 393   0.0000       3.074985        83.6746 
 394   0.0000       3.079269        83.7912 
 395   0.0000       3.088010        84.0290 
 396   0.0000       3.098133        84.3045 
 397   0.0000       3.100578        84.3710 
 398   0.0000       3.117561        84.8331 
 399   0.0000       3.125705        85.0547 
 400   0.0000       3.129087        85.1468 
 401   0.0000       3.131123        85.2022 
 402   0.0000       3.142122        85.5015 
 403   0.0000       3.145281        85.5875 
 404   0.0000       3.153941        85.8231 
 405   0.0000       3.156549        85.8941 
 406   0.0000       3.160537        86.0026 
 407   0.0000       3.175720        86.4157 
 408   0.0000       3.186832        86.7181 
 409   0.0000       3.186955        86.7214 
 410   0.0000       3.198158        87.0263 
 411   0.0000       3.213375        87.4404 
 412   0.0000       3.216447        87.5240 
 413   0.0000       3.230544        87.9076 
 414   0.0000       3.235079        88.0310 
 415   0.0000       3.239489        88.1510 
 416   0.0000       3.246357        88.3379 
 417   0.0000       3.253873        88.5424 
 418   0.0000       3.262457        88.7760 
 419   0.0000       3.273850        89.0860 
 420   0.0000       3.284555        89.3773 
 421   0.0000       3.288327        89.4799 
 422   0.0000       3.301131        89.8283 
 423   0.0000       3.308208        90.0209 
 424   0.0000       3.318055        90.2889 
 425   0.0000       3.326262        90.5122 
 426   0.0000       3.337985        90.8312 
 427   0.0000       3.356950        91.3473 
 428   0.0000       3.368208        91.6536 
 429   0.0000       3.373833        91.8067 
 430   0.0000       3.390713        92.2660 
 431   0.0000       3.400254        92.5256 
 432   0.0000       3.422904        93.1419 
 433   0.0000       3.425386        93.2095 
 434   0.0000       3.432241        93.3960 
 435   0.0000       3.453526        93.9752 
 436   0.0000       3.482803        94.7719 
 437   0.0000       3.497279        95.1658 
 438   0.0000       3.511391        95.5498 
 439   0.0000       3.536925        96.2446 
 440   0.0000       3.542863        96.4062 
 441   0.0000       3.563097        96.9568 
 442   0.0000       3.571401        97.1828 
 443   0.0000       3.591920        97.7411 
 444   0.0000       3.606031        98.1251 
 445   0.0000       3.627669        98.7139 
 446   0.0000       3.640106        99.0523 
 447   0.0000       3.648482        99.2802 
 448   0.0000       3.678613       100.1002 
 449   0.0000       3.697397       100.6113 
 450   0.0000       3.704470       100.8038 
 451   0.0000       3.727547       101.4317 
 452   0.0000       3.739484       101.7565 
 453   0.0000       3.748862       102.0117 
 454   0.0000       3.763501       102.4101 
 455   0.0000       3.771649       102.6318 
 456   0.0000       3.789557       103.1191 
 457   0.0000       3.809692       103.6670 
 458   0.0000       3.821716       103.9942 
 459   0.0000       3.829542       104.2071 
 460   0.0000       3.840041       104.4928 
 461   0.0000       3.851053       104.7925 
 462   0.0000       3.863337       105.1267 
 463   0.0000       3.879712       105.5723 
 464   0.0000       3.889052       105.8265 
 465   0.0000       3.891535       105.8941 
 466   0.0000       3.903982       106.2328 
 467   0.0000       3.909997       106.3964 
 468   0.0000       3.918290       106.6221 
 469   0.0000       3.929948       106.9393 
 470   0.0000       3.945914       107.3738 
 471   0.0000       3.957102       107.6782 
 472   0.0000       3.972292       108.0916 
 473   0.0000       3.983065       108.3847 
 474   0.0000       3.984951       108.4360 
 475   0.0000       3.998634       108.8084 
 476   0.0000       4.006991       109.0358 
 477   0.0000       4.015247       109.2604 
 478   0.0000       4.029281       109.6423 
 479   0.0000       4.038934       109.9050 
 480   0.0000       4.042985       110.0152 
 481   0.0000       4.059333       110.4601 
 482   0.0000       4.063821       110.5822 
 483   0.0000       4.086303       111.1940 
 484   0.0000       4.093383       111.3866 
 485   0.0000       4.103748       111.6687 
 486   0.0000       4.114763       111.9684 
 487   0.0000       4.117059       112.0309 
 488   0.0000       4.121849       112.1612 
 489   0.0000       4.134458       112.5043 
 490   0.0000       4.149841       112.9229 
 491   0.0000       4.159099       113.1748 
 492   0.0000       4.164765       113.3290 
 493   0.0000       4.176575       113.6504 
 494   0.0000       4.181513       113.7848 
 495   0.0000       4.200530       114.3022 
 496   0.0000       4.211509       114.6010 
 497   0.0000       4.237819       115.3169 
 498   0.0000       4.246128       115.5430 
 499   0.0000       4.276198       116.3613 
 500   0.0000       4.291176       116.7688 
 501   0.0000       4.313784       117.3840 
 502   0.0000       4.327559       117.7589 
 503   0.0000       4.379802       119.1805 
 504   0.0000       4.409133       119.9786 
 505   0.0000       4.571670       124.4015 
 506   0.0000       4.594756       125.0297 
 507   0.0000       4.631059       126.0175 
 508   0.0000       4.682139       127.4075 
 509   0.0000       4.759955       129.5249 
 510   0.0000       4.780115       130.0735 
 511   0.0000       4.827586       131.3653 
 512   0.0000       4.944260       134.5402 
 513   0.0000       4.975415       135.3879 
 514   0.0000       5.012430       136.3952 
 515   0.0000       5.145949       140.0284 
 516   0.0000       5.172255       140.7442 
 517   0.0000       5.209689       141.7628 
 518   0.0000       5.216482       141.9477 
 519   0.0000       5.247775       142.7992 
 520   0.0000       5.249665       142.8507 
 521   0.0000       5.253031       142.9422 
 522   0.0000       5.258836       143.1002 
 523   0.0000       5.285682       143.8307 
 524   0.0000       5.331143       145.0678 
 525   0.0000       5.333178       145.1231 
 526   0.0000       5.351358       145.6178 
 527   0.0000       5.360457       145.8655 
 528   0.0000       5.370574       146.1407 
 529   0.0000       5.392059       146.7254 
 530   0.0000       5.451200       148.3347 
 531   0.0000       5.470417       148.8576 
 532   0.0000       5.508517       149.8944 
 533   0.0000       5.526378       150.3804 
 534   0.0000       5.551623       151.0673 
 535   0.0000       5.638446       153.4299 
 536   0.0000       5.742929       156.2730 
 537   0.0000       5.775685       157.1644 
 538   0.0000       5.878826       159.9710 
 539   0.0000       5.946070       161.8008 
 540   0.0000       6.194064       168.5491 
 541   0.0000       6.253737       170.1728 
 542   0.0000       6.354155       172.9053 
 543   0.0000       6.400322       174.1616 
 544   0.0000       6.431397       175.0072 
 545   0.0000       6.461084       175.8150 
 546   0.0000       6.756097       183.8427 
 547   0.0000       6.805916       185.1984 
 548   0.0000       6.809618       185.2991 
 549   0.0000       6.849285       186.3785 
 550   0.0000       6.854408       186.5179 
 551   0.0000       6.855791       186.5556 
 552   0.0000       6.856990       186.5882 
 553   0.0000       6.857503       186.6022 
 554   0.0000       6.859472       186.6557 
 555   0.0000       6.861706       186.7165 
 556   0.0000       6.863416       186.7630 
 557   0.0000       6.864146       186.7829 
 558   0.0000       6.864627       186.7960 
 559   0.0000       6.865222       186.8122 
 560   0.0000       6.866818       186.8556 
 561   0.0000       6.869832       186.9376 
 562   0.0000       6.870622       186.9591 
 563   0.0000       6.870880       186.9661 
 564   0.0000       6.871644       186.9869 
 565   0.0000       6.874115       187.0542 
 566   0.0000       6.875289       187.0861 
 567   0.0000       6.876844       187.1284 
 568   0.0000       6.880522       187.2285 
 569   0.0000       6.881316       187.2501 
 570   0.0000       6.882500       187.2823 
 571   0.0000       6.884286       187.3309 
 572   0.0000       6.885335       187.3595 
 573   0.0000       6.886967       187.4039 
 574   0.0000       6.889032       187.4601 
 575   0.0000       6.890780       187.5077 
 576   0.0000       6.892603       187.5573 
 577   0.0000       6.895168       187.6271 
 578   0.0000       6.895472       187.6353 
 579   0.0000       6.898716       187.7236 
 580   0.0000       6.900024       187.7592 
 581   0.0000       6.905704       187.9138 
 582   0.0000       6.907332       187.9581 
 583   0.0000       6.909111       188.0065 
 584   0.0000       6.912325       188.0939 
 585   0.0000       6.914059       188.1411 
[...]
      dxy     :    -0.000000
      f0      :     0.000002  f :     0.000004
      f+1     :     0.000001
      f-1     :    -0.000000
      f+2     :     0.000001
      f-2     :    -0.000001
      f+3     :     0.000001
      f-3     :     0.000000
  2 O s       :     0.000024  s :     0.000024
      pz      :     0.000791  p :     0.001078
      px      :    -0.000101
      py      :     0.000388
      dz2     :     0.000001  d :     0.000008
      dxz     :    -0.000001
      dyz     :     0.000015
      dx2y2   :     0.000001
      dxy     :    -0.000008
      f0      :     0.000001  f :     0.000001
      f+1     :    -0.000000
      f-1     :     0.000000
      f+2     :     0.000001
      f-2     :    -0.000000
      f+3     :    -0.000000
      f-3     :    -0.000000
  3 C s       :     0.000135  s :     0.000135
      pz      :     0.000348  p :     0.005318
      px      :     0.005058
      py      :    -0.000089
      dz2     :     0.000022  d :     0.001274
      dxz     :     0.000614
      dyz     :     0.000035
      dx2y2   :     0.000008
      dxy     :     0.000596
      f0      :     0.000004  f :     0.000140
      f+1     :     0.000001
      f-1     :     0.000023
      f+2     :     0.000010
      f-2     :     0.000018
      f+3     :    -0.000010
      f-3     :     0.000093
  4 C s       :     0.002272  s :     0.002272
      pz      :     0.005408  p :     0.018207
      px      :     0.006543
      py      :     0.006256
      dz2     :     0.000517  d :     0.003057
      dxz     :    -0.000187
      dyz     :     0.000095
      dx2y2   :     0.002874
      dxy     :    -0.000242
      f0      :    -0.000007  f :    -0.000031
      f+1     :    -0.000009
      f-1     :    -0.000016
      f+2     :     0.000018
      f-2     :    -0.000066
      f+3     :     0.000040
      f-3     :     0.000010
  5 C s       :    -0.002036  s :    -0.002036
      pz      :     0.000122  p :    -0.009186
      px      :    -0.012386
      py      :     0.003077
      dz2     :     0.001242  d :     0.061384
      dxz     :     0.025776
      dyz     :     0.000865
      dx2y2   :     0.009656
      dxy     :     0.023845
      f0      :     0.001369  f :     0.008406
      f+1     :     0.000557
      f-1     :     0.000370
      f+2     :     0.000750
      f-2     :     0.000218
      f+3     :     0.002546
      f-3     :     0.002597
  6 C s       :     0.026850  s :     0.026850
      pz      :     0.218739  p :     0.627752
      px      :     0.025904
      py      :     0.383109
      dz2     :     0.005829  d :     0.004702
      dxz     :    -0.000899
      dyz     :     0.001049
      dx2y2   :    -0.001322
      dxy     :     0.000045
      f0      :     0.000759  f :     0.000275
      f+1     :    -0.000049
      f-1     :     0.000086
      f+2     :     0.000523
      f-2     :    -0.000323
      f+3     :    -0.000380
      f-3     :    -0.000340
  7 C s       :    -0.002745  s :    -0.002745
      pz      :     0.000625  p :    -0.000949
      px      :    -0.006928
      py      :     0.005354
      dz2     :     0.007074  d :     0.060021
      dxz     :     0.014911
      dyz     :     0.001615
      dx2y2   :     0.001370
      dxy     :     0.035051
      f0      :     0.000378  f :     0.009270
      f+1     :     0.004157
      f-1     :     0.000121
      f+2     :     0.000927
      f-2     :     0.001750
      f+3     :     0.000200
      f-3     :     0.001736
  8 C s       :     0.001566  s :     0.001566
      pz      :     0.001031  p :     0.010217
      px      :     0.002983
      py      :     0.006203
      dz2     :    -0.000058  d :     0.001077
      dxz     :     0.000422
      dyz     :    -0.000020
      dx2y2   :     0.000810
      dxy     :    -0.000077
      f0      :    -0.000001  f :     0.000193
      f+1     :     0.000106
      f-1     :    -0.000022
      f+2     :     0.000006
      f-2     :    -0.000021
      f+3     :     0.000000
      f-3     :     0.000127
  9 C s       :     0.000267  s :     0.000267
      pz      :     0.000591  p :     0.001382
      px      :     0.000404
      py      :     0.000387
      dz2     :     0.000008  d :     0.000499
      dxz     :     0.000016
      dyz     :     0.000139
      dx2y2   :     0.000025
      dxy     :     0.000311
      f0      :    -0.000000  f :     0.000156
      f+1     :     0.000009
      f-1     :     0.000023
      f+2     :    -0.000002
      f-2     :     0.000055
      f+3     :     0.000041
      f-3     :     0.000030
 10 F s       :     0.000026  s :     0.000026
      pz      :    -0.000048  p :    -0.000180
      px      :    -0.000102
      py      :    -0.000030
      dz2     :     0.000006  d :     0.000052
      dxz     :    -0.000001
      dyz     :     0.000005
      dx2y2   :     0.000008
      dxy     :     0.000034
      f0      :     0.000000  f :     0.000003
      f+1     :     0.000000
      f-1     :     0.000000
      f+2     :     0.000000
      f-2     :    -0.000000
      f+3     :     0.000002
      f-3     :     0.000001
 11 F s       :     0.000021  s :     0.000021
      pz      :     0.000030  p :     0.000581
      px      :     0.000494
      py      :     0.000057
      dz2     :     0.000029  d :     0.000076
      dxz     :     0.000040
      dyz     :     0.000005
      dx2y2   :     0.000004
      dxy     :    -0.000001
      f0      :     0.000002  f :     0.000004
      f+1     :     0.000000
      f-1     :     0.000001
      f+2     :     0.000001
      f-2     :     0.000000
      f+3     :    -0.000000
      f-3     :     0.000000
 12 F s       :     0.000174  s :     0.000174
      pz      :     0.000528  p :     0.000279
      px      :     0.000329
      py      :    -0.000579
      dz2     :     0.000001  d :     0.000211
      dxz     :     0.000033
      dyz     :     0.000033
      dx2y2   :     0.000160
      dxy     :    -0.000015
      f0      :     0.000001  f :     0.000014
      f+1     :     0.000000
      f-1     :     0.000002
      f+2     :     0.000000
      f-2     :     0.000002
      f+3     :     0.000001
      f-3     :     0.000008
 13 F s       :     0.000074  s :     0.000074
      pz      :    -0.000655  p :     0.000345
      px      :    -0.000172
      py      :     0.001172
      dz2     :     0.000095  d :     0.000204
      dxz     :    -0.000003
      dyz     :     0.000051
      dx2y2   :     0.000048
      dxy     :     0.000013
      f0      :     0.000007  f :     0.000013
      f+1     :     0.000000
      f-1     :     0.000002
      f+2     :     0.000002
      f-2     :     0.000002
      f+3     :     0.000000
      f-3     :     0.000000
 14 F s       :     0.001038  s :     0.001038
      pz      :     0.004527  p :     0.007760
      px      :    -0.000028
      py      :     0.003262
      dz2     :    -0.000007  d :    -0.000196
      dxz     :     0.000018
      dyz     :    -0.000011
      dx2y2   :    -0.000026
      dxy     :    -0.000169
      f0      :     0.000000  f :    -0.000012
      f+1     :     0.000000
      f-1     :    -0.000002
      f+2     :    -0.000001
      f-2     :    -0.000002
      f+3     :    -0.000007
      f-3     :    -0.000000
 15 F s       :     0.000804  s :     0.000804
      pz      :     0.004369  p :     0.007830
      px      :     0.003711
      py      :    -0.000250
      dz2     :    -0.000045  d :    -0.000164
      dxz     :    -0.000087
      dyz     :    -0.000027
      dx2y2   :    -0.000004
      dxy     :    -0.000001
      f0      :    -0.000005  f :    -0.000010
      f+1     :    -0.000001
      f-1     :    -0.000001
      f+2     :    -0.000003
      f-2     :    -0.000001
      f+3     :     0.000001
      f-3     :     0.000000
 16 F s       :     0.002290  s :     0.002290
      pz      :     0.029322  p :     0.093132
      px      :     0.002888
      py      :     0.060921
      dz2     :     0.005960  d :     0.010099
      dxz     :     0.000501
      dyz     :     0.000996
      dx2y2   :     0.002552
      dxy     :     0.000090
      f0      :     0.000261  f :     0.000524
      f+1     :     0.000031
      f-1     :     0.000062
      f+2     :     0.000105
      f-2     :     0.000010
      f+3     :     0.000005
      f-3     :     0.000052
 17 F s       :     0.002211  s :     0.002211
      pz      :    -0.000300  p :     0.026925
      px      :     0.020421
      py      :     0.006803
      dz2     :     0.000018  d :     0.000060
      dxz     :    -0.000030
      dyz     :     0.000008
      dx2y2   :     0.000011
      dxy     :     0.000053
      f0      :     0.000002  f :    -0.000001
      f+1     :    -0.000001
      f-1     :    -0.000001
      f+2     :    -0.000002
      f-2     :    -0.000000
      f+3     :    -0.000000
      f-3     :     0.000001
 18 F s       :    -0.000047  s :    -0.000047
      pz      :    -0.001218  p :     0.003108
      px      :     0.000817
      py      :     0.003509
      dz2     :    -0.000065  d :    -0.000083
      dxz     :    -0.000074
      dyz     :     0.000022
      dx2y2   :     0.000007
      dxy     :     0.000026
      f0      :    -0.000003  f :    -0.000007
      f+1     :    -0.000002
      f-1     :    -0.000002
      f+2     :     0.000001
      f-2     :    -0.000001
      f+3     :     0.000000
      f-3     :     0.000000
 19 F s       :     0.000344  s :     0.000344
      pz      :     0.000194  p :     0.000639
      px      :     0.000156
      py      :     0.000289
      dz2     :     0.000016  d :     0.000162
      dxz     :     0.000022
      dyz     :    -0.000003
      dx2y2   :     0.000093
      dxy     :     0.000033
      f0      :     0.000000  f :     0.000008
      f+1     :     0.000000
      f-1     :     0.000000
      f+2     :     0.000001
      f-2     :     0.000001
      f+3     :     0.000001
      f-3     :     0.000004
 20 F s       :     0.000092  s :     0.000092
      pz      :    -0.000063  p :     0.002127
      px      :     0.000356
      py      :     0.001834
      dz2     :     0.000072  d :     0.000169
      dxz     :     0.000017
      dyz     :     0.000050
      dx2y2   :    -0.000000
      dxy     :     0.000030
      f0      :     0.000005  f :     0.000009
      f+1     :     0.000000
      f-1     :    -0.000000
      f+2     :     0.000000
      f-2     :     0.000003
      f+3     :     0.000000
      f-3     :     0.000000
 21 F s       :     0.000003  s :     0.000003
      pz      :     0.000005  p :    -0.000034
      px      :    -0.000019
      py      :    -0.000020
      dz2     :     0.000001  d :     0.000008
      dxz     :    -0.000000
      dyz     :     0.000007
      dx2y2   :    -0.000001
      dxy     :     0.000001
      f0      :     0.000000  f :     0.000000
      f+1     :     0.000000
      f-1     :     0.000000
      f+2     :     0.000000
      f-2     :     0.000000
      f+3     :     0.000000
      f-3     :    -0.000000
 22 F s       :     0.000059  s :     0.000059
      pz      :     0.000250  p :     0.001106
      px      :     0.000863
      py      :    -0.000007
      dz2     :     0.000002  d :     0.000045
      dxz     :     0.000011
      dyz     :     0.000008
      dx2y2   :     0.000014
      dxy     :     0.000010
      f0      :     0.000000  f :     0.000002
      f+1     :     0.000000
      f-1     :    -0.000000
      f+2     :     0.000000
      f-2     :     0.000001
      f+3     :    -0.000000
      f-3     :     0.000001
 23 F s       :    -0.000002  s :    -0.000002
      pz      :    -0.000041  p :     0.000094
      px      :     0.000036
      py      :     0.000099
      dz2     :     0.000006  d :     0.000015
      dxz     :     0.000000
      dyz     :     0.000005
      dx2y2   :     0.000004
      dxy     :    -0.000000
      f0      :     0.000000  f :     0.000001
      f+1     :     0.000000
      f-1     :     0.000000
      f+2     :     0.000000
      f-2     :    -0.000000
      f+3     :     0.000000
      f-3     :     0.000000


                      *****************************
                      * MAYER POPULATION ANALYSIS *
                      *****************************

  NA   - Mulliken gross atomic population
  ZA   - Total nuclear charge
  QA   - Mulliken gross atomic charge
  VA   - Mayer's total valence
  BVA  - Mayer's bonded valence
  FA   - Mayer's free valence

  ATOM       NA         ZA         QA         VA         BVA        FA
  0 C      5.8281     6.0000     0.1719     4.6371     4.6371     0.0000
  1 O      8.4782     8.0000    -0.4782     1.9823     1.9823     0.0000
  2 O      8.4927     8.0000    -0.4927     1.9646     1.9646     0.0000
  3 C      5.6994     6.0000     0.3006     3.9597     3.9597     0.0001
  4 C      5.7337     6.0000     0.2663     4.0834     4.0826     0.0008
  5 C      5.6542     6.0000     0.3458     4.2899     4.2871     0.0028
  6 C      5.8827     6.0000     0.1173     3.9622     3.3781     0.5841
  7 C      5.7004     6.0000     0.2996     4.2555     4.2524     0.0032
  8 C      5.7005     6.0000     0.2995     4.1817     4.1814     0.0003
  9 C      5.5916     6.0000     0.4084     4.5653     4.5652     0.0000
 10 F      9.1958     9.0000    -0.1958     1.0990     1.0990     0.0000
 11 F      9.2028     9.0000    -0.2028     1.0820     1.0820     0.0000
 12 F      9.1750     9.0000    -0.1750     1.1397     1.1397     0.0000
 13 F      9.1823     9.0000    -0.1823     1.1354     1.1354     0.0000
 14 F      9.1587     9.0000    -0.1587     1.1545     1.1544     0.0001
 15 F      9.1641     9.0000    -0.1641     1.1523     1.1522     0.0001
 16 F      9.1315     9.0000    -0.1315     1.2146     1.2036     0.0110
 17 F      9.1627     9.0000    -0.1627     1.1476     1.1467     0.0008
 18 F      9.1577     9.0000    -0.1577     1.1641     1.1640     0.0000
 19 F      9.1529     9.0000    -0.1529     1.1738     1.1738     0.0000
 20 F      9.1491     9.0000    -0.1491     1.1749     1.1749     0.0000
 21 F      9.1368     9.0000    -0.1368     1.1876     1.1876     0.0000
 22 F      9.1350     9.0000    -0.1350     1.1879     1.1879     0.0000
 23 F      9.1342     9.0000    -0.1342     1.1903     1.1903     0.0000

  Mayer bond orders larger than 0.100000
B(  0-C ,  1-O ) :   1.8707 B(  0-C ,  2-O ) :   1.8463 B(  0-C ,  3-C ) :   0.8537 
B(  3-C ,  4-C ) :   0.9290 B(  3-C , 10-F ) :   1.0582 B(  3-C , 11-F ) :   1.0424 
B(  4-C ,  5-C ) :   0.9290 B(  4-C , 12-F ) :   1.0594 B(  4-C , 13-F ) :   1.0514 
B(  5-C ,  6-C ) :   1.0243 B(  5-C , 14-F ) :   1.1025 B(  5-C , 15-F ) :   1.0798 
B(  6-C ,  7-C ) :   1.0537 B(  6-C , 16-F ) :   1.1301 B(  7-C ,  8-C ) :   0.9278 
B(  7-C , 17-F ) :   1.0755 B(  7-C , 18-F ) :   1.0870 B(  8-C ,  9-C ) :   0.9637 
B(  8-C , 19-F ) :   1.0926 B(  8-C , 20-F ) :   1.1011 B(  9-C , 21-F ) :   1.1595 
B(  9-C , 22-F ) :   1.1602 B(  9-C , 23-F ) :   1.1700 

-------
TIMINGS
-------

Total SCF time: 0 days 0 hours 1 min 13 sec 

Total time                  ....      73.594 sec
Sum of individual times     ....      71.077 sec  ( 96.6%)

Fock matrix formation       ....      63.108 sec  ( 85.8%)
  Split-RI-J                ....       3.609 sec  (  5.7% of F)
  Chain of spheres X        ....      44.462 sec  ( 70.5% of F)
  XC integration            ....       9.934 sec  ( 15.7% of F)
    Basis function eval.    ....       0.604 sec  (  6.1% of XC)
    Density eval.           ....       3.648 sec  ( 36.7% of XC)
    XC-Functional eval.     ....       0.336 sec  (  3.4% of XC)
    XC-Potential eval.      ....       2.803 sec  ( 28.2% of XC)
Diagonalization             ....       3.429 sec  (  4.7%)
Density matrix formation    ....       0.153 sec  (  0.2%)
Population analysis         ....       0.272 sec  (  0.4%)
Initial guess               ....       0.489 sec  (  0.7%)
Orbital Transformation      ....       0.000 sec  (  0.0%)
Orbital Orthonormalization  ....       0.414 sec  (  0.6%)
DIIS solution               ....       1.412 sec  (  1.9%)
Grid generation             ....       2.213 sec  (  3.0%)

Maximum memory used throughout the entire SCF-calculation: 161.2 MB


-------------------------------------------------------------------------------
                          DFT DISPERSION CORRECTION                            
                                                                               
                              DFTD3 V3.1  Rev 1                                
                          USING Becke-Johnson damping                          
-------------------------------------------------------------------------------
The TPSSH functional is recognized
Active option DFTDOPT                   ...         4   

molecular C6(AA) [au] = 6299.880057 


            DFT-D V3
 parameters
 s6 scaling factor         :     1.0000 
 a1 scaling factor         :     0.4529 
 s8 scaling factor         :     2.2382 
 a2 scaling factor         :     4.6550 
 ad hoc parameters k1-k3   :    16.0000     1.3333    -4.0000 

 Edisp/kcal,au: -18.436712064984  -0.029380767718 
 E6   /kcal   :  -8.917061973 
 E8   /kcal   :  -9.519650092 
 % E8         :  51.634207109 

-------------------------   ----------------
Dispersion correction           -0.029380768
-------------------------   ----------------


-------------------------   --------------------
FINAL SINGLE POINT ENERGY     -1853.955072307405
-------------------------   --------------------

                                *** OPTIMIZATION RUN DONE ***

                            ***************************************
                            *     ORCA property calculations      *
                            ***************************************

                                    ---------------------
                                    Active property flags
                                    ---------------------
   (+) Dipole Moment


------------------------------------------------------------------------------
                       ORCA ELECTRIC PROPERTIES CALCULATION
------------------------------------------------------------------------------

Dipole Moment Calculation                       ... on
Quadrupole Moment Calculation                   ... off
Polarizability Calculation                      ... off
GBWName                                         ... rf_mecn_opt_TPS_C5_D_B.gbw
Electron density                                ... rf_mecn_opt_TPS_C5_D_B.scfp
The origin for moment calculation is the CENTER OF MASS  = (-0.043566, -0.138041  0.091852)

-------------
DIPOLE MOMENT
-------------
                                X             Y             Z
Electronic contribution:    -14.90567      -2.38535       4.92797
Nuclear contribution   :      7.74149       1.22652      -2.44440
                        -----------------------------------------
Total Dipole Moment    :     -7.16418      -1.15883       2.48357
                        -----------------------------------------
Magnitude (a.u.)       :      7.67050
Magnitude (Debye)      :     19.49685



--------------------
Rotational spectrum 
--------------------
 
Rotational constants in cm-1:     0.016099     0.004709     0.004396 
Rotational constants in MHz :   482.641621   141.184886   131.779707 

 Dipole components along the rotational axes: 
x,y,z [a.u.] :    -7.090199    -2.926585     0.026573 
x,y,z [Debye]:   -18.021854    -7.438788     0.067543 

 

Timings for individual modules:

Sum of individual times         ...     3602.657 sec (=  60.044 min)
GTO integral calculation        ...       34.092 sec (=   0.568 min)   0.9 %
SCF iterations                  ...     2963.285 sec (=  49.388 min)  82.3 %
SCF Gradient evaluation         ...      603.664 sec (=  10.061 min)  16.8 %
Geometry relaxation             ...        1.616 sec (=   0.027 min)   0.0 %
                             ****ORCA TERMINATED NORMALLY****
TOTAL RUN TIME: 0 days 1 hours 0 minutes 16 seconds 760 msec
