
                                 *****************
                                 * O   R   C   A *
                                 *****************

                                            #,                                       
                                            ###                                      
                                            ####                                     
                                            #####                                    
                                            ######                                   
                                           ########,                                 
                                     ,,################,,,,,                         
                               ,,#################################,,                 
                          ,,##########################################,,             
                       ,#########################################, ''#####,          
                    ,#############################################,,   '####,        
                  ,##################################################,,,,####,       
                ,###########''''           ''''###############################       
              ,#####''   ,,,,##########,,,,          '''####'''          '####       
            ,##' ,,,,###########################,,,                        '##       
           ' ,,###''''                  '''############,,,                           
         ,,##''                                '''############,,,,        ,,,,,,###''
      ,#''                                            '''#######################'''  
     '                                                          ''''####''''         
             ,#######,   #######,   ,#######,      ##                                
            ,#'     '#,  ##    ##  ,#'     '#,    #''#        ,####,   ,####,        
            ##       ##  ##   ,#'  ##            #'  '#       #'       #'  '#        
            ##       ##  #######   ##           ,######,      #####,   #    #        
            '#,     ,#'  ##    ##  '#,     ,#' ,#      #,     #,   #   #,  ,#        
             '#######'   ##     ##  '#######'  #'      '#     '####' # '####'        



                #########################################################
                #                        -***-                          #
                #          Department of theory and spectroscopy        #
                #                                                       #
                #                      Frank Neese                      #
                #                                                       #
                #     Directorship, Architecture, Infrastructure        #
                #                    SHARK, DRIVERS                     #
                #        Core code/Algorithms in most modules           #
                #                                                       #
                #        Max Planck Institute fuer Kohlenforschung      #
                #                Kaiser Wilhelm Platz 1                 #
                #                 D-45470 Muelheim/Ruhr                 #
                #                      Germany                          #
                #                                                       #
                #                  All rights reserved                  #
                #                        -***-                          #
                #########################################################


                         Program Version 6.0.1  -  RELEASE   -


 With contributions from (in alphabetic order):
[Max-Planck-Institut fuer Kohlenforschung]                               
  Daniel Aravena         : Magnetic Suceptibility                        
  Michael Atanasov       : Ab Initio Ligand Field Theory (pilot matlab implementation)
  Alexander A. Auer      : GIAO ZORA, VPT2 properties, NMR spectrum      
  Ute Becker             : All parallelization in ORCA, NUMFREQ, NUMCALC 
  Giovanni Bistoni       : ED, misc. LED, open-shell LED, HFLD           
  Martin Brehm           : Molecular dynamics                            
  Dmytro Bykov           : pre 5.0 version of the SCF Hessian            
  Marcos Casanova-Páez   : Triplet and SCS-CIS(D). UHF-(DLPNO)-IP/EA/STEOM-CCSD. UHF-CVS-IP/STEOM-CCSD   
  Vijay G. Chilkuri      : MRCI spin determinant printing, contributions to CSF-ICE 
  Pauline Colinet        : FMM embedding                                 
  Dipayan Datta          : RHF DLPNO-CCSD density                        
  Achintya Kumar Dutta   : EOM-CC, STEOM-CC                              
  Nicolas Foglia         : Exact transition moments, OPA infrastructure, MCD improvements    
  Dmitry Ganyushin       : Spin-Orbit,Spin-Spin,Magnetic field MRCI      
  Miquel Garcia-Rates    : C-PCM and meta-GGA Hessian, CCSD/C-PCM, Gaussian charge scheme 
  Tiago L. C. Gouveia    : GS-ROHF, GS-ROCIS                             
  Yang Guo               : DLPNO-NEVPT2, F12-NEVPT2, CIM, IAO-localization        
  Andreas Hansen         : Spin unrestricted coupled pair/coupled cluster methods 
  Ingolf Harden          : AUTO-CI MPn and infrastructure                
  Benjamin Helmich-Paris : MC-RPA, TRAH-(SCF,CASSCF), AVAS, COSX integrals, SCF dyn. polar. 
  Lee Huntington         : MR-EOM, pCC                                   
  Robert Izsak           : Overlap fitted RIJCOSX, COSX-SCS-MP3, EOM     
  Riya Kayal             : Wick's Theorem for AUTO-CI, AUTO-CI UHF-CCSDT 
  Emily Kempfer          : AUTO-CI, RHF CISDT and CCSDT                  
  Christian Kollmar      : KDIIS, OOCD, Brueckner-CCSD(T), CCSD density, CASPT2, CASPT2-K, improved NEVPT2 
  Axel Koslowski         : Symmetry handling                             
  Simone Kossmann        : meta-GGA functionals, TD-DFT gradient, OOMP2, (MP2 Hessian; deprecated post 5.0) 
  Lucas Lang             : DCDCAS                                        
  Marvin Lechner         : AUTO-CI (C++ implementation), FIC-MRCC        
  Spencer Leger          : CASSCF response                               
  Dagmar Lenk            : GEPOL surface, SMD, ORCA-2-JSON               
  Dimitrios Liakos       : Extrapolation schemes; Compound Job, initial MDCI parallelization 
  Dimitrios Manganas     : Further ROCIS development; embedding schemes. LFT, Crystal Embedding 
  Dimitrios Pantazis     : SARC Basis sets                               
  Anastasios Papadopoulos: AUTO-CI, single reference methods and gradients 
  Taras Petrenko         : pre 6.0 DFT Hessian and TD-DFT gradient, (ASA, deprecated), ECA, 1-Electron XAS/XES, NRVS 
  Peter Pinski           : DLPNO-MP2, DLPNO-MP2 Gradient                 
  Christoph Reimann      : Effective Core Potentials                     
  Marius Retegan         : Local ZFS, SOC                                
  Christoph Riplinger    : Optimizer, TS searches, QM/MM, DLPNO-CCSD(T), (RO)-DLPNO pert. Triples 
  Michael Roemelt        : Original ROCIS implementation                 
  Masaaki Saitow         : Open-shell DLPNO-CCSD energy and density      
  Barbara Sandhoefer     : DKH picture change effects                    
  Kantharuban Sivalingam : CASSCF convergence/infrastructure, NEVPT2 and variants, FIC-MRCI 
  Bernardo de Souza      : ESD, SOC TD-DFT                               
  Georgi L. Stoychev     : AutoAux, RI-MP2 NMR, DLPNO-MP2 response, X2C  
  Van Anh Tran           : RI-MP2 g-tensors                              
  Willem Van den Heuvel  : Paramagnetic NMR                              
  Zikuan Wang            : NOTCH, Electric field optimization            
  Frank Wennmohs         : Technical directorship and infrastructure     
  Hang Xu                : AUTO-CI-Response properties                   
                                                                         
[FACCTs GmbH]                                                            
  Markus Bursch, Miquel Garcia-Rates, Christoph Riplinger, Bernardo de Souza, Georgi L. Stoychev 
                                                                 
  APM, Basis sets (HGBS, AHGBS, def-TZVP (Ac-Lr), def2-XVPD (La-Lu)), CI-OPT, improved COSX, DLPNO-Multilevel,           
  DOCKER, DRACO, updates on ESD, GOAT, IRC, LR-CPCM, MBIS, meta-GGA TD-DFT gradient, ML-optimized integration grids, 
  MM, NACMEs, nearIR, NEB, NEB-TS, NL-DFT gradient (VV10), 2- and 3-layer-ONIOM, interface openCOSMO-RS, QMMM,   
  Crystal-QMMM, SF, symmetry and pop. for TD-DFT, r2SCAN hybrids, SOLVATOR                                   
                                                                         
[Other institutions]                                                     
  V. Asgeirsson          : NEB                                           
  Christoph Bannwarth    : sTDA-DFT, sTD-DFT, PBEh-3c, B97-3c, D3        
  Sebastian Ehlert       : rSCAN, r2SCAN, r2SCAN-3c, D4, dhf basis sets  
  Marvin Friede          : D4 for Fr, Ra, Ac-Lr                          
  Lars Goerigk           : TD-DFT with DH, B97 family of functionals     
  Stefan Grimme          : VdW corrections, initial TS optimization, DFT functionals, gCP, sTDA/sTD-DF 
  Waldemar Hujo          : DFT-NL                                        
  H. Jonsson             : NEB                                           
  Holger Kruse           : gCP                                           
  Marcel Mueller         : wB97X-3c, vDZP basis set                      
  Hagen Neugebauer       : wr2SCAN                                       
  Tobias Risthaus        : range-separated hybrid DFT                    
  Lukas Wittmann         : regularized MP2, r2SCAN double-hybrids, wr2SCAN        
                                                                         
We gratefully acknowledge several colleagues who have allowed us to      
interface, adapt or use parts of their codes:                            
  Ed Valeev, F. Pavosevic, A. Kumar             : LibInt (2-el integral package), F12 methods 
  Garnet Chan, S. Sharma, J. Yang, R. Olivares  : DMRG                   
  Ulf Ekstrom                                   : XCFun DFT Library      
  Mihaly Kallay                                 : mrcc  (arbitrary order and MRCC methods)
  Frank Weinhold                                : gennbo (NPA and NBO analysis)           
  Simon Mueller                                 : openCOSMO-RS                            
  Christopher J. Cramer and Donald G. Truhlar   : smd solvation model                     
  S Lehtola, MJT Oliveira, MAL Marques          : LibXC Library                           
  Liviu Ungur et al                             : ANISO software                          


 Your calculation uses the libint2 library for the computation of 2-el integrals
 For citations please refer to: http://libint.valeyev.net

 Your ORCA version has been built with support for libXC version: 6.2.2
 For citations please refer to: https://libxc.gitlab.io

 This ORCA versions uses:
   CBLAS   interface :  Fast vector & matrix operations
   LAPACKE interface :  Fast linear algebra routines
   SCALAPACK package :  Parallel linear algebra routines
   Shared memory     :  Shared parallel matrices
   BLAS/LAPACK       :  OpenBLAS 0.3.27  USE64BITINT DYNAMIC_ARCH NO_AFFINITY SkylakeX SINGLE_THREADED
        Core in use  :  SkylakeX
   Copyright (c) 2011-2014, The OpenBLAS Project


NOTE: MaxCore=8000 MB was set to SCF,MP2,MDCI,CIPSI,MRCI and CIS
      => If you want to overwrite this, your respective input block should be placed after the MaxCore statement
Your calculation utilizes the atom-pairwise dispersion correction
with the Becke-Johnson damping scheme (D3BJ)


Your calculation utilizes the SMD solvation module
Please cite in your paper:
A.V. Marenich, C.J. Cramer, D.G. Truhlar J. Phys. Chem. B, 113, (2009), 6378 

Warning: RI is on but no J-basis has been assigned. Assigning Def2/J (nothing to worry about!)
================================================================================

----- Orbital basis set information -----
Your calculation utilizes the basis: def2-TZVP
   F. Weigend and R. Ahlrichs, Phys. Chem. Chem. Phys. 7, 3297 (2005).

----- AuxJ basis set information -----
Your calculation utilizes the auxiliary basis: def2/J
   F. Weigend, Phys. Chem. Chem. Phys. 8, 1057 (2006).

================================================================================
                                        WARNINGS
                       Please study these warnings very carefully!
================================================================================


WARNING: your system is open-shell and RHF/RKS was chosen
  ===> : WILL SWITCH to UHF/UKS


WARNING: Geometry Optimization
  ===> : Switching off AutoStart
         For restart on a previous wavefunction, please use MOREAD

================================================================================
                                       INPUT FILE
================================================================================
NAME = rf_mecn_2H2O_opt_B3L_con_002.inp
|  1> !B3LYP def2-TZVP opt d3 TightSCF SlowConv defgrid2
|  2>  
|  3> %pal
|  4> nprocs 20
|  5> end
|  6>  
|  7> %scf
|  8> MaxIter 1500
|  9> end
| 10>  
| 11> %maxcore 8000
| 12>  
| 13> !CPCM
| 14> %cpcm smd true
| 15> SMDsolvent "ACETONITRILE"
| 16> end
| 17>  
| 18> * xyz -1 2
| 19> 6        6.992928000     27.098045000      1.664532000
| 20> 6        6.311424000     25.766782000      2.122231000
| 21> 6        7.295670000     24.572066000      2.332730000
| 22> 6        6.678619000     23.352274000      3.110800000
| 23> 6        7.484980000     22.100285000      2.967949000
| 24> 6        7.067558000     20.776409000      2.389511000
| 25> 6        7.131455000     20.693211000      0.838556000
| 26> 6        6.789186000     19.270855000      0.256054000
| 27> 9        7.761305000     26.892501000      0.592615000
| 28> 9        7.738658000     27.614571000      2.641789000
| 29> 9        6.039635000     27.976732000      1.346754000
| 30> 9        5.659920000     26.021745000      3.275301000
| 31> 9        5.411173000     25.430419000      1.178697000
| 32> 9        7.701004000     24.143535000      1.118890000
| 33> 9        8.376044000     25.006398000      3.015511000
| 34> 9        6.609323000     23.711053000      4.425177000
| 35> 9        5.419530000     23.146781000      2.667946000
| 36> 9        8.778682000     22.239658000      3.216238000
| 37> 9        7.898902000     19.825314000      2.896955000
| 38> 9        5.803154000     20.482434000      2.785314000
| 39> 9        6.279357000     21.640893000      0.358313000
| 40> 9        8.392501000     21.080809000      0.482763000
| 41> 8        7.757619000     18.503774000      0.130638000
| 42> 8        5.588649000     19.082332000      0.002510000
| 43> 8        3.247430000     20.548142000      0.339377000
| 44> 1        2.630256000     19.817079000      0.465852000
| 45> 1        4.117097000     20.114159000      0.206708000
| 46> 1        9.453261000     18.652607000      0.741602000
| 47> 8       10.353719000     18.667027000      1.130179000
| 48> 1       10.380375000     19.490245000      1.631195000
| 49> *
| 50> 
| 51>                          ****END OF INPUT****
================================================================================

                       *****************************
                       * Geometry Optimization Run *
                       *****************************

Geometry optimization settings:
Update method            Update   .... BFGS
Choice of coordinates    CoordSys .... (2022) Redundant Internals
Initial Hessian          InHess   .... Almloef's Model
Max. no of cycles        MaxIter  .... 90

Convergence Tolerances:
Energy Change            TolE     ....  5.0000e-06 Eh
Max. Gradient            TolMAXG  ....  3.0000e-04 Eh/bohr
RMS Gradient             TolRMSG  ....  1.0000e-04 Eh/bohr
Max. Displacement        TolMAXD  ....  4.0000e-03 bohr
RMS Displacement         TolRMSD  ....  2.0000e-03 bohr
Strict Convergence                .... False

------------------------------------------------------------------------------
                        ORCA OPTIMIZATION COORDINATE SETUP
------------------------------------------------------------------------------

The optimization will be done in redundant internal coordinates (2022)
Making redundant internal coordinates   ...  (2022 redundants) done
Evaluating the initial hessian          ...  (Almloef) done
Evaluating the coordinates              ...  done
Calculating the B-matrix                .... done
Calculating the G-matrix                .... done
Diagonalizing the G-matrix              .... done
Small eigenvalue found = 2.816e-03
Small eigenvalue found = 5.529e-03
Small eigenvalue found = 8.468e-03
Small eigenvalue found = 1.082e-02
Small eigenvalue found = 1.807e-02
The first mode is                       ....   40
The number of degrees of freedom        ....   84

    -----------------------------------------------------------------
                    Redundant Internal Coordinates


    -----------------------------------------------------------------
         Definition                    Initial Value    Approx d2E/dq
    -----------------------------------------------------------------
      1. B(C   1,C   0)                  1.5640         0.329671   
      2. B(C   2,C   1)                  1.5622         0.331926   
      3. B(C   3,C   2)                  1.5729         0.319096   
      4. B(C   4,C   3)                  1.4960         0.423231   
      5. B(C   5,C   4)                  1.5038         0.411286   
      6. B(C   6,C   5)                  1.5545         0.341422   
      7. B(C   7,C   6)                  1.5747         0.317049   
      8. B(F   8,C   0)                  1.3348         0.636876   
      9. B(F   9,C   0)                  1.3334         0.640141   
     10. B(F  10,C   0)                  1.3349         0.636715   
     11. B(F  11,C   1)                  1.3487         0.605108   
     12. B(F  12,C   1)                  1.3468         0.609400   
     13. B(F  13,C   2)                  1.3496         0.603210   
     14. B(F  14,C   2)                  1.3498         0.602636   
     15. B(F  15,C   3)                  1.3642         0.571595   
     16. B(F  16,C   3)                  1.3504         0.601317   
     17. B(F  17,C   4)                  1.3247         0.661005   
     18. B(F  18,C   5)                  1.3613         0.577712   
     19. B(F  19,C   5)                  1.3571         0.586692   
     20. B(F  20,C   6)                  1.3619         0.576473   
     21. B(F  21,C   6)                  1.3664         0.567040   
     22. B(O  22,C   7)                  1.2418         0.964626   
     23. B(O  23,C   7)                  1.2414         0.965898   
     24. B(H  25,O  24)                  0.9651         0.510369   
     25. B(H  26,O  23)                  1.8088         0.023000   
     26. B(H  26,O  24)                  0.9810         0.481440   
     27. B(H  27,O  22)                  1.8085         0.023028   
     28. B(O  28,H  27)                  0.9808         0.481655   
     29. B(H  29,O  28)                  0.9641         0.512255   
     30. A(F   8,C   0,F  10)          108.7412         0.428716   
     31. A(C   1,C   0,F  10)          108.5892         0.385763   
     32. A(C   1,C   0,F   8)          110.7793         0.385780   
     33. A(F   8,C   0,F   9)          109.0429         0.429129   
     34. A(F   9,C   0,F  10)          108.5957         0.429109   
     35. A(C   1,C   0,F   9)          111.0351         0.386124   
     36. A(C   2,C   1,F  11)          109.4948         0.382816   
     37. A(C   0,C   1,C   2)          114.5732         0.348656   
     38. A(C   0,C   1,F  11)          107.4436         0.382363   
     39. A(F  11,C   1,F  12)          108.8609         0.421488   
     40. A(C   2,C   1,F  12)          108.9381         0.383286   
     41. A(C   0,C   1,F  12)          107.3872         0.382833   
     42. A(C   1,C   2,C   3)          114.3666         0.346747   
     43. A(F  13,C   2,F  14)          108.4658         0.420414   
     44. A(C   3,C   2,F  14)          108.2583         0.379936   
     45. A(C   1,C   2,F  14)          109.0477         0.382544   
     46. A(C   3,C   2,F  13)          108.4513         0.379999   
     47. A(C   1,C   2,F  13)          108.1120         0.382607   
     48. A(F  15,C   3,F  16)          107.9757         0.416238   
     49. A(C   4,C   3,F  16)          110.1138         0.398987   
     50. A(C   2,C   3,F  16)          108.7569         0.379792   
     51. A(C   4,C   3,F  15)          109.8444         0.395451   
     52. A(C   2,C   3,C   4)          112.9740         0.361321   
     53. A(C   2,C   3,F  15)          107.0120         0.376475   
     54. A(C   5,C   4,F  17)          115.8366         0.403654   
     55. A(C   3,C   4,F  17)          114.8633         0.405699   
     56. A(C   3,C   4,C   5)          128.5979         0.377422   
     57. A(C   6,C   5,F  18)          108.0238         0.381613   
     58. A(C   4,C   5,F  18)          107.5875         0.394206   
     59. A(C   4,C   5,C   6)          114.8015         0.363735   
     60. A(F  18,C   5,F  19)          107.9935         0.415204   
     61. A(C   6,C   5,F  19)          108.5230         0.382636   
     62. A(C   4,C   5,F  19)          109.7017         0.395274   
     63. A(C   5,C   6,C   7)          114.1099         0.348020   
     64. A(F  20,C   6,F  21)          106.7512         0.412541   
     65. A(C   7,C   6,F  21)          111.1312         0.375537   
     66. A(C   5,C   6,F  21)          106.4122         0.380381   
     67. A(C   7,C   6,F  20)          111.2295         0.376609   
     68. A(C   5,C   6,F  20)          106.7897         0.381471   
     69. A(O  22,C   7,O  23)          129.7740         0.503719   
     70. A(C   6,C   7,O  23)          115.0196         0.414064   
     71. A(C   6,C   7,O  22)          115.2031         0.413967   
     72. A(C   7,O  22,H  27)          130.2600         0.242441   
     73. A(C   7,O  23,H  26)          132.6150         0.242444   
     74. A(H  25,O  24,H  26)          104.4510         0.316851   
     75. A(O  23,H  26,O  24)          171.4508         0.201971   
     76. A(O  22,H  27,O  28)          174.7611         0.202013   
     77. A(H  27,O  28,H  29)          104.1125         0.317065   
     78. D(F  11,C   1,C   0,F  10)    -66.4391         0.008852   
     79. D(C   2,C   1,C   0,F   8)     52.3158         0.008852   
     80. D(C   2,C   1,C   0,F  10)    171.6684         0.008852   
     81. D(F  11,C   1,C   0,F   9)     52.8885         0.008852   
     82. D(F  11,C   1,C   0,F   8)    174.2084         0.008852   
     83. D(C   2,C   1,C   0,F   9)    -69.0041         0.008852   
     84. D(C   3,C   2,C   1,C   0)    166.1147         0.008961   
     85. D(F  13,C   2,C   1,F  12)     47.3097         0.008961   
     86. D(F  13,C   2,C   1,C   0)    -72.9746         0.008961   
     87. D(F  13,C   2,C   1,F  11)    166.2584         0.008961   
     88. D(C   3,C   2,C   1,F  11)     45.3478         0.008961   
     89. D(C   3,C   2,C   1,F  12)    -73.6010         0.008961   
     90. D(C   4,C   3,C   2,F  14)    -74.3329         0.008352   
     91. D(C   4,C   3,C   2,F  13)     43.1627         0.008352   
     92. D(C   4,C   3,C   2,C   1)    163.8855         0.008352   
     93. D(F  15,C   3,C   2,F  14)     46.6842         0.008352   
     94. D(F  15,C   3,C   2,F  13)    164.1797         0.008352   
     95. D(F  15,C   3,C   2,C   1)    -75.0975         0.008352   
     96. D(F  17,C   4,C   3,C   2)     50.0749         0.013240   
     97. D(C   5,C   4,C   3,F  16)      1.9951         0.013240   
     98. D(C   5,C   4,C   3,F  15)    120.7833         0.013240   
     99. D(F  17,C   4,C   3,F  15)    -69.3207         0.013240   
    100. D(C   5,C   4,C   3,C   2)   -119.8210         0.013240   
    101. D(F  19,C   5,C   4,C   3)    -40.5530         0.012525   
    102. D(F  18,C   5,C   4,F  17)     32.3939         0.012525   
    103. D(F  18,C   5,C   4,C   3)   -157.7926         0.012525   
    104. D(C   6,C   5,C   4,F  17)    -87.8736         0.012525   
    105. D(C   6,C   5,C   4,C   3)     81.9398         0.012525   
    106. D(C   7,C   6,C   5,F  19)    -60.9648         0.009431   
    107. D(C   7,C   6,C   5,F  18)     55.8825         0.009431   
    108. D(C   7,C   6,C   5,C   4)    175.9088         0.009431   
    109. D(F  20,C   6,C   5,F  19)     62.3616         0.009431   
    110. D(F  20,C   6,C   5,F  18)    179.2088         0.009431   
    111. D(F  20,C   6,C   5,C   4)    -60.7649         0.009431   
    112. D(O  23,C   7,C   6,F  20)    -30.9302         0.007762   
    113. D(O  23,C   7,C   6,C   5)     89.9576         0.007762   
    114. D(O  22,C   7,C   6,F  21)     30.8795         0.007762   
    115. D(O  22,C   7,C   6,F  20)    149.6714         0.007762   
    116. D(O  22,C   7,C   6,C   5)    -89.4408         0.007762   
    117. D(H  27,O  22,C   7,O  23)   -168.5162         0.075400   
    118. D(H  27,O  22,C   7,C   6)     10.7744         0.075400   
    119. D(H  26,O  23,C   7,O  22)    177.5281         0.075629   
    120. D(H  26,O  23,C   7,C   6)     -1.7636         0.075629   
    121. D(O  23,H  26,O  24,H  25)     -2.3183         0.249926   
    122. D(O  24,H  26,O  23,C   7)   -148.2305         0.001749   
    123. D(O  28,H  27,O  22,C   7)    109.5541         0.001749   
    124. D(H  29,O  28,H  27,O  22)   -109.0886         0.250212   
    -----------------------------------------------------------------

Number of atoms                         .... 30
Number of degrees of freedom            .... 124


         *************************************************************
         *                GEOMETRY OPTIMIZATION CYCLE   1            *
         *************************************************************
---------------------------------
CARTESIAN COORDINATES (ANGSTROEM)
---------------------------------
  C      6.992928   27.098045    1.664532
  C      6.311424   25.766782    2.122231
  C      7.295670   24.572066    2.332730
  C      6.678619   23.352274    3.110800
  C      7.484980   22.100285    2.967949
  C      7.067558   20.776409    2.389511
  C      7.131455   20.693211    0.838556
  C      6.789186   19.270855    0.256054
  F      7.761305   26.892501    0.592615
  F      7.738658   27.614571    2.641789
  F      6.039635   27.976732    1.346754
  F      5.659920   26.021745    3.275301
  F      5.411173   25.430419    1.178697
  F      7.701004   24.143535    1.118890
  F      8.376044   25.006398    3.015511
  F      6.609323   23.711053    4.425177
  F      5.419530   23.146781    2.667946
  F      8.778682   22.239658    3.216238
  F      7.898902   19.825314    2.896955
  F      5.803154   20.482434    2.785314
  F      6.279357   21.640893    0.358313
  F      8.392501   21.080809    0.482763
  O      7.757619   18.503774    0.130638
  O      5.588649   19.082332    0.002510
  O      3.247430   20.548142    0.339377
  H      2.630256   19.817079    0.465852
  H      4.117097   20.114159    0.206708
  H      9.453261   18.652607    0.741602
  O     10.353719   18.667027    1.130179
  H     10.380375   19.490245    1.631195

----------------------------
CARTESIAN COORDINATES (A.U.)
----------------------------
  NO LB      ZA    FRAG     MASS         X           Y           Z
   0 C     6.0000    0    12.011   13.214719   51.207884    3.145510
   1 C     6.0000    0    12.011   11.926863   48.692161    4.010435
   2 C     6.0000    0    12.011   13.786818   46.434475    4.408221
   3 C     6.0000    0    12.011   12.620761   44.129402    5.878560
   4 C     6.0000    0    12.011   14.144562   41.763486    5.608611
   5 C     6.0000    0    12.011   13.355749   39.261723    4.515521
   6 C     6.0000    0    12.011   13.476497   39.104502    1.584641
   7 C     6.0000    0    12.011   12.829702   36.416638    0.483872
   8 F     9.0000    0    18.998   14.666741   50.819462    1.119880
   9 F     9.0000    0    18.998   14.623944   52.183976    4.992258
  10 F     9.0000    0    18.998   11.413256   52.868362    2.544996
  11 F     9.0000    0    18.998   10.695699   49.173972    6.189422
  12 F     9.0000    0    18.998   10.225635   48.056527    2.227415
  13 F     9.0000    0    18.998   14.552789   45.624669    2.114396
  14 F     9.0000    0    18.998   15.828429   47.255244    5.698490
  15 F     9.0000    0    18.998   12.489810   44.807397    8.362373
  16 F     9.0000    0    18.998   10.241427   43.741077    5.041687
  17 F     9.0000    0    18.998   16.589305   42.026863    6.077809
  18 F     9.0000    0    18.998   14.926762   37.464414    5.474452
  19 F     9.0000    0    18.998   10.966372   38.706191    5.263481
  20 F     9.0000    0    18.998   11.866265   40.895361    0.677113
  21 F     9.0000    0    18.998   15.859528   39.836956    0.912290
  22 O     8.0000    0    15.999   14.659775   34.967065    0.246870
  23 O     8.0000    0    15.999   10.561016   36.060381    0.004743
  24 O     8.0000    0    15.999    6.136753   38.830361    0.641330
  25 H     1.0000    0     1.008    4.970464   37.448852    0.880333
  26 H     1.0000    0     1.008    7.780186   38.010252    0.390622
  27 H     1.0000    0     1.008   17.864074   35.248319    1.401425
  28 O     8.0000    0    15.999   19.565693   35.275569    2.135729
  29 H     1.0000    0     1.008   19.616066   36.831225    3.082512

--------------------------------
INTERNAL COORDINATES (ANGSTROEM)
--------------------------------
 C      0   0   0     0.000000000000     0.00000000     0.00000000
 C      1   0   0     1.564032369162     0.00000000     0.00000000
 C      2   1   0     1.562176794788   114.57323152     0.00000000
 C      3   2   1     1.572907303297   114.36658014   166.11474722
 C      4   3   2     1.496028384304   112.97400973   163.88548335
 C      5   4   3     1.503821568307   128.59793428   240.17897527
 C      6   5   4     1.554498679909   114.80147853    81.93980494
 C      7   6   5     1.574659721686   114.10994089   175.90878001
 F      1   2   3     1.334787475576   110.77930001    52.31583331
 F      1   2   3     1.333395509826   111.03512487   290.99594627
 F      1   2   3     1.334856263836   108.58920530   171.66839366
 F      2   1   3     1.348715692162   107.44360226   121.89252763
 F      2   1   3     1.346791869565   107.38718417   238.85919021
 F      3   2   1     1.349571048562   108.11200172   287.02541996
 F      3   2   1     1.349830419001   109.04765562    44.76680899
 F      4   3   2     1.364225496238   107.01199118   284.90250539
 F      4   3   2     1.350426654167   108.75687000    41.30897726
 F      5   4   3     1.324664910630   114.86325649    50.07493005
 F      6   5   4     1.361328012823   107.58754281   202.20738483
 F      6   5   4     1.357128877686   109.70173358   319.44696298
 F      7   6   5     1.361912447177   106.78973497   299.23512850
 F      7   6   5     1.366403264988   106.41223214    52.98277831
 O      8   7   6     1.241774902753   115.20309079   270.55924723
 O      8   7   6     1.241416356358   115.01958697    89.95756570
 O     24   8   7     2.782693791589   135.14756858   355.99438061
 H     25  24   8     0.965066205952    98.91021618   211.05180348
 H     25  24   8     0.980950049054     5.54522494    33.32412549
 H     23   8   7     1.808488336526   130.26004677    10.77441842
 O     28  23   8     0.980828543168   174.76111186   109.55409262
 H     29  28  23     0.964061953464   104.11245483   250.91140148

---------------------------
INTERNAL COORDINATES (A.U.)
---------------------------
 C      0   0   0     0.000000000000     0.00000000     0.00000000
 C      1   0   0     2.955592842304     0.00000000     0.00000000
 C      2   1   0     2.952086314916   114.57323152     0.00000000
 C      3   2   1     2.972364037276   114.36658014   166.11474722
 C      4   3   2     2.827083934907   112.97400973   163.88548335
 C      5   4   3     2.841810918383   128.59793428   240.17897527
 C      6   5   4     2.937576780570   114.80147853    81.93980494
 C      7   6   5     2.975675628104   114.10994089   175.90878001
 F      1   2   3     2.522382775826   110.77930001    52.31583331
 F      1   2   3     2.519752341772   111.03512487   290.99594627
 F      1   2   3     2.522512766799   108.58920530   171.66839366
 F      2   1   3     2.548703290709   107.44360226   121.89252763
 F      2   1   3     2.545067792869   107.38718417   238.85919021
 F      3   2   1     2.550319680051   108.11200172   287.02541996
 F      3   2   1     2.550809819148   109.04765562    44.76680899
 F      4   3   2     2.578012572803   107.01199118   284.90250539
 F      4   3   2     2.551936540324   108.75687000    41.30897726
 F      5   4   3     2.503253900306   114.86325649    50.07493005
 F      6   5   4     2.572537122671   107.58754281   202.20738483
 F      6   5   4     2.564601907263   109.70173358   319.44696298
 F      7   6   5     2.573641543544   106.78973497   299.23512850
 F      7   6   5     2.582127959323   106.41223214    52.98277831
 O      8   7   6     2.346614486179   115.20309079   270.55924723
 O      8   7   6     2.345936931688   115.01958697    89.95756570
 O     24   8   7     5.258529180667   135.14756858   355.99438061
 H     25  24   8     1.823710830351    98.91021618   211.05180348
 H     25  24   8     1.853726943769     5.54522494    33.32412549
 H     23   8   7     3.417547672424   130.26004677    10.77441842
 O     28  23   8     1.853497330920   174.76111186   109.55409262
 H     29  28  23     1.821813068179   104.11245483   250.91140148

---------------------
BASIS SET INFORMATION
---------------------
There are 4 groups of distinct atoms

 Group   1 Type C   : 11s6p2d1f contracted to 5s3p2d1f pattern {62111/411/11/1}
 Group   2 Type F   : 11s6p2d1f contracted to 5s3p2d1f pattern {62111/411/11/1}
 Group   3 Type O   : 11s6p2d1f contracted to 5s3p2d1f pattern {62111/411/11/1}
 Group   4 Type H   : 5s1p contracted to 3s1p pattern {311/1}

Atom   0C    basis set group =>   1
Atom   1C    basis set group =>   1
Atom   2C    basis set group =>   1
Atom   3C    basis set group =>   1
Atom   4C    basis set group =>   1
Atom   5C    basis set group =>   1
Atom   6C    basis set group =>   1
Atom   7C    basis set group =>   1
Atom   8F    basis set group =>   2
Atom   9F    basis set group =>   2
Atom  10F    basis set group =>   2
Atom  11F    basis set group =>   2
Atom  12F    basis set group =>   2
Atom  13F    basis set group =>   2
Atom  14F    basis set group =>   2
Atom  15F    basis set group =>   2
Atom  16F    basis set group =>   2
Atom  17F    basis set group =>   2
Atom  18F    basis set group =>   2
Atom  19F    basis set group =>   2
Atom  20F    basis set group =>   2
Atom  21F    basis set group =>   2
Atom  22O    basis set group =>   3
Atom  23O    basis set group =>   3
Atom  24O    basis set group =>   3
Atom  25H    basis set group =>   4
Atom  26H    basis set group =>   4
Atom  27H    basis set group =>   4
Atom  28O    basis set group =>   3
Atom  29H    basis set group =>   4
---------------------------------
AUXILIARY/J BASIS SET INFORMATION
---------------------------------
There are 4 groups of distinct atoms

 Group   1 Type C   : 12s5p4d2f1g contracted to 6s4p3d1f1g pattern {711111/2111/211/2/1}
 Group   2 Type F   : 12s5p4d2f1g contracted to 6s4p3d1f1g pattern {711111/2111/211/2/1}
 Group   3 Type O   : 12s5p4d2f1g contracted to 6s4p3d1f1g pattern {711111/2111/211/2/1}
 Group   4 Type H   : 5s2p1d contracted to 3s1p1d pattern {311/2/1}

Atom   0C    basis set group =>   1
Atom   1C    basis set group =>   1
Atom   2C    basis set group =>   1
Atom   3C    basis set group =>   1
Atom   4C    basis set group =>   1
Atom   5C    basis set group =>   1
Atom   6C    basis set group =>   1
Atom   7C    basis set group =>   1
Atom   8F    basis set group =>   2
Atom   9F    basis set group =>   2
Atom  10F    basis set group =>   2
Atom  11F    basis set group =>   2
Atom  12F    basis set group =>   2
Atom  13F    basis set group =>   2
Atom  14F    basis set group =>   2
Atom  15F    basis set group =>   2
Atom  16F    basis set group =>   2
Atom  17F    basis set group =>   2
Atom  18F    basis set group =>   2
Atom  19F    basis set group =>   2
Atom  20F    basis set group =>   2
Atom  21F    basis set group =>   2
Atom  22O    basis set group =>   3
Atom  23O    basis set group =>   3
Atom  24O    basis set group =>   3
Atom  25H    basis set group =>   4
Atom  26H    basis set group =>   4
Atom  27H    basis set group =>   4
Atom  28O    basis set group =>   3
Atom  29H    basis set group =>   4


           ************************************************************
           *        Program running with 20 parallel MPI-processes    *
           *              working on a common directory               *
           ************************************************************
------------------------------------------------------------------------------
                             ORCA STARTUP CALCULATIONS
                           -- RI-GTO INTEGRALS CHOSEN --
------------------------------------------------------------------------------
------------------------------------------------------------------------------
                   ___                                                        
                  /   \      - P O W E R E D   B Y -                         
                 /     \                                                     
                 |  |  |   _    _      __       _____    __    __             
                 |  |  |  | |  | |    /  \     |  _  \  |  |  /  |          
                  \  \/   | |  | |   /    \    | | | |  |  | /  /          
                 / \  \   | |__| |  /  /\  \   | |_| |  |  |/  /          
                |  |  |   |  __  | /  /__\  \  |    /   |      \           
                |  |  |   | |  | | |   __   |  |    \   |  |\   \          
                \     /   | |  | | |  |  |  |  | |\  \  |  | \   \       
                 \___/    |_|  |_| |__|  |__|  |_| \__\ |__|  \__/        
                                                                              
                      - O R C A' S   B I G   F R I E N D -                    
                                      &                                       
                       - I N T E G R A L  F E E D E R -                       
                                                                              
 v1 FN, 2020, v2 2021, v3 2022-2024                                           
------------------------------------------------------------------------------


----------------------
SHARK INTEGRAL PACKAGE
----------------------

Number of atoms                             ...     30
Number of basis functions                   ...    830
Number of shells                            ...    302
Maximum angular momentum                    ...      3
Integral batch strategy                     ... SHARK/LIBINT Hybrid
RI-J (if used) integral strategy            ... SPLIT-RIJ (Revised 2003 algorithm where possible)
Printlevel                                  ...      1
Contraction scheme used                     ... SEGMENTED contraction
Prescreening option                         ... SCHWARTZ
   Thresh                                   ... 2.500e-11
   Tcut                                     ... 2.500e-12
   Tpresel                                  ... 2.500e-12 
Coulomb Range Separation                    ... NOT USED
Exchange Range Separation                   ... NOT USED
Multipole approximations                    ... NOT USED
Finite Nucleus Model                        ... NOT USED
CABS basis                                  ... NOT available
Auxiliary Coulomb fitting basis             ... AVAILABLE
   # of basis functions in Aux-J            ...   1318
   # of shells in Aux-J                     ...    410
   Maximum angular momentum in Aux-J        ...      4
Auxiliary J/K fitting basis                 ... NOT available
Auxiliary Correlation fitting basis         ... NOT available
Auxiliary 'external' fitting basis          ... NOT available

Checking pre-screening integrals            ... done (  0.0 sec) Dimension = 302
Check shell pair data                       ... done (  0.0 sec)
Shell pair information
Shell pair cut-off parameter TPreSel        ...   2.5e-12
Total number of shell pairs                 ...     45753
Shell pairs after pre-screening             ...     27546
Total number of primitive shell pairs       ...    148824
Primitive shell pairs kept                  ...     56841
          la=0 lb=0:   5619 shell pairs
          la=1 lb=0:   7690 shell pairs
          la=1 lb=1:   2566 shell pairs
          la=2 lb=0:   4025 shell pairs
          la=2 lb=1:   2822 shell pairs
          la=2 lb=2:    759 shell pairs
          la=3 lb=0:   1839 shell pairs
          la=3 lb=1:   1367 shell pairs
          la=3 lb=2:    688 shell pairs
          la=3 lb=3:    171 shell pairs

Calculating one electron integrals          ... done (  0.0 sec)
Calculating RI/J V-Matrix + Cholesky decomp.... done (  0.1 sec)
Calculating Nuclear repulsion               ... done (  0.0 sec) ENN=   3077.624727763100 Eh

Diagonalization of the overlap matrix:
Smallest eigenvalue                        ... 6.596e-05
Time for diagonalization                   ...    0.156 sec
Threshold for overlap eigenvalues          ... 1.000e-07
Number of eigenvalues below threshold      ... 0
Time for construction of square roots      ...    0.067 sec
Total time needed                          ...    0.231 sec

-------------------
DFT GRID GENERATION
-------------------

General Integration Accuracy     IntAcc      ... 4.388
Radial Grid Type                 RadialGrid  ... OptM3 with GC (2021)
Angular Grid (max. ang.)         AngularGrid ... 4 (Lebedev-302)
Angular grid pruning method      GridPruning ... 4 (adaptive)
Weight generation scheme         WeightScheme... mBecke (2022)
Basis function cutoff            BFCut       ... 1.0000e-11
Integration weight cutoff        WCut        ... 1.0000e-14
Partially contracted basis set               ... off
Rotationally invariant grid construction     ... off
Angular grids for H and He will be reduced by one unit

Total number of grid points                  ...   170501
Total number of batches                      ...     2680
Average number of points per batch           ...       63
Average number of grid points per atom       ...     5683

--------------------
COSX GRID GENERATION
--------------------

GRIDX 1
-------
General Integration Accuracy     IntAcc      ... 3.816
Radial Grid Type                 RadialGrid  ... OptM3 with GC (2021)
Angular Grid (max. ang.)         AngularGrid ... 1 (Lebedev-50)
Angular grid pruning method      GridPruning ... 4 (adaptive)
Weight generation scheme         WeightScheme... mBecke (2022)
Basis function cutoff            BFCut       ... 1.0000e-11
Integration weight cutoff        WCut        ... 1.0000e-14
Partially contracted basis set               ... on
Rotationally invariant grid construction     ... off
Angular grids for H and He will be reduced by one unit

Total number of grid points                  ...    21484
Total number of batches                      ...      182
Average number of points per batch           ...      118
Average number of grid points per atom       ...      716
UseSFitting                                  ... on

GRIDX 2
-------
General Integration Accuracy     IntAcc      ... 4.020
Radial Grid Type                 RadialGrid  ... OptM3 with GC (2021)
Angular Grid (max. ang.)         AngularGrid ... 2 (Lebedev-110)
Angular grid pruning method      GridPruning ... 4 (adaptive)
Weight generation scheme         WeightScheme... mBecke (2022)
Basis function cutoff            BFCut       ... 1.0000e-11
Integration weight cutoff        WCut        ... 1.0000e-14
Partially contracted basis set               ... on
Rotationally invariant grid construction     ... off
Angular grids for H and He will be reduced by one unit

Total number of grid points                  ...    49718
Total number of batches                      ...      402
Average number of points per batch           ...      123
Average number of grid points per atom       ...     1657
UseSFitting                                  ... on

GRIDX 3
-------
General Integration Accuracy     IntAcc      ... 4.338
Radial Grid Type                 RadialGrid  ... OptM3 with GC (2021)
Angular Grid (max. ang.)         AngularGrid ... 3 (Lebedev-194)
Angular grid pruning method      GridPruning ... 4 (adaptive)
Weight generation scheme         WeightScheme... mBecke (2022)
Basis function cutoff            BFCut       ... 1.0000e-11
Integration weight cutoff        WCut        ... 1.0000e-14
Partially contracted basis set               ... on
Rotationally invariant grid construction     ... off
Angular grids for H and He will be reduced by one unit

Total number of grid points                  ...   109835
Total number of batches                      ...      871
Average number of points per batch           ...      126
Average number of grid points per atom       ...     3661
UseSFitting                                  ... on
Initializing property integral containers    ... done (  0.0 sec)

SHARK setup successfully completed in   3.9 seconds

Maximum memory used throughout the entire STARTUP-calculation: 67.7 MB


           ************************************************************
           *        Program running with 20 parallel MPI-processes    *
           *              working on a common directory               *
           ************************************************************
-------------------------------------------------------------------------------
                                 ORCA GUESS
                   Start orbitals & Density for SCF / CASSCF
-------------------------------------------------------------------------------

------------
SCF SETTINGS
------------
Hamiltonian:
 Density Functional     Method          .... DFT(GTOs)
 Exchange Functional    Exchange        .... B88
   X-Alpha parameter    XAlpha          ....  0.666667
   Becke's b parameter  XBeta           ....  0.004200
 Correlation Functional Correlation     .... LYP
 LDA part of GGA corr.  LDAOpt          .... VWN-5
 Gradients option       PostSCFGGA      .... off
 Hybrid DFT is turned on
   Fraction HF Exchange ScalHFX         ....  0.200000
   Scaling of DF-GGA-X  ScalDFX         ....  0.720000
   Scaling of DF-GGA-C  ScalDFC         ....  0.810000
   Scaling of DF-LDA-C  ScalLDAC        ....  1.000000
   Perturbative correction              ....  0.000000
   NL short-range parameter             ....  4.800000
 RI-approximation to the Coulomb term is turned on
   Number of AuxJ basis functions       .... 1318
   RIJ-COSX (HFX calculated with COS-X)).... on


General Settings:
 Integral files         IntName         .... rf_mecn_2H2O_opt_B3L_con_002
 Hartree-Fock type      HFTyp           .... UHF
 Total Charge           Charge          ....   -1
 Multiplicity           Mult            ....    2
 Number of Electrons    NEL             ....  211
 Basis Dimension        Dim             ....  830
 Nuclear Repulsion      ENuc            ....   3077.6247277631 Eh

Convergence Acceleration:
 AO-DIIS                CNVDIIS         .... on
   Start iteration      DIISMaxIt       ....     0
   Startup error        DIISStart       ....  0.200000
   # of expansion vecs  DIISMaxEq       ....     5
   Bias factor          DIISBfac        ....   1.050
   Max. coefficient     DIISMaxC        ....  10.000
 MO-DIIS                CNVKDIIS        .... off
 Trust-Rad. Augm. Hess. CNVTRAH         .... auto
   Auto Start mean grad. ratio tolernc. ....  1.125000
   Auto Start start iteration           ....    50
   Auto Start num. interpolation iter.  ....    10
   Max. Number of Micro iterations      ....    24
   Max. Number of Macro iterations      .... Maxiter - #DIIS iter
   Number of Davidson start vectors     ....     2
   Converg. threshold    (grad. norm)   ....   1.000e-05
   Grad. Scal. Fac. for Micro threshold ....   0.100
   Minimum threshold for Micro iter.    ....   1.000e-02
   NR start threshold (gradient norm)   ....   1.000e-04
   Initial trust radius                 ....   0.400
   Minimum AH scaling param. (alpha)    ....   1.000
   Maximum AH scaling param. (alpha)    .... 1000.000
   Quad. conv. algorithm                .... NR
   White noise on init. David. guess    .... on
   Maximum white noise                  ....   0.010
   Pseudo random numbers                .... off
   Inactive MOs                         .... canonical
   Orbital update algorithm             .... Taylor
   Preconditioner                       .... Diag
   Full preconditioner red. dimension   ....   250
 SOSCF                  CNVSOSCF        .... on
   Start iteration      SOSCFMaxIt      ....   150
   Startup grad/error   SOSCFStart      ....  0.001000
   Hessian update       SOSCFHessUp     .... L-BFGS
 Level Shifting         CNVShift        .... on
   Level shift para.    LevelShift      ....    0.2500
   Turn off err/grad.   ShiftErr        ....    0.0000
 Zerner damping         CNVZerner       .... off
 Static damping         CNVDamp         .... on
   Fraction old density DampFac         ....    0.8500
   Max. Damping (<1)    DampMax         ....    0.9800
   Min. Damping (>=0)   DampMin         ....    0.0000
   Turn off err/grad.   DampErr         ....    0.0300

SCF Procedure:
 Maximum # iterations   MaxIter         ....  1500
 SCF integral mode      SCFMode         .... Direct
   Integral package                     .... SHARK and LIBINT hybrid scheme
 Reset frequency        DirectResetFreq ....    20
 Integral Threshold     Thresh          ....  2.500e-11 Eh
 Primitive CutOff       TCut            ....  2.500e-12 Eh

Convergence Tolerance:
 Convergence Check Mode ConvCheckMode   .... Total+1el-Energy
 Convergence forced     ConvForced      .... 0
 Energy Change          TolE            ....  1.000e-08 Eh
 1-El. energy change                    ....  1.000e-05 Eh
 Orbital Gradient       TolG            ....  1.000e-05
 Orbital Rotation angle TolX            ....  1.000e-05
 DIIS Error             TolErr          ....  5.000e-07

------------------------------
INITIAL GUESS: MODEL POTENTIAL
------------------------------
Loading Hartree-Fock densities                     ... done
Calculating cut-offs                               ... done
Initializing the effective Hamiltonian             ... done
Setting up the integral package (SHARK)            ... done
Starting the Coulomb interaction                   ... done (   0.2 sec)
Making the grid                                    ... done (   0.5 sec)
Mapping shells                                     ... done
Starting the XC term evaluation                    ... done (   0.1 sec)
  promolecular density results
     # of electrons  =    209.998841894
     EX              =   -215.845162332
     EC              =     -7.831946481
     EX+EC           =   -223.677108813
Transforming the Hamiltonian                       ... done (   0.1 sec)
Diagonalizing the Hamiltonian                      ... done (   0.2 sec)
Back transforming the eigenvectors                 ... done (   0.1 sec)
Now organizing SCF variables                       ... done
                      ------------------
                      INITIAL GUESS DONE (   1.4 sec)
                      ------------------
             **** ENERGY FILE WAS UPDATED (rf_mecn_2H2O_opt_B3L_con_002.en.tmp) ****
Finished Guess after   2.2 sec
Maximum memory used throughout the entire GUESS-calculation: 56.5 MB


           ************************************************************
           *        Program running with 20 parallel MPI-processes    *
           *              working on a common directory               *
           ************************************************************

-------------------------------------------------------------------------------------------
                                      ORCA LEAN-SCF
                              memory conserving SCF solver
-------------------------------------------------------------------------------------------

--------------------
CPCM SOLVATION MODEL
--------------------
CPCM parameters:
  Epsilon                                         ...      35.6880
  Refrac                                          ...       1.3442
  Rsolv                                           ...       1.3000
  Surface type                                    ... GAUSSIAN VDW
  Discretization scheme                           ... Constant charge density
    Threshold for H atoms                         ...       5.0000 (charges/Ang^2)
    Threshold for non-H atoms                     ...       5.0000 (charges/Ang^2)
  Epsilon function type                           ...         CPCM
Solvent:                                          ... ACETONITRILE
SMD-CDS solvent descriptors:
  Soln                                            ...       1.3442
  Soln25                                          ...       1.3416
  Sola                                            ...       0.0700
  Solb                                            ...       0.3200
  Solg                                            ...      41.2500
  Solc                                            ...       0.0000
  Solh                                            ...       0.0000
Radii:
  Scheme                                          ... Element-dependent radii
  Radius for C  used is    3.4960 Bohr (=   1.8500 Ang.)
  Radius for F  used is    3.2692 Bohr (=   1.7300 Ang.)
  Radius for O  used is    4.0969 Bohr (=   2.1680 Ang.)
  Radius for H  used is    2.2677 Bohr (=   1.2000 Ang.)
Calculating surface                               ...        done! (  0.0s)
Cavity surface points                             ...         2617
Cavity Volume                                     ...    2569.1372
Cavity Surface-area                               ...    1311.9939
Calculating surface distance matrix               ...        done! (  0.1s)
Performing Cholesky decomposition & store         ...        done! (  0.2s)
Overall time for CPCM initialization              ...                 0.2s

----------------------------------------D-I-I-S--------------------------------------------
Iteration    Energy (Eh)           Delta-E    RMSDP     MaxDP     DIISErr   Damp  Time(sec)
-------------------------------------------------------------------------------------------
               ***  Starting incremental Fock matrix formation  ***
    1    -2005.4098020831670510     0.00e+00  2.47e-04  2.19e-02  1.76e-01  0.850   9.2
Warning: op=0 Small HOMO/LUMO gap (   0.087) - skipping pre-diagonalization
         Will do a full diagonalization
    2    -2005.6305358957488352    -2.21e-01  2.91e-04  4.66e-02  1.23e-01  0.850   6.0
                               ***Turning on AO-DIIS***
    3    -2005.7524891817392927    -1.22e-01  1.48e-04  2.77e-02  7.64e-02  0.850   5.2
    4    -2005.8261723819432518    -7.37e-02  8.16e-05  1.39e-02  5.76e-02  0.850   5.1
    5    -2005.8786344800410006    -5.25e-02  5.20e-05  6.21e-03  4.71e-02  0.850   4.9
    6    -2005.9200439522983288    -4.14e-02  3.94e-05  2.77e-03  3.99e-02  0.850   4.8
    7    -2005.9542617471233825    -3.42e-02  3.40e-05  2.85e-03  3.41e-02  0.850   4.7
    8    -2005.9829573402175811    -2.87e-02  3.00e-05  2.64e-03  2.89e-02  0.850   4.8
    9    -2006.0068581181403715    -2.39e-02  1.73e-04  1.52e-02  2.41e-02  0.000   4.6
   10    -2006.1319569066708937    -1.25e-01  1.43e-05  1.63e-03  3.56e-03  0.000   5.2
                              *** Initializing SOSCF ***
---------------------------------------S-O-S-C-F--------------------------------------
Iteration    Energy (Eh)           Delta-E    RMSDP     MaxDP     MaxGrad    Time(sec)
--------------------------------------------------------------------------------------
   11    -2006.1321370311661667    -1.80e-04  6.76e-06  1.21e-03  6.52e-04     5.0
               *** Restarting incremental Fock matrix formation ***
   12    -2006.1321183523004947     1.87e-05  7.90e-06  7.10e-04  7.55e-04     8.7
   13    -2006.1321222768247026    -3.92e-06  4.45e-06  3.57e-04  2.41e-04     6.1
   14    -2006.1321284382429440    -6.16e-06  1.78e-06  1.57e-04  1.18e-04     5.6
   15    -2006.1321286016182057    -1.63e-07  6.31e-07  6.01e-05  6.30e-05     5.2
   16    -2006.1321286592219622    -5.76e-08  4.35e-07  4.36e-05  2.57e-05     4.6
   17    -2006.1321286874235739    -2.82e-08  2.06e-07  3.49e-05  7.24e-06     4.6
   18    -2006.1321286817055807     5.72e-09  1.17e-07  1.12e-05  1.01e-05     3.9
                 **** Energy Check signals convergence ****

               *****************************************************
               *                     SUCCESS                       *
               *           SCF CONVERGED AFTER  18 CYCLES          *
               *****************************************************

Recomputing exchange energy using gridx3       ... done (   12.200 sec)
Old exchange energy                            :    -43.374361976 Eh
New exchange energy                            :    -43.374397288 Eh
Exchange energy change after final integration :     -0.000035311 Eh
Total energy after final integration           :  -2006.132163993 Eh

SMD CDS free energy correction energy :                 2.62181     Kcal/mol
Total Energy after SMD CDS correction =             -2006.127985870 Eh
             **** ENERGY FILE WAS UPDATED (rf_mecn_2H2O_opt_B3L_con_002.en.tmp) ****

----------------
TOTAL SCF ENERGY
----------------

Total Energy       :      -2006.12798586992130 Eh          -54589.51777 eV

Components:
Nuclear Repulsion  :       3077.62472776310005 Eh           83746.42643 eV
Electronic Energy  :      -5083.67646546602555 Eh         -138333.86938 eV
One Electron Energy:      -8940.11916911184016 Eh         -243273.01035 eV
Two Electron Energy:       3856.44270364581416 Eh          104939.14097 eV
CPCM Dielectric    :         -0.08039097877905 Eh              -2.18755 eV
SMD CDS (Gcds)     :          0.00417812319663 Eh               0.11369 eV

Virial components:
Potential Energy   :      -4005.41935891278990 Eh         -108993.00185 eV
Kinetic Energy     :       1999.29137304286860 Eh           54403.48408 eV
Virial Ratio       :          2.00341951799484

DFT components:
N(Alpha)           :      105.999907527756 electrons
N(Beta)            :      104.999892716635 electrons
N(Total)           :      210.999800244391 electrons
E(X)               :     -172.857921393798 Eh       
E(C)               :       -9.196234104921 Eh       
E(XC)              :     -182.054155498719 Eh       

CPCM Solvation Model Properties:
Surface-charge          :          0.99006260568556
Corrected charge        :          1.00000000000000
Outlying charge corr.   :          0.00000507243447 Eh               0.00014 eV
Free-energy (cav+disp)  :          0.00417812319663 Eh               0.11369 eV

---------------
SCF CONVERGENCE
---------------

  Last Energy change         ...   -5.7180e-09  Tolerance :   1.0000e-08
  Last MAX-Density change    ...    1.1181e-05  Tolerance :   1.0000e-07
  Last RMS-Density change    ...    1.1707e-07  Tolerance :   5.0000e-09
  Last DIIS Error            ...    6.5195e-04  Tolerance :   5.0000e-07
  Last Orbital Gradient      ...    1.0126e-05  Tolerance :   1.0000e-05
  Last Orbital Rotation      ...    4.8326e-05  Tolerance :   1.0000e-05


----------------------
UHF SPIN CONTAMINATION
----------------------

Warning: in a DFT calculation there is little theoretical justification to 
         calculate <S**2> as in Hartree-Fock theory. We will do it anyways
         but you should keep in mind that the values have only limited relevance

Expectation value of <S**2>     :     0.754116
Ideal value S*(S+1) for S=0.5   :     0.750000
Deviation                       :     0.004116

----------------
ORBITAL ENERGIES
----------------
                 SPIN UP ORBITALS
  NO   OCC          E(Eh)            E(eV) 
   0   1.0000     -24.750503      -673.4954 
   1   1.0000     -24.744218      -673.3244 
   2   1.0000     -24.743181      -673.2962 
   3   1.0000     -24.742573      -673.2796 
   4   1.0000     -24.742063      -673.2658 
   5   1.0000     -24.740998      -673.2368 
   6   1.0000     -24.740927      -673.2349 
   7   1.0000     -24.740776      -673.2307 
   8   1.0000     -24.736453      -673.1131 
   9   1.0000     -24.728373      -672.8932 
  10   1.0000     -24.720678      -672.6838 
  11   1.0000     -24.720562      -672.6807 
  12   1.0000     -24.706541      -672.2991 
  13   1.0000     -24.706467      -672.2971 
  14   1.0000     -19.088505      -519.4246 
  15   1.0000     -19.088468      -519.4236 
  16   1.0000     -19.082881      -519.2716 
  17   1.0000     -19.082720      -519.2672 
  18   1.0000     -10.460389      -284.6417 
  19   1.0000     -10.405708      -283.1537 
  20   1.0000     -10.403770      -283.1010 
  21   1.0000     -10.402090      -283.0553 
  22   1.0000     -10.384538      -282.5777 
  23   1.0000     -10.352460      -281.7047 
  24   1.0000     -10.319181      -280.7992 
  25   1.0000     -10.274793      -279.5913 
  26   1.0000      -1.352706       -36.8090 
  27   1.0000      -1.323739       -36.0208 
  28   1.0000      -1.307412       -35.5765 
  29   1.0000      -1.302001       -35.4292 
  30   1.0000      -1.295984       -35.2655 
  31   1.0000      -1.285262       -34.9738 
  32   1.0000      -1.270544       -34.5733 
  33   1.0000      -1.265382       -34.4328 
  34   1.0000      -1.259734       -34.2791 
  35   1.0000      -1.256208       -34.1832 
  36   1.0000      -1.248980       -33.9865 
  37   1.0000      -1.241279       -33.7769 
  38   1.0000      -1.232169       -33.5290 
  39   1.0000      -1.213591       -33.0235 
  40   1.0000      -1.046944       -28.4888 
  41   1.0000      -0.975363       -26.5410 
  42   1.0000      -0.972445       -26.4616 
  43   1.0000      -0.960217       -26.1288 
  44   1.0000      -0.852067       -23.1859 
  45   1.0000      -0.831008       -22.6129 
  46   1.0000      -0.794853       -21.6291 
  47   1.0000      -0.757790       -20.6205 
  48   1.0000      -0.718730       -19.5576 
  49   1.0000      -0.691018       -18.8035 
  50   1.0000      -0.664181       -18.0733 
  51   1.0000      -0.646122       -17.5819 
  52   1.0000      -0.643498       -17.5105 
  53   1.0000      -0.636696       -17.3254 
  54   1.0000      -0.622483       -16.9386 
  55   1.0000      -0.620115       -16.8742 
  56   1.0000      -0.617712       -16.8088 
  57   1.0000      -0.610687       -16.6176 
  58   1.0000      -0.603411       -16.4197 
  59   1.0000      -0.598620       -16.2893 
  60   1.0000      -0.592654       -16.1269 
  61   1.0000      -0.581580       -15.8256 
  62   1.0000      -0.580229       -15.7888 
  63   1.0000      -0.571070       -15.5396 
  64   1.0000      -0.554866       -15.0987 
  65   1.0000      -0.529971       -14.4212 
  66   1.0000      -0.513828       -13.9820 
  67   1.0000      -0.513556       -13.9746 
  68   1.0000      -0.508510       -13.8373 
  69   1.0000      -0.503645       -13.7049 
  70   1.0000      -0.498179       -13.5561 
  71   1.0000      -0.497642       -13.5415 
  72   1.0000      -0.496623       -13.5138 
  73   1.0000      -0.489473       -13.3192 
  74   1.0000      -0.483511       -13.1570 
  75   1.0000      -0.481003       -13.0888 
  76   1.0000      -0.476777       -12.9738 
  77   1.0000      -0.473270       -12.8783 
  78   1.0000      -0.467774       -12.7288 
  79   1.0000      -0.463844       -12.6218 
  80   1.0000      -0.462723       -12.5913 
  81   1.0000      -0.459737       -12.5101 
  82   1.0000      -0.457863       -12.4591 
  83   1.0000      -0.452182       -12.3045 
  84   1.0000      -0.450230       -12.2514 
  85   1.0000      -0.446505       -12.1500 
  86   1.0000      -0.442881       -12.0514 
  87   1.0000      -0.441016       -12.0007 
  88   1.0000      -0.440052       -11.9744 
  89   1.0000      -0.436676       -11.8826 
  90   1.0000      -0.434132       -11.8133 
  91   1.0000      -0.424426       -11.5492 
  92   1.0000      -0.422412       -11.4944 
  93   1.0000      -0.417620       -11.3640 
  94   1.0000      -0.407970       -11.1014 
  95   1.0000      -0.404273       -11.0008 
  96   1.0000      -0.378138       -10.2897 
  97   1.0000      -0.360422        -9.8076 
  98   1.0000      -0.358065        -9.7434 
  99   1.0000      -0.353779        -9.6268 
 100   1.0000      -0.286946        -7.8082 
 101   1.0000      -0.284854        -7.7513 
 102   1.0000      -0.274891        -7.4802 
 103   1.0000      -0.269412        -7.3311 
 104   1.0000      -0.258727        -7.0403 
 105   1.0000      -0.252231        -6.8636 
 106   0.0000      -0.004051        -0.1102 
 107   0.0000       0.015804         0.4301 
 108   0.0000       0.022995         0.6257 
 109   0.0000       0.040296         1.0965 
 110   0.0000       0.057190         1.5562 
 111   0.0000       0.070429         1.9165 
 112   0.0000       0.081421         2.2156 
 113   0.0000       0.092470         2.5162 
 114   0.0000       0.104389         2.8406 
 115   0.0000       0.107073         2.9136 
 116   0.0000       0.117987         3.2106 

                 SPIN DOWN ORBITALS
  NO   OCC          E(Eh)            E(eV) 
   0   1.0000     -24.746113      -673.3760 
   1   1.0000     -24.744219      -673.3244 
   2   1.0000     -24.743179      -673.2961 
   3   1.0000     -24.742552      -673.2791 
   4   1.0000     -24.742063      -673.2658 
   5   1.0000     -24.740899      -673.2341 
   6   1.0000     -24.740870      -673.2333 
   7   1.0000     -24.740770      -673.2306 
   8   1.0000     -24.736335      -673.1099 
   9   1.0000     -24.727122      -672.8592 
  10   1.0000     -24.720202      -672.6709 
  11   1.0000     -24.720194      -672.6707 
  12   1.0000     -24.706513      -672.2984 
  13   1.0000     -24.706451      -672.2967 
  14   1.0000     -19.088505      -519.4246 
  15   1.0000     -19.088467      -519.4236 
  16   1.0000     -19.082722      -519.2673 
  17   1.0000     -19.082564      -519.2630 
  18   1.0000     -10.460357      -284.6408 
  19   1.0000     -10.405641      -283.1519 
  20   1.0000     -10.403262      -283.0872 
  21   1.0000     -10.402867      -283.0764 
  22   1.0000     -10.385406      -282.6013 
  23   1.0000     -10.351714      -281.6845 
  24   1.0000     -10.304811      -280.4082 
  25   1.0000     -10.274708      -279.5890 
  26   1.0000      -1.352674       -36.8081 
  27   1.0000      -1.323161       -36.0050 
  28   1.0000      -1.306786       -35.5595 
  29   1.0000      -1.300257       -35.3818 
  30   1.0000      -1.293885       -35.2084 
  31   1.0000      -1.278393       -34.7868 
  32   1.0000      -1.270125       -34.5619 
  33   1.0000      -1.265325       -34.4312 
  34   1.0000      -1.259702       -34.2782 
  35   1.0000      -1.255975       -34.1768 
  36   1.0000      -1.248852       -33.9830 
  37   1.0000      -1.239549       -33.7298 
  38   1.0000      -1.231162       -33.5016 
  39   1.0000      -1.213446       -33.0196 
  40   1.0000      -1.046619       -28.4800 
  41   1.0000      -0.975297       -26.5392 
  42   1.0000      -0.972441       -26.4615 
  43   1.0000      -0.959915       -26.1206 
  44   1.0000      -0.844054       -22.9679 
  45   1.0000      -0.822863       -22.3912 
  46   1.0000      -0.793169       -21.5832 
  47   1.0000      -0.751731       -20.4556 
  48   1.0000      -0.715099       -19.4588 
  49   1.0000      -0.690154       -18.7800 
  50   1.0000      -0.660323       -17.9683 
  51   1.0000      -0.644538       -17.5388 
  52   1.0000      -0.642533       -17.4842 
  53   1.0000      -0.636566       -17.3219 
  54   1.0000      -0.621184       -16.9033 
  55   1.0000      -0.618786       -16.8380 
  56   1.0000      -0.612503       -16.6671 
  57   1.0000      -0.609188       -16.5768 
  58   1.0000      -0.602070       -16.3832 
  59   1.0000      -0.596520       -16.2321 
  60   1.0000      -0.591618       -16.0988 
  61   1.0000      -0.580188       -15.7877 
  62   1.0000      -0.578553       -15.7432 
  63   1.0000      -0.569053       -15.4847 
  64   1.0000      -0.554204       -15.0807 
  65   1.0000      -0.514165       -13.9911 
  66   1.0000      -0.513566       -13.9748 
  67   1.0000      -0.510925       -13.9030 
  68   1.0000      -0.505059       -13.7434 
  69   1.0000      -0.499821       -13.6008 
  70   1.0000      -0.497658       -13.5420 
  71   1.0000      -0.496405       -13.5079 
  72   1.0000      -0.493977       -13.4418 
  73   1.0000      -0.488065       -13.2809 
  74   1.0000      -0.482312       -13.1244 
  75   1.0000      -0.479632       -13.0514 
  76   1.0000      -0.476084       -12.9549 
  77   1.0000      -0.472752       -12.8642 
  78   1.0000      -0.467269       -12.7150 
  79   1.0000      -0.462751       -12.5921 
  80   1.0000      -0.462211       -12.5774 
  81   1.0000      -0.457729       -12.4554 
  82   1.0000      -0.454547       -12.3689 
  83   1.0000      -0.451845       -12.2953 
  84   1.0000      -0.449861       -12.2413 
  85   1.0000      -0.446067       -12.1381 
  86   1.0000      -0.442313       -12.0359 
  87   1.0000      -0.440698       -11.9920 
  88   1.0000      -0.439263       -11.9529 
  89   1.0000      -0.435693       -11.8558 
  90   1.0000      -0.433424       -11.7941 
  91   1.0000      -0.423580       -11.5262 
  92   1.0000      -0.421713       -11.4754 
  93   1.0000      -0.417266       -11.3544 
  94   1.0000      -0.406079       -11.0500 
  95   1.0000      -0.403520       -10.9803 
  96   1.0000      -0.374931       -10.2024 
  97   1.0000      -0.359985        -9.7957 
  98   1.0000      -0.357089        -9.7169 
  99   1.0000      -0.352460        -9.5909 
 100   1.0000      -0.286877        -7.8063 
 101   1.0000      -0.284841        -7.7509 
 102   1.0000      -0.269056        -7.3214 
 103   1.0000      -0.260672        -7.0932 
 104   1.0000      -0.258193        -7.0258 
 105   0.0000      -0.122600        -3.3361 
 106   0.0000      -0.001302        -0.0354 
 107   0.0000       0.017905         0.4872 
 108   0.0000       0.026391         0.7181 
 109   0.0000       0.043744         1.1903 
 110   0.0000       0.057593         1.5672 
 111   0.0000       0.071336         1.9411 
 112   0.0000       0.083525         2.2728 
 113   0.0000       0.095794         2.6067 
 114   0.0000       0.106497         2.8979 
 115   0.0000       0.115534         3.1438 
*Only the first 10 virtual orbitals were printed.

                    ********************************
                    * MULLIKEN POPULATION ANALYSIS *
                    ********************************

--------------------------------------------
MULLIKEN ATOMIC CHARGES AND SPIN POPULATIONS
--------------------------------------------
   0 C :    0.476258    0.001252
   1 C :    0.323638    0.003064
   2 C :    0.320945    0.012227
   3 C :    0.373489    0.000946
   4 C :    0.086244    0.836820
   5 C :    0.370862   -0.026492
   6 C :    0.326835    0.029730
   7 C :    0.266429    0.002921
   8 F :   -0.155198   -0.000021
   9 F :   -0.153660    0.000021
  10 F :   -0.152926    0.000385
  11 F :   -0.166706   -0.000033
  12 F :   -0.163794    0.000158
  13 F :   -0.175519    0.000917
  14 F :   -0.171658    0.001889
  15 F :   -0.179738    0.022870
  16 F :   -0.176287    0.002263
  17 F :   -0.151709    0.083989
  18 F :   -0.190865    0.006977
  19 F :   -0.186744    0.007983
  20 F :   -0.215886    0.000564
  21 F :   -0.218322    0.000471
  22 O :   -0.493231    0.005469
  23 O :   -0.496107    0.005570
  24 O :   -0.726120    0.000008
  25 H :    0.327180   -0.000004
  26 H :    0.349241    0.000017
  27 H :    0.346448   -0.000043
  28 O :   -0.719591    0.000012
  29 H :    0.326493    0.000071
Sum of atomic charges         :   -1.0000000
Sum of atomic spin populations:    1.0000000

-----------------------------------------------------
MULLIKEN REDUCED ORBITAL CHARGES AND SPIN POPULATIONS
-----------------------------------------------------
CHARGE
  0 C s       :     3.025503  s :     3.025503
      pz      :     0.645693  p :     2.113487
      px      :     0.663961
      py      :     0.803832
      dz2     :     0.076976  d :     0.344386
      dxz     :     0.069407
      dyz     :     0.066907
      dx2y2   :     0.071770
      dxy     :     0.059325
      f0      :     0.007381  f :     0.040367
      f+1     :     0.006003
      f-1     :     0.004434
      f+2     :     0.005951
      f-2     :     0.007391
      f+3     :     0.005221
      f-3     :     0.003986

  1 C s       :     3.130636  s :     3.130636
      pz      :     0.602028  p :     2.238387
      px      :     0.728986
      py      :     0.907372
      dz2     :     0.072938  d :     0.279254
      dxz     :     0.054650
      dyz     :     0.062119
      dx2y2   :     0.033573
      dxy     :     0.055974
      f0      :     0.005769  f :     0.028086
      f+1     :     0.005046
      f-1     :     0.003186
      f+2     :     0.004931
      f-2     :     0.004737
      f+3     :     0.002431
      f-3     :     0.001986

  2 C s       :     3.154986  s :     3.154986
      pz      :     0.642419  p :     2.210884
      px      :     0.703119
      py      :     0.865345
      dz2     :     0.068215  d :     0.285097
      dxz     :     0.061222
      dyz     :     0.055428
      dx2y2   :     0.043516
      dxy     :     0.056715
      f0      :     0.004836  f :     0.028088
      f+1     :     0.006253
      f-1     :     0.003069
      f+2     :     0.004373
      f-2     :     0.003779
      f+3     :     0.003143
      f-3     :     0.002635

  3 C s       :     3.091286  s :     3.091286
      pz      :     0.661273  p :     2.217800
      px      :     0.672448
      py      :     0.884080
      dz2     :     0.055811  d :     0.289789
      dxz     :     0.070441
      dyz     :     0.064917
      dx2y2   :     0.040332
      dxy     :     0.058288
      f0      :     0.004684  f :     0.027635
      f+1     :     0.006921
      f-1     :     0.003512
      f+2     :     0.003086
      f-2     :     0.002783
      f+3     :     0.002956
      f-3     :     0.003693

  4 C s       :     3.265028  s :     3.265028
      pz      :     0.983693  p :     2.484421
      px      :     0.612186
      py      :     0.888542
      dz2     :     0.014030  d :     0.146782
      dxz     :     0.034071
      dyz     :     0.012969
      dx2y2   :     0.027802
      dxy     :     0.057910
      f0      :     0.002091  f :     0.017525
      f+1     :     0.002075
      f-1     :     0.001432
      f+2     :     0.002931
      f-2     :     0.001012
      f+3     :     0.002942
      f-3     :     0.005042

  5 C s       :     3.090767  s :     3.090767
      pz      :     0.893791  p :     2.225157
      px      :     0.593536
      py      :     0.737831
      dz2     :     0.055401  d :     0.285697
      dxz     :     0.055966
      dyz     :     0.047845
      dx2y2   :     0.065985
      dxy     :     0.060501
      f0      :     0.002636  f :     0.027517
      f+1     :     0.003908
      f-1     :     0.003321
      f+2     :     0.003910
      f-2     :     0.003498
      f+3     :     0.004669
      f-3     :     0.005575

  6 C s       :     3.153741  s :     3.153741
      pz      :     0.857314  p :     2.231654
      px      :     0.570024
      py      :     0.804316
      dz2     :     0.044816  d :     0.260954
      dxz     :     0.049655
      dyz     :     0.037669
      dx2y2   :     0.069028
      dxy     :     0.059785
      f0      :     0.002706  f :     0.026816
      f+1     :     0.003295
      f-1     :     0.002870
      f+2     :     0.003438
      f-2     :     0.003580
      f+3     :     0.005379
      f-3     :     0.005547

  7 C s       :     3.047768  s :     3.047768
      pz      :     0.808297  p :     2.404023
      px      :     0.712859
      py      :     0.882867
      dz2     :     0.011171  d :     0.256615
      dxz     :     0.073487
      dyz     :     0.022725
      dx2y2   :     0.074185
      dxy     :     0.075047
      f0      :     0.002294  f :     0.025164
      f+1     :     0.002348
      f-1     :     0.001233
      f+2     :     0.002424
      f-2     :     0.003372
      f+3     :     0.006835
      f-3     :     0.006657

  8 F s       :     3.912117  s :     3.912117
      pz      :     1.601392  p :     5.225667
      px      :     1.738295
      py      :     1.885980
      dz2     :     0.004340  d :     0.016656
      dxz     :     0.006394
      dyz     :     0.002782
      dx2y2   :     0.001562
      dxy     :     0.001578
      f0      :     0.000112  f :     0.000758
      f+1     :     0.000267
      f-1     :     0.000074
      f+2     :     0.000136
      f-2     :     0.000120
      f+3     :     0.000021
      f-3     :     0.000028

  9 F s       :     3.911027  s :     3.911027
      pz      :     1.655397  p :     5.225118
      px      :     1.747082
      py      :     1.822640
      dz2     :     0.003639  d :     0.016748
      dxz     :     0.005343
      dyz     :     0.003502
      dx2y2   :     0.001735
      dxy     :     0.002529
      f0      :     0.000093  f :     0.000767
      f+1     :     0.000186
      f-1     :     0.000106
      f+2     :     0.000114
      f-2     :     0.000185
      f+3     :     0.000039
      f-3     :     0.000044

 10 F s       :     3.911252  s :     3.911252
      pz      :     1.865575  p :     5.224222
      px      :     1.669854
      py      :     1.688792
      dz2     :     0.002177  d :     0.016687
      dxz     :     0.002448
      dyz     :     0.002136
      dx2y2   :     0.003540
      dxy     :     0.006386
      f0      :     0.000076  f :     0.000765
      f+1     :     0.000078
      f-1     :     0.000063
      f+2     :     0.000034
      f-2     :     0.000144
      f+3     :     0.000167
      f-3     :     0.000203

 11 F s       :     3.915694  s :     3.915694
      pz      :     1.564590  p :     5.233805
      px      :     1.780145
      py      :     1.889071
      dz2     :     0.005207  d :     0.016496
      dxz     :     0.005580
      dyz     :     0.003188
      dx2y2   :     0.001127
      dxy     :     0.001393
      f0      :     0.000142  f :     0.000711
      f+1     :     0.000248
      f-1     :     0.000098
      f+2     :     0.000091
      f-2     :     0.000105
      f+3     :     0.000011
      f-3     :     0.000015

 12 F s       :     3.914169  s :     3.914169
      pz      :     1.675133  p :     5.232303
      px      :     1.680973
      py      :     1.876197
      dz2     :     0.003089  d :     0.016600
      dxz     :     0.006217
      dyz     :     0.002445
      dx2y2   :     0.002312
      dxy     :     0.002536
      f0      :     0.000081  f :     0.000722
      f+1     :     0.000198
      f-1     :     0.000049
      f+2     :     0.000151
      f-2     :     0.000147
      f+3     :     0.000042
      f-3     :     0.000054

[...]
      f+3     :    -0.000002
      f-3     :    -0.000002

 19 F s       :     0.001094  s :     0.001094
      pz      :     0.000413  p :     0.008695
      px      :     0.007586
      py      :     0.000695
      dz2     :    -0.000052  d :    -0.000219
      dxz     :    -0.000056
      dyz     :     0.000030
      dx2y2   :    -0.000013
      dxy     :    -0.000129
      f0      :    -0.000001  f :    -0.000012
      f+1     :    -0.000003
      f-1     :    -0.000001
      f+2     :    -0.000001
      f-2     :    -0.000000
      f+3     :    -0.000001
      f-3     :    -0.000004

 20 F s       :     0.000171  s :     0.000171
      pz      :    -0.000163  p :     0.000427
      px      :     0.000689
      py      :    -0.000098
      dz2     :     0.000027  d :     0.000268
      dxz     :     0.000011
      dyz     :     0.000188
      dx2y2   :     0.000017
      dxy     :     0.000025
      f0      :     0.000001  f :     0.000018
      f+1     :     0.000002
      f-1     :     0.000008
      f+2     :    -0.000000
      f-2     :     0.000005
      f+3     :     0.000003
      f-3     :     0.000000

 21 F s       :     0.000086  s :     0.000086
      pz      :     0.000176  p :     0.000348
      px      :    -0.000093
      py      :     0.000264
      dz2     :     0.000019  d :     0.000236
      dxz     :     0.000133
      dyz     :     0.000055
      dx2y2   :     0.000016
      dxy     :     0.000013
      f0      :     0.000002  f :     0.000016
      f+1     :     0.000003
      f-1     :     0.000001
      f+2     :     0.000005
      f-2     :     0.000002
      f+3     :     0.000001
      f-3     :     0.000002

 22 O s       :     0.000112  s :     0.000112
      pz      :    -0.000259  p :     0.004564
      px      :     0.000431
      py      :     0.004392
      dz2     :    -0.000001  d :     0.000057
      dxz     :    -0.000010
      dyz     :    -0.000018
      dx2y2   :     0.000082
      dxy     :     0.000005
      f0      :    -0.000000  f :     0.000005
      f+1     :     0.000000
      f-1     :     0.000000
      f+2     :    -0.000000
      f-2     :    -0.000002
      f+3     :     0.000004
      f-3     :     0.000003

 23 O s       :     0.000115  s :     0.000115
      pz      :    -0.000001  p :     0.005039
      px      :     0.000713
      py      :     0.004328
      dz2     :    -0.000006  d :     0.000061
      dxz     :    -0.000017
      dyz     :    -0.000003
      dx2y2   :    -0.000001
      dxy     :     0.000088
      f0      :    -0.000000  f :     0.000005
      f+1     :    -0.000001
      f-1     :     0.000001
      f+2     :    -0.000001
      f-2     :     0.000000
      f+3     :     0.000001
      f-3     :     0.000005

 24 O s       :    -0.000000  s :    -0.000000
      pz      :     0.000014  p :     0.000033
      px      :     0.000017
      py      :     0.000001
      dz2     :    -0.000000  d :    -0.000001
      dxz     :    -0.000000
      dyz     :    -0.000000
      dx2y2   :    -0.000000
      dxy     :    -0.000000
      f0      :    -0.000000  f :    -0.000000
      f+1     :    -0.000000
      f-1     :    -0.000000
      f+2     :    -0.000000
      f-2     :    -0.000000
      f+3     :    -0.000000
      f-3     :    -0.000000

 25 H s       :     0.000025  s :     0.000025
      pz      :    -0.000000  p :     0.000000
      px      :    -0.000000
      py      :     0.000001

 26 H s       :    -0.000014  s :    -0.000014
      pz      :     0.000000  p :    -0.000003
      px      :     0.000001
      py      :    -0.000004

 27 H s       :    -0.000017  s :    -0.000017
      pz      :     0.000001  p :    -0.000002
      px      :    -0.000005
      py      :     0.000002

 28 O s       :    -0.000001  s :    -0.000001
      pz      :     0.000002  p :     0.000025
      px      :     0.000023
      py      :     0.000001
      dz2     :    -0.000000  d :    -0.000001
      dxz     :    -0.000000
      dyz     :    -0.000000
      dx2y2   :     0.000000
      dxy     :     0.000000
      f0      :    -0.000000  f :    -0.000000
      f+1     :     0.000000
      f-1     :     0.000000
      f+2     :    -0.000000
      f-2     :    -0.000000
      f+3     :    -0.000000
      f-3     :    -0.000000

 29 H s       :     0.000036  s :     0.000036
      pz      :    -0.000000  p :    -0.000000
      px      :    -0.000000
      py      :     0.000000



                      *****************************
                      * MAYER POPULATION ANALYSIS *
                      *****************************

  NA   - Mulliken gross atomic population
  ZA   - Total nuclear charge
  QA   - Mulliken gross atomic charge
  VA   - Mayer's total valence
  BVA  - Mayer's bonded valence
  FA   - Mayer's free valence

  ATOM       NA         ZA         QA         VA         BVA        FA
  0 C      5.5232     6.0000     0.4768     4.5044     4.5044     0.0000
  1 C      5.6768     6.0000     0.3232     4.1614     4.1614     0.0000
  2 C      5.6792     6.0000     0.3208     4.0264     4.0261     0.0003
  3 C      5.6237     6.0000     0.3763     4.2058     4.2032     0.0027
  4 C      5.9122     6.0000     0.0878     3.8853     3.2952     0.5901
  5 C      5.6253     6.0000     0.3747     4.1288     4.1265     0.0023
  6 C      5.6912     6.0000     0.3088     3.8703     3.8693     0.0009
  7 C      5.7269     6.0000     0.2731     4.4313     4.4313     0.0000
  8 F      9.1557     9.0000    -0.1557     1.1619     1.1619     0.0000
  9 F      9.1536     9.0000    -0.1536     1.1648     1.1648     0.0000
 10 F      9.1531     9.0000    -0.1531     1.1666     1.1666     0.0000
 11 F      9.1661     9.0000    -0.1661     1.1529     1.1529     0.0000
 12 F      9.1642     9.0000    -0.1642     1.1527     1.1527     0.0000
 13 F      9.1750     9.0000    -0.1750     1.1451     1.1451     0.0000
 14 F      9.1714     9.0000    -0.1714     1.1472     1.1472     0.0000
 15 F      9.1803     9.0000    -0.1803     1.1237     1.1230     0.0007
 16 F      9.1773     9.0000    -0.1773     1.1325     1.1325     0.0000
 17 F      9.1513     9.0000    -0.1513     1.1850     1.1741     0.0109
 18 F      9.1894     9.0000    -0.1894     1.1191     1.1190     0.0001
 19 F      9.1871     9.0000    -0.1871     1.1166     1.1165     0.0001
 20 F      9.2186     9.0000    -0.2186     1.0769     1.0769     0.0000
 21 F      9.2166     9.0000    -0.2166     1.0740     1.0740     0.0000
 22 O      8.4920     8.0000    -0.4920     1.9603     1.9603     0.0000
 23 O      8.4926     8.0000    -0.4926     1.9593     1.9593     0.0000
 24 O      8.7216     8.0000    -0.7216     1.7541     1.7541     0.0000
 25 H      0.6741     1.0000     0.3259     0.9176     0.9176     0.0000
 26 H      0.6534     1.0000     0.3466     0.9564     0.9564     0.0000
 27 H      0.6531     1.0000     0.3469     0.9574     0.9574     0.0000
 28 O      8.7219     8.0000    -0.7219     1.7531     1.7531     0.0000
 29 H      0.6731     1.0000     0.3269     0.9143     0.9143     0.0000

  Mayer bond orders larger than 0.100000
B(  0-C ,  1-C ) :   0.9646 B(  0-C ,  8-F ) :   1.1426 B(  0-C ,  9-F ) :   1.1542 
B(  0-C , 10-F ) :   1.1478 B(  1-C ,  2-C ) :   0.9099 B(  1-C , 11-F ) :   1.0880 
B(  1-C , 12-F ) :   1.0982 B(  2-C ,  3-C ) :   0.9099 B(  2-C , 13-F ) :   1.0659 
B(  2-C , 14-F ) :   1.0811 B(  3-C ,  4-C ) :   1.0492 B(  3-C , 15-F ) :   1.0683 
B(  3-C , 16-F ) :   1.0636 B(  4-C ,  5-C ) :   0.9968 B(  4-C , 17-F ) :   1.1170 
B(  5-C ,  6-C ) :   0.8997 B(  5-C , 18-F ) :   1.0636 B(  5-C , 19-F ) :   1.0878 
B(  6-C ,  7-C ) :   0.8756 B(  6-C , 20-F ) :   1.0183 B(  6-C , 21-F ) :   1.0154 
B(  7-C , 22-O ) :   1.7478 B(  7-C , 23-O ) :   1.7459 B( 22-O , 27-H ) :   0.1142 
B( 23-O , 26-H ) :   0.1139 B( 24-O , 25-H ) :   0.9051 B( 24-O , 26-H ) :   0.8317 
B( 27-H , 28-O ) :   0.8330 B( 28-O , 29-H ) :   0.9032 

-------
TIMINGS
-------

Total SCF time: 0 days 0 hours 0 min 37 sec 

Total time                  ....      37.635 sec
Sum of individual times     ....      36.487 sec  ( 97.0%)

SCF preparation             ....       1.470 sec  (  3.9%)
Fock matrix formation       ....      30.722 sec  ( 81.6%)
  Startup                   ....       0.117 sec  (  0.4% of F)
  Split-RI-J                ....       1.611 sec  (  5.2% of F)
  Chain of spheres X        ....      23.595 sec  ( 76.8% of F)
  XC integration            ....       3.559 sec  ( 11.6% of F)
    XC Preparation          ....       0.000 sec  (  0.0% of XC)
    Basis function eval.    ....       0.298 sec  (  8.4% of XC)
    Density eval.           ....       0.770 sec  ( 21.6% of XC)
    XC-Functional eval.     ....       0.027 sec  (  0.8% of XC)
    XC-Potential eval.      ....       0.892 sec  ( 25.1% of XC)
  CPCM terms                ....       1.511 sec  (  4.9% of F)
Diagonalization             ....       0.000 sec  (  0.0%)
Density matrix formation    ....       0.302 sec  (  0.8%)
Total Energy calculation    ....       0.189 sec  (  0.5%)
Population analysis         ....       0.808 sec  (  2.1%)
Orbital Transformation      ....       0.537 sec  (  1.4%)
Orbital Orthonormalization  ....       0.000 sec  (  0.0%)
DIIS solution               ....       0.710 sec  (  1.9%)
SOSCF solution              ....       1.749 sec  (  4.6%)
Finished LeanSCF after  38.4 sec

Maximum memory used throughout the entire LEANSCF-calculation: 132.8 MB


-------------------------------------------------------------------------------
                          DFT DISPERSION CORRECTION                            
                                                                               
                              DFTD3 V3.1  Rev 1                                
                          USING Becke-Johnson damping                          
-------------------------------------------------------------------------------
The B3LYP functional is recognized
Active option DFTDOPT                   ...         4   

molecular C6(AA) [au] = 8580.704449 


            DFT-D V3
 parameters
 s6 scaling factor         :     1.0000 
 a1 scaling factor         :     0.3981 
 s8 scaling factor         :     1.9889 
 a2 scaling factor         :     4.4211 
 ad hoc parameters k1-k3   :    16.0000     1.3333    -4.0000 

 Edisp/kcal,au: -31.464851454045  -0.050142427164 
 E6   /kcal   : -15.254559395 
 E8   /kcal   : -16.210292059 
 % E8         :  51.518730614 

-------------------------   ----------------
Dispersion correction           -0.050142427
-------------------------   ----------------


-------------------------   --------------------
FINAL SINGLE POINT ENERGY     -2006.178798215208
-------------------------   --------------------

                                *** OPTIMIZATION RUN DONE ***



           ************************************************************
           *        Program running with 20 parallel MPI-processes    *
           *              working on a common directory               *
           ************************************************************

------------------------------------------------------------------------------
                              ORCA PROPERTY CALCULATIONS
------------------------------------------------------------------------------

GBWName                                 ... rf_mecn_2H2O_opt_B3L_con_002.gbw
Number of atoms                         ...     30
Number of basis functions               ...    830
Max core memory                         ...   8000 MB

Electric properties:
Dipole moment                           ... YES
Quadrupole moment                       ...  NO
Static polarizability (Dipole/Dipole)   ...  NO
Static polarizability (Dipole/Quad.)    ...  NO
Static polarizability (Quad./Quad.)     ...  NO
Static polarizability (Velocity)        ...  NO

Atomic electric properties:
Dipole moment                           ...  NO
Quadrupole moment                       ...  NO
Static polarizability                   ...  NO

Choice of electric origin               ... Center of mass
Position of electric origin             ...    13.042036    43.323538     3.436830

General magnetic properties:
Magnetizability                         ...  NO

EPR properties:
g-Tensor (aka g-matrix)                 ...  NO
Zero-Field splitting spin-orbit         ...  NO
Zero-field splitting spin-spin          ...  NO
Hyperfine couplings                     ...  NO (   0 nuclei)
Quadrupole couplings                    ...  NO (   0 nuclei)
Contact density                         ...  NO (   0 nuclei)

NMR properties:
Chemical shifts                         ...  NO (   0 nuclei)
Spin-rotation constants                 ...  NO (   0 nuclei)
Spin-spin couplings                     ...  NO (   0 nuclei,    0 pairs)

Choice of magnetic origin               ... GIAO
Position of magnetic origin             ...     0.000000     0.000000     0.000000

Properties with geometric perturbations:
SCF Hessian                             ...  NO
IR spectrum                             ...  NO
VCD spectrum                            ...  NO
X-ray spectroscopy properties:
SCF XES/XAS/RIXS spectra                ...  NO


-------------
DIPOLE MOMENT
-------------

Method             : SCF
Type of density    : Electron Density
Multiplicity       :   2
Irrep              :   0
Energy             : -2006.1286557880439432 Eh
Relativity type    : 
Basis              : AO
                                X                 Y                 Z
Electronic contribution:      0.889513757      32.051476466      10.811353773
Nuclear contribution   :     -0.233656429     -24.237868986      -7.740536139
                        -----------------------------------------
Total Dipole Moment    :      0.655857328       7.813607480       3.070817635
                        -----------------------------------------
Magnitude (a.u.)       :      8.420957881
Magnitude (Debye)      :     21.404373899



--------------------
Rotational spectrum 
--------------------
 
Rotational constants in cm-1:             0.012082             0.003931             0.003657 
Rotational constants in MHz :           362.195297           117.837329           109.630827 

Dipole components along the rotational axes: 
x,y,z [a.u.] :     8.080007     1.939951     1.364774 
x,y,z [Debye]:    20.537746     4.930963     3.468980 

 

Dipole moment calculation done in   0.2 sec 

Maximum memory used throughout the entire PROP-calculation: 71.4 MB

--------------------------------
SUGGESTED CITATIONS FOR THIS RUN
--------------------------------

Below you find a list of papers that are relevant to this ORCA run
We neither can nor want to force you to cite these papers, but we appreciate if you do
You receive ORCA, which is the product of decades of hard work by many enthusiastic individuals, for free
The only thing we kindly ask in return is that you cite our papers,
We deeply appreciate it, if you show your appreciation for ORCA by not just citing the generic ORCA reference.

Please note that relegating all ORCA citations to the supporting information does *not* help us.
SI sections are not indexed - citations you put there will not count into any citation statistics
But we need these citations in order to attract the funding resources that allow us to do what we are doing

Therefore, if you are a happy ORCA user, please consider citing a few of the papers listed below in the main body of your paper

In addition to the list printed below, the program has created the file rf_mecn_2H2O_opt_B3L_con_002.bibtex that contains the list in bibtex format
You can import this file easily into all common literature databanks and citation aid programs


List of essential papers. We consider these as the minimum necessary citations

  1. Neese,F.
     Software update: the ORCA program system, version 5.0
     WIRES Comput. Molec. Sci., 2022 12(1)e1606
     doi.org/10.1002/wcms.1606

List of papers to cite with high priority. The work reported in these papers was absolutely
necessary for this run to complete.
Our perspective: the developers of density functionals and basis sets usually get cited in chemistry papers
Good! But without the algorithms to do something with them, the functionals or basis sets would not do anything.
Hence, in our opinion, the algorithm design and method developments papers are equally worthy of getting cited

  1. Neese,F.
     An improvement of the resolution of the identity approximation for the formation of the Coulomb matrix
     J. Comp. Chem., 2003 24(14)1740-1747
     doi.org/10.1002/jcc.10318
  2. Neese,F.; Wennmohs,F.; Hansen,A.; Becker,U.
     Efficient, approximate and parallel Hartree-Fock and hybrid DFT calculations. A 'chain-of-spheres' algorithm for the Hartree-Fock exchange
     Chem. Phys., 2009 356(1-3)98-109
     doi.org/10.1016/j.chemphys.2008.10.036
  3. Garcia-Rates,M.; Neese,F.
     Effect of the Solute Cavity on the Solvation Energy and its Derivatives within the Framework of the Gaussian Charge Scheme
     J. Comput. Chem., 2020 41 922-939
     doi.org/10.1002/jcc.26139
  4. Helmich-Paris,B.; de Souza,B.; Neese,F.; Izsák,R.
     An improved chain of spheres for exchange algorithm
     J. Chem. Phys., 2021 155 104109
     doi.org/doi: 10.1063/5.0058766.
  5. Neese,F.
     The SHARK Integral Generation and Digestion System
     J. Comp. Chem., 2022  1-16
     doi.org/10.1002/jcc.26942
  6. Grimme,S.; Antony,J.; Ehrlich,S.; Krieg,H.
     A consistent and accurate ab initio parametrization of density functional dispersion correction (DFT-D) for the 94 elements H-Pu
     J. Chem. Phys., 2010 132 154104
     doi.org/10.1063/1.3382344
  7. Grimme,S.; Ehrlich,S.; Goerigk,L.
     Effect of the damping function in dispersion corrected density functional theory
     J. Comput. Chem., 2011 32(7)1456-1465
     doi.org/10.1002/jcc.21759

List of suggested additional citations. These are papers that are important in the 'surrounding' of 
of this run, or papers that preceded the highly important papers. If you like your results we are grateful for a citation.

  1. Izsak,R.; Neese,F.
     An overlap fitted chain of spheres exchange method
     J. Chem. Phys., 2011 135 144105
     doi.org/10.1063/1.3646921
  2. Izsak,R.; Hansen,A.; Neese,F.
     The resolution of identity and chain of spheres approximations for the LPNO-CCSD singles Fock term
     Molec. Phys., 2012 110 2413-2417
     doi.org/10.1080/00268976.2012.687466
  3. Neese,F.
     The ORCA program system
     WIRES Comput. Molec. Sci., 2012 2(1)73-78
     doi.org/10.1002/wcms.81
  4. Izsak,R.; Neese,F.; Klopper,W.
     Robust fitting techniques in the chain of spheres approximation to the Fock exchange: The role of the complementary space
     J. Chem. Phys., 2013 139 
     doi.org/10.1063/1.4819264
  5. Neese,F.
     Software update: the ORCA program system, version 4.0
     WIRES Comput. Molec. Sci., 2018 8(1)1-6
     doi.org/10.1002/wcms.1327
  6. Neese,F.; Wennmohs,F.; Becker,U.; Riplinger,C.
     The ORCA quantum chemistry program package
     J. Chem. Phys., 2020 152 Art. No. L224108
     doi.org/10.1063/5.0004608

List of optional additional citations

  1. Neese,F.
     Approximate second-order SCF convergence for spin unrestricted wavefunctions
     Chem. Phys. Lett., 2000 325(1-3)93-98
     doi.org/10.1016/s0009-2614(00)00662-x

Timings for individual modules:

Sum of individual times          ...     6054.272 sec (= 100.905 min)
Startup calculation              ...      275.021 sec (=   4.584 min)   4.5 %
SCF iterations                   ...     4137.268 sec (=  68.954 min)  68.3 %
Property calculations            ...        0.926 sec (=   0.015 min)   0.0 %
SCF Gradient evaluation          ...     1639.622 sec (=  27.327 min)  27.1 %
Geometry relaxation              ...        1.435 sec (=   0.024 min)   0.0 %
                             ****ORCA TERMINATED NORMALLY****
TOTAL RUN TIME: 0 days 1 hours 41 minutes 40 seconds 334 msec
