
                                 *****************
                                 * O   R   C   A *
                                 *****************

                                            #,                                       
                                            ###                                      
                                            ####                                     
                                            #####                                    
                                            ######                                   
                                           ########,                                 
                                     ,,################,,,,,                         
                               ,,#################################,,                 
                          ,,##########################################,,             
                       ,#########################################, ''#####,          
                    ,#############################################,,   '####,        
                  ,##################################################,,,,####,       
                ,###########''''           ''''###############################       
              ,#####''   ,,,,##########,,,,          '''####'''          '####       
            ,##' ,,,,###########################,,,                        '##       
           ' ,,###''''                  '''############,,,                           
         ,,##''                                '''############,,,,        ,,,,,,###''
      ,#''                                            '''#######################'''  
     '                                                          ''''####''''         
             ,#######,   #######,   ,#######,      ##                                
            ,#'     '#,  ##    ##  ,#'     '#,    #''#        ,####,   ,####,        
            ##       ##  ##   ,#'  ##            #'  '#       #'       #'  '#        
            ##       ##  #######   ##           ,######,      #####,   #    #        
            '#,     ,#'  ##    ##  '#,     ,#' ,#      #,     #,   #   #,  ,#        
             '#######'   ##     ##  '#######'  #'      '#     '####' # '####'        



                #########################################################
                #                        -***-                          #
                #          Department of theory and spectroscopy        #
                #                                                       #
                #                      Frank Neese                      #
                #                                                       #
                #     Directorship, Architecture, Infrastructure        #
                #                    SHARK, DRIVERS                     #
                #        Core code/Algorithms in most modules           #
                #                                                       #
                #        Max Planck Institute fuer Kohlenforschung      #
                #                Kaiser Wilhelm Platz 1                 #
                #                 D-45470 Muelheim/Ruhr                 #
                #                      Germany                          #
                #                                                       #
                #                  All rights reserved                  #
                #                        -***-                          #
                #########################################################


                         Program Version 6.0.1  -  RELEASE   -


 With contributions from (in alphabetic order):
[Max-Planck-Institut fuer Kohlenforschung]                               
  Daniel Aravena         : Magnetic Suceptibility                        
  Michael Atanasov       : Ab Initio Ligand Field Theory (pilot matlab implementation)
  Alexander A. Auer      : GIAO ZORA, VPT2 properties, NMR spectrum      
  Ute Becker             : All parallelization in ORCA, NUMFREQ, NUMCALC 
  Giovanni Bistoni       : ED, misc. LED, open-shell LED, HFLD           
  Martin Brehm           : Molecular dynamics                            
  Dmytro Bykov           : pre 5.0 version of the SCF Hessian            
  Marcos Casanova-Páez   : Triplet and SCS-CIS(D). UHF-(DLPNO)-IP/EA/STEOM-CCSD. UHF-CVS-IP/STEOM-CCSD   
  Vijay G. Chilkuri      : MRCI spin determinant printing, contributions to CSF-ICE 
  Pauline Colinet        : FMM embedding                                 
  Dipayan Datta          : RHF DLPNO-CCSD density                        
  Achintya Kumar Dutta   : EOM-CC, STEOM-CC                              
  Nicolas Foglia         : Exact transition moments, OPA infrastructure, MCD improvements    
  Dmitry Ganyushin       : Spin-Orbit,Spin-Spin,Magnetic field MRCI      
  Miquel Garcia-Rates    : C-PCM and meta-GGA Hessian, CCSD/C-PCM, Gaussian charge scheme 
  Tiago L. C. Gouveia    : GS-ROHF, GS-ROCIS                             
  Yang Guo               : DLPNO-NEVPT2, F12-NEVPT2, CIM, IAO-localization        
  Andreas Hansen         : Spin unrestricted coupled pair/coupled cluster methods 
  Ingolf Harden          : AUTO-CI MPn and infrastructure                
  Benjamin Helmich-Paris : MC-RPA, TRAH-(SCF,CASSCF), AVAS, COSX integrals, SCF dyn. polar. 
  Lee Huntington         : MR-EOM, pCC                                   
  Robert Izsak           : Overlap fitted RIJCOSX, COSX-SCS-MP3, EOM     
  Riya Kayal             : Wick's Theorem for AUTO-CI, AUTO-CI UHF-CCSDT 
  Emily Kempfer          : AUTO-CI, RHF CISDT and CCSDT                  
  Christian Kollmar      : KDIIS, OOCD, Brueckner-CCSD(T), CCSD density, CASPT2, CASPT2-K, improved NEVPT2 
  Axel Koslowski         : Symmetry handling                             
  Simone Kossmann        : meta-GGA functionals, TD-DFT gradient, OOMP2, (MP2 Hessian; deprecated post 5.0) 
  Lucas Lang             : DCDCAS                                        
  Marvin Lechner         : AUTO-CI (C++ implementation), FIC-MRCC        
  Spencer Leger          : CASSCF response                               
  Dagmar Lenk            : GEPOL surface, SMD, ORCA-2-JSON               
  Dimitrios Liakos       : Extrapolation schemes; Compound Job, initial MDCI parallelization 
  Dimitrios Manganas     : Further ROCIS development; embedding schemes. LFT, Crystal Embedding 
  Dimitrios Pantazis     : SARC Basis sets                               
  Anastasios Papadopoulos: AUTO-CI, single reference methods and gradients 
  Taras Petrenko         : pre 6.0 DFT Hessian and TD-DFT gradient, (ASA, deprecated), ECA, 1-Electron XAS/XES, NRVS 
  Peter Pinski           : DLPNO-MP2, DLPNO-MP2 Gradient                 
  Christoph Reimann      : Effective Core Potentials                     
  Marius Retegan         : Local ZFS, SOC                                
  Christoph Riplinger    : Optimizer, TS searches, QM/MM, DLPNO-CCSD(T), (RO)-DLPNO pert. Triples 
  Michael Roemelt        : Original ROCIS implementation                 
  Masaaki Saitow         : Open-shell DLPNO-CCSD energy and density      
  Barbara Sandhoefer     : DKH picture change effects                    
  Kantharuban Sivalingam : CASSCF convergence/infrastructure, NEVPT2 and variants, FIC-MRCI 
  Bernardo de Souza      : ESD, SOC TD-DFT                               
  Georgi L. Stoychev     : AutoAux, RI-MP2 NMR, DLPNO-MP2 response, X2C  
  Van Anh Tran           : RI-MP2 g-tensors                              
  Willem Van den Heuvel  : Paramagnetic NMR                              
  Zikuan Wang            : NOTCH, Electric field optimization            
  Frank Wennmohs         : Technical directorship and infrastructure     
  Hang Xu                : AUTO-CI-Response properties                   
                                                                         
[FACCTs GmbH]                                                            
  Markus Bursch, Miquel Garcia-Rates, Christoph Riplinger, Bernardo de Souza, Georgi L. Stoychev 
                                                                 
  APM, Basis sets (HGBS, AHGBS, def-TZVP (Ac-Lr), def2-XVPD (La-Lu)), CI-OPT, improved COSX, DLPNO-Multilevel,           
  DOCKER, DRACO, updates on ESD, GOAT, IRC, LR-CPCM, MBIS, meta-GGA TD-DFT gradient, ML-optimized integration grids, 
  MM, NACMEs, nearIR, NEB, NEB-TS, NL-DFT gradient (VV10), 2- and 3-layer-ONIOM, interface openCOSMO-RS, QMMM,   
  Crystal-QMMM, SF, symmetry and pop. for TD-DFT, r2SCAN hybrids, SOLVATOR                                   
                                                                         
[Other institutions]                                                     
  V. Asgeirsson          : NEB                                           
  Christoph Bannwarth    : sTDA-DFT, sTD-DFT, PBEh-3c, B97-3c, D3        
  Sebastian Ehlert       : rSCAN, r2SCAN, r2SCAN-3c, D4, dhf basis sets  
  Marvin Friede          : D4 for Fr, Ra, Ac-Lr                          
  Lars Goerigk           : TD-DFT with DH, B97 family of functionals     
  Stefan Grimme          : VdW corrections, initial TS optimization, DFT functionals, gCP, sTDA/sTD-DF 
  Waldemar Hujo          : DFT-NL                                        
  H. Jonsson             : NEB                                           
  Holger Kruse           : gCP                                           
  Marcel Mueller         : wB97X-3c, vDZP basis set                      
  Hagen Neugebauer       : wr2SCAN                                       
  Tobias Risthaus        : range-separated hybrid DFT                    
  Lukas Wittmann         : regularized MP2, r2SCAN double-hybrids, wr2SCAN        
                                                                         
We gratefully acknowledge several colleagues who have allowed us to      
interface, adapt or use parts of their codes:                            
  Ed Valeev, F. Pavosevic, A. Kumar             : LibInt (2-el integral package), F12 methods 
  Garnet Chan, S. Sharma, J. Yang, R. Olivares  : DMRG                   
  Ulf Ekstrom                                   : XCFun DFT Library      
  Mihaly Kallay                                 : mrcc  (arbitrary order and MRCC methods)
  Frank Weinhold                                : gennbo (NPA and NBO analysis)           
  Simon Mueller                                 : openCOSMO-RS                            
  Christopher J. Cramer and Donald G. Truhlar   : smd solvation model                     
  S Lehtola, MJT Oliveira, MAL Marques          : LibXC Library                           
  Liviu Ungur et al                             : ANISO software                          


 Your calculation uses the libint2 library for the computation of 2-el integrals
 For citations please refer to: http://libint.valeyev.net

 Your ORCA version has been built with support for libXC version: 6.2.2
 For citations please refer to: https://libxc.gitlab.io

 This ORCA versions uses:
   CBLAS   interface :  Fast vector & matrix operations
   LAPACKE interface :  Fast linear algebra routines
   SCALAPACK package :  Parallel linear algebra routines
   Shared memory     :  Shared parallel matrices
   BLAS/LAPACK       :  OpenBLAS 0.3.27  USE64BITINT DYNAMIC_ARCH NO_AFFINITY SkylakeX SINGLE_THREADED
        Core in use  :  SkylakeX
   Copyright (c) 2011-2014, The OpenBLAS Project


NOTE: MaxCore=8000 MB was set to SCF,MP2,MDCI,CIPSI,MRCI and CIS
      => If you want to overwrite this, your respective input block should be placed after the MaxCore statement
Your calculation utilizes the atom-pairwise dispersion correction
with the Becke-Johnson damping scheme (D3BJ)


Your calculation utilizes the SMD solvation module
Please cite in your paper:
A.V. Marenich, C.J. Cramer, D.G. Truhlar J. Phys. Chem. B, 113, (2009), 6378 

Warning: RI is on but no J-basis has been assigned. Assigning Def2/J (nothing to worry about!)
================================================================================

----- Orbital basis set information -----
Your calculation utilizes the basis: def2-TZVP
   F. Weigend and R. Ahlrichs, Phys. Chem. Chem. Phys. 7, 3297 (2005).

----- AuxJ basis set information -----
Your calculation utilizes the auxiliary basis: def2/J
   F. Weigend, Phys. Chem. Chem. Phys. 8, 1057 (2006).

================================================================================
                                        WARNINGS
                       Please study these warnings very carefully!
================================================================================


WARNING: your system is open-shell and RHF/RKS was chosen
  ===> : WILL SWITCH to UHF/UKS


================================================================================
                                       INPUT FILE
================================================================================
NAME = rf_mecn_2H2O_freq_B3L_sw_04.inp
|  1> !B3LYP def2-TZVP freq d3 TightSCF SlowConv defgrid2
|  2>  
|  3> %pal
|  4> nprocs 20
|  5> end
|  6>  
|  7> %scf
|  8> MaxIter 1500
|  9> end
| 10>  
| 11> %maxcore 8000
| 12>  
| 13> !CPCM
| 14> %cpcm smd true
| 15> SMDsolvent "ACETONITRILE"
| 16> end
| 17>  
| 18> * xyz -2 2
| 19> 6        7.304944000     27.826916000      2.876307000
| 20> 6        6.821774000     26.367216000      3.068721000
| 21> 6        7.234358000     25.214473000      2.100144000
| 22> 6        6.798287000     23.702254000      2.193391000
| 23> 6        7.200063000     22.527268000      1.235361000
| 24> 6        6.756855000     21.042093000      1.445379000
| 25> 6        7.072849000     19.954956000      0.372822000
| 26> 6        6.728697000     18.497338000      0.827699000
| 27> 9        6.897401000     28.312422000      1.694271000
| 28> 9        8.643221000     27.898409000      2.926982000
| 29> 9        6.827953000     28.666891000      3.833407000
| 30> 9        7.239302000     26.011347000      4.326413000
| 31> 9        5.451597000     26.436624000      3.060162000
| 32> 9        6.811598000     25.636736000      0.847268000
| 33> 9        8.619868000     25.200659000      2.133030000
| 34> 9        7.222351000     23.294790000      3.454724000
| 35> 9        5.411138000     23.737410000      2.166159000
| 36> 9        6.750591000     22.891641000     -0.015160000
| 37> 9        8.578294000     22.512745000      1.220156000
| 38> 9        7.316942000     20.622868000      2.620126000
| 39> 9        5.397611000     21.040894000      1.607127000
| 40> 9        6.379781000     20.276465000     -0.761539000
| 41> 9        8.402936000     20.053110000      0.055796000
| 42> 8        7.645908000     17.876501000      1.399817000
| 43> 8        5.562850000     18.122955000      0.595759000
| 44> 8        3.371463000     19.039758000     -0.800893000
| 45> 1        2.715974000     18.432956000     -0.436916000
| 46> 1        4.207002000     18.802902000     -0.341339000
| 47> 1        9.195022000     18.495951000      2.002263000
| 48> 8       10.052275000     18.783899000      2.389268000
| 49> 1       10.085310000     19.730391000      2.207517000
| 50> *
| 51> 
| 52>                          ****END OF INPUT****
================================================================================

                       ****************************
                       * Single Point Calculation *
                       ****************************

---------------------------------
CARTESIAN COORDINATES (ANGSTROEM)
---------------------------------
  C      7.304944   27.826916    2.876307
  C      6.821774   26.367216    3.068721
  C      7.234358   25.214473    2.100144
  C      6.798287   23.702254    2.193391
  C      7.200063   22.527268    1.235361
  C      6.756855   21.042093    1.445379
  C      7.072849   19.954956    0.372822
  C      6.728697   18.497338    0.827699
  F      6.897401   28.312422    1.694271
  F      8.643221   27.898409    2.926982
  F      6.827953   28.666891    3.833407
  F      7.239302   26.011347    4.326413
  F      5.451597   26.436624    3.060162
  F      6.811598   25.636736    0.847268
  F      8.619868   25.200659    2.133030
  F      7.222351   23.294790    3.454724
  F      5.411138   23.737410    2.166159
  F      6.750591   22.891641   -0.015160
  F      8.578294   22.512745    1.220156
  F      7.316942   20.622868    2.620126
  F      5.397611   21.040894    1.607127
  F      6.379781   20.276465   -0.761539
  F      8.402936   20.053110    0.055796
  O      7.645908   17.876501    1.399817
  O      5.562850   18.122955    0.595759
  O      3.371463   19.039758   -0.800893
  H      2.715974   18.432956   -0.436916
  H      4.207002   18.802902   -0.341339
  H      9.195022   18.495951    2.002263
  O     10.052275   18.783899    2.389268
  H     10.085310   19.730391    2.207517

----------------------------
CARTESIAN COORDINATES (A.U.)
----------------------------
  NO LB      ZA    FRAG     MASS         X           Y           Z
   0 C     6.0000    0    12.011   13.804344   52.585250    5.435433
   1 C     6.0000    0    12.011   12.891285   49.826817    5.799042
   2 C     6.0000    0    12.011   13.670955   47.648449    3.968697
   3 C     6.0000    0    12.011   12.846901   44.790769    4.144908
   4 C     6.0000    0    12.011   13.606147   42.570367    2.334494
   5 C     6.0000    0    12.011   12.768605   39.763793    2.731370
   6 C     6.0000    0    12.011   13.365748   37.709402    0.704531
   7 C     6.0000    0    12.011   12.715395   34.954903    1.564124
   8 F     9.0000    0    18.998   13.034199   53.502724    3.201708
   9 F     9.0000    0    18.998   16.333321   52.720353    5.531194
  10 F     9.0000    0    18.998   12.902961   54.172573    7.244089
  11 F     9.0000    0    18.998   13.680298   49.154322    8.175736
  12 F     9.0000    0    18.998   10.302025   49.957979    5.782868
  13 F     9.0000    0    18.998   12.872055   48.446410    1.601104
  14 F     9.0000    0    18.998   16.289190   47.622344    4.030843
  15 F     9.0000    0    18.998   13.648265   44.020773    6.528482
  16 F     9.0000    0    18.998   10.225569   44.857204    4.093447
  17 F     9.0000    0    18.998   12.756768   43.258932   -0.028648
  18 F     9.0000    0    18.998   16.210626   42.542923    2.305761
  19 F     9.0000    0    18.998   13.827017   38.971573    4.951321
  20 F     9.0000    0    18.998   10.200007   39.761527    3.037030
  21 F     9.0000    0    18.998   12.056039   38.316966   -1.439100
  22 F     9.0000    0    18.998   15.879248   37.894886    0.105439
  23 O     8.0000    0    15.999   14.448672   33.781691    2.645271
  24 O     8.0000    0    15.999   10.512263   34.247422    1.125821
  25 O     8.0000    0    15.999    6.371142   35.979928   -1.513468
  26 H     1.0000    0     1.008    5.132447   34.833239   -0.825652
  27 H     1.0000    0     1.008    7.950082   35.532335   -0.645037
  28 H     1.0000    0     1.008   17.376073   34.952282    3.783729
  29 O     8.0000    0    15.999   18.996047   35.496425    4.515062
  30 H     1.0000    0     1.008   19.058474   37.285036    4.171603

--------------------------------
INTERNAL COORDINATES (ANGSTROEM)
--------------------------------
 C      0   0   0     0.000000000000     0.00000000     0.00000000
 C      1   0   0     1.549580745330     0.00000000     0.00000000
 C      2   1   0     1.561148098687   122.41994548     0.00000000
 C      3   2   1     1.576597356338   126.75899336   180.38896829
 C      4   3   2     1.568386921417   127.70491958   180.08029313
 C      5   4   3     1.564060635721   123.83271618   177.53376437
 C      6   5   4     1.559518381762   120.80864093   173.66643467
 C      7   6   5     1.565248835859   113.87521376   172.29489742
 F      1   2   3     1.341274199476   110.83427073    60.38547845
 F      1   2   3     1.341142995136   110.89547893   299.81693409
 F      1   2   3     1.359823085812   112.65049884   180.06463631
 F      2   1   3     1.372137581589   105.26272461   122.52723567
 F      2   1   3     1.371960545451   105.24642147   237.43200685
 F      3   2   1     1.388067120187   104.76654874   302.64544229
 F      3   2   1     1.385969074580   104.88223435    57.60657699
 F      4   3   2     1.391696132164   104.48647155   302.37023128
 F      4   3   2     1.387861619313   104.53614684    57.13138809
 F      5   4   3     1.377895327430   105.82476965   300.28577780
 F      5   4   3     1.378391380891   105.71028162    55.37904720
 F      6   5   4     1.367288397597   106.88410815   296.27646303
 F      6   5   4     1.368834578991   107.34251762    51.65963975
 F      7   6   5     1.367657182201   107.69067114   295.06334637
 F      7   6   5     1.370865099111   107.80220661    49.54796673
 O      8   7   6     1.246608842025   115.80914878   269.69371755
 O      8   7   6     1.246257606475   115.55313324    88.14346741
 O     25   8   7     2.755601846001   137.58837720     9.14838942
 H     26  25   8     0.964548470972    98.04034307   192.80164623
 H     26  25   8     0.982555883486     6.52831297     2.57412933
 H     24   8   7     1.773813313292   128.64651494    10.90042427
 O     29  24   8     0.983651171269   175.52802896   151.23791121
 H     30  29  24     0.964350477415   104.06462076   208.63659699

---------------------------
INTERNAL COORDINATES (A.U.)
---------------------------
 C      0   0   0     0.000000000000     0.00000000     0.00000000
 C      1   0   0     2.928283231070     0.00000000     0.00000000
 C      2   1   0     2.950142361010   122.41994548     0.00000000
 C      3   2   1     2.979337226942   126.75899336   180.38896829
 C      4   3   2     2.963821753502   127.70491958   180.08029313
 C      5   4   3     2.955646258360   123.83271618   177.53376437
 C      6   5   4     2.947062642346   120.80864093   173.66643467
 C      7   6   5     2.957891631212   113.87521376   172.29489742
 F      1   2   3     2.534640907505   110.83427073    60.38547845
 F      1   2   3     2.534392967234   110.89547893   299.81693409
 F      1   2   3     2.569693222767   112.65049884   180.06463631
 F      2   1   3     2.592964247264   105.26272461   122.52723567
 F      2   1   3     2.592629697447   105.24642147   237.43200685
 F      3   2   1     2.623066712655   104.76654874   302.64544229
 F      3   2   1     2.619101981040   104.88223435    57.60657699
 F      4   3   2     2.629924551428   104.48647155   302.37023128
 F      4   3   2     2.622678372281   104.53614684    57.13138809
 F      5   4   3     2.603844810053   105.82476965   300.28577780
 F      5   4   3     2.604782215242   105.71028162    55.37904720
 F      6   5   4     2.583800617546   106.88410815   296.27646303
 F      6   5   4     2.586722476934   107.34251762    51.65963975
 F      7   6   5     2.584497519450   107.69067114   295.06334637
 F      7   6   5     2.590559603871   107.80220661    49.54796673
 O      8   7   6     2.355749307551   115.80914878   269.69371755
 O      8   7   6     2.355085568555   115.55313324    88.14346741
 O     25   8   7     5.207332823069   137.58837720     9.14838942
 H     26  25   8     1.822732453029    98.04034307   192.80164623
 H     26  25   8     1.856761531062     6.52831297     2.57412933
 H     24   8   7     3.352021374825   128.64651494    10.90042427
 O     29  24   8     1.858831325008   175.52802896   151.23791121
 H     30  29  24     1.822358299430   104.06462076   208.63659699

---------------------
BASIS SET INFORMATION
---------------------
There are 4 groups of distinct atoms

 Group   1 Type C   : 11s6p2d1f contracted to 5s3p2d1f pattern {62111/411/11/1}
 Group   2 Type F   : 11s6p2d1f contracted to 5s3p2d1f pattern {62111/411/11/1}
 Group   3 Type O   : 11s6p2d1f contracted to 5s3p2d1f pattern {62111/411/11/1}
 Group   4 Type H   : 5s1p contracted to 3s1p pattern {311/1}

Atom   0C    basis set group =>   1
Atom   1C    basis set group =>   1
Atom   2C    basis set group =>   1
Atom   3C    basis set group =>   1
Atom   4C    basis set group =>   1
Atom   5C    basis set group =>   1
Atom   6C    basis set group =>   1
Atom   7C    basis set group =>   1
Atom   8F    basis set group =>   2
Atom   9F    basis set group =>   2
Atom  10F    basis set group =>   2
Atom  11F    basis set group =>   2
Atom  12F    basis set group =>   2
Atom  13F    basis set group =>   2
Atom  14F    basis set group =>   2
Atom  15F    basis set group =>   2
Atom  16F    basis set group =>   2
Atom  17F    basis set group =>   2
Atom  18F    basis set group =>   2
Atom  19F    basis set group =>   2
Atom  20F    basis set group =>   2
Atom  21F    basis set group =>   2
Atom  22F    basis set group =>   2
Atom  23O    basis set group =>   3
Atom  24O    basis set group =>   3
Atom  25O    basis set group =>   3
Atom  26H    basis set group =>   4
Atom  27H    basis set group =>   4
Atom  28H    basis set group =>   4
Atom  29O    basis set group =>   3
Atom  30H    basis set group =>   4
---------------------------------
AUXILIARY/J BASIS SET INFORMATION
---------------------------------
There are 4 groups of distinct atoms

 Group   1 Type C   : 12s5p4d2f1g contracted to 6s4p3d1f1g pattern {711111/2111/211/2/1}
 Group   2 Type F   : 12s5p4d2f1g contracted to 6s4p3d1f1g pattern {711111/2111/211/2/1}
 Group   3 Type O   : 12s5p4d2f1g contracted to 6s4p3d1f1g pattern {711111/2111/211/2/1}
 Group   4 Type H   : 5s2p1d contracted to 3s1p1d pattern {311/2/1}

Atom   0C    basis set group =>   1
Atom   1C    basis set group =>   1
Atom   2C    basis set group =>   1
Atom   3C    basis set group =>   1
Atom   4C    basis set group =>   1
Atom   5C    basis set group =>   1
Atom   6C    basis set group =>   1
Atom   7C    basis set group =>   1
Atom   8F    basis set group =>   2
Atom   9F    basis set group =>   2
Atom  10F    basis set group =>   2
Atom  11F    basis set group =>   2
Atom  12F    basis set group =>   2
Atom  13F    basis set group =>   2
Atom  14F    basis set group =>   2
Atom  15F    basis set group =>   2
Atom  16F    basis set group =>   2
Atom  17F    basis set group =>   2
Atom  18F    basis set group =>   2
Atom  19F    basis set group =>   2
Atom  20F    basis set group =>   2
Atom  21F    basis set group =>   2
Atom  22F    basis set group =>   2
Atom  23O    basis set group =>   3
Atom  24O    basis set group =>   3
Atom  25O    basis set group =>   3
Atom  26H    basis set group =>   4
Atom  27H    basis set group =>   4
Atom  28H    basis set group =>   4
Atom  29O    basis set group =>   3
Atom  30H    basis set group =>   4


           ************************************************************
           *        Program running with 20 parallel MPI-processes    *
           *              working on a common directory               *
           ************************************************************
------------------------------------------------------------------------------
                             ORCA STARTUP CALCULATIONS
                           -- RI-GTO INTEGRALS CHOSEN --
------------------------------------------------------------------------------
------------------------------------------------------------------------------
                   ___                                                        
                  /   \      - P O W E R E D   B Y -                         
                 /     \                                                     
                 |  |  |   _    _      __       _____    __    __             
                 |  |  |  | |  | |    /  \     |  _  \  |  |  /  |          
                  \  \/   | |  | |   /    \    | | | |  |  | /  /          
                 / \  \   | |__| |  /  /\  \   | |_| |  |  |/  /          
                |  |  |   |  __  | /  /__\  \  |    /   |      \           
                |  |  |   | |  | | |   __   |  |    \   |  |\   \          
                \     /   | |  | | |  |  |  |  | |\  \  |  | \   \       
                 \___/    |_|  |_| |__|  |__|  |_| \__\ |__|  \__/        
                                                                              
                      - O R C A' S   B I G   F R I E N D -                    
                                      &                                       
                       - I N T E G R A L  F E E D E R -                       
                                                                              
 v1 FN, 2020, v2 2021, v3 2022-2024                                           
------------------------------------------------------------------------------


----------------------
SHARK INTEGRAL PACKAGE
----------------------

Number of atoms                             ...     31
Number of basis functions                   ...    861
Number of shells                            ...    313
Maximum angular momentum                    ...      3
Integral batch strategy                     ... SHARK/LIBINT Hybrid
RI-J (if used) integral strategy            ... SPLIT-RIJ (Revised 2003 algorithm where possible)
Printlevel                                  ...      1
Contraction scheme used                     ... SEGMENTED contraction
Prescreening option                         ... SCHWARTZ
   Thresh                                   ... 2.500e-11
   Tcut                                     ... 2.500e-12
   Tpresel                                  ... 2.500e-12 
Coulomb Range Separation                    ... NOT USED
Exchange Range Separation                   ... NOT USED
Multipole approximations                    ... NOT USED
Finite Nucleus Model                        ... NOT USED
CABS basis                                  ... NOT available
Auxiliary Coulomb fitting basis             ... AVAILABLE
   # of basis functions in Aux-J            ...   1367
   # of shells in Aux-J                     ...    425
   Maximum angular momentum in Aux-J        ...      4
Auxiliary J/K fitting basis                 ... NOT available
Auxiliary Correlation fitting basis         ... NOT available
Auxiliary 'external' fitting basis          ... NOT available

Checking pre-screening integrals            ... done (  0.0 sec) Dimension = 313
Check shell pair data                       ... done (  0.0 sec)
Shell pair information
Shell pair cut-off parameter TPreSel        ...   2.5e-12
Total number of shell pairs                 ...     49141
Shell pairs after pre-screening             ...     27514
Total number of primitive shell pairs       ...    159936
Primitive shell pairs kept                  ...     56984
          la=0 lb=0:   5554 shell pairs
          la=1 lb=0:   7711 shell pairs
          la=1 lb=1:   2578 shell pairs
          la=2 lb=0:   4018 shell pairs
          la=2 lb=1:   2822 shell pairs
          la=2 lb=2:    759 shell pairs
          la=3 lb=0:   1824 shell pairs
          la=3 lb=1:   1366 shell pairs
          la=3 lb=2:    716 shell pairs
          la=3 lb=3:    166 shell pairs

Calculating one electron integrals          ... done (  0.1 sec)
Calculating RI/J V-Matrix + Cholesky decomp.... done (  0.1 sec)
Calculating Nuclear repulsion               ... done (  0.0 sec) ENN=   3212.781680106019 Eh

Diagonalization of the overlap matrix:
Smallest eigenvalue                        ... 9.676e-05
Time for diagonalization                   ...    0.186 sec
Threshold for overlap eigenvalues          ... 1.000e-07
Number of eigenvalues below threshold      ... 0
Time for construction of square roots      ...    0.072 sec
Total time needed                          ...    0.270 sec

-------------------
DFT GRID GENERATION
-------------------

General Integration Accuracy     IntAcc      ... 4.388
Radial Grid Type                 RadialGrid  ... OptM3 with GC (2021)
Angular Grid (max. ang.)         AngularGrid ... 4 (Lebedev-302)
Angular grid pruning method      GridPruning ... 4 (adaptive)
Weight generation scheme         WeightScheme... mBecke (2022)
Basis function cutoff            BFCut       ... 1.0000e-11
Integration weight cutoff        WCut        ... 1.0000e-14
Partially contracted basis set               ... off
Rotationally invariant grid construction     ... off
Angular grids for H and He will be reduced by one unit

Total number of grid points                  ...   176636
Total number of batches                      ...     2774
Average number of points per batch           ...       63
Average number of grid points per atom       ...     5698

--------------------
COSX GRID GENERATION
--------------------

GRIDX 1
-------
General Integration Accuracy     IntAcc      ... 3.816
Radial Grid Type                 RadialGrid  ... OptM3 with GC (2021)
Angular Grid (max. ang.)         AngularGrid ... 1 (Lebedev-50)
Angular grid pruning method      GridPruning ... 4 (adaptive)
Weight generation scheme         WeightScheme... mBecke (2022)
Basis function cutoff            BFCut       ... 1.0000e-11
Integration weight cutoff        WCut        ... 1.0000e-14
Partially contracted basis set               ... on
Rotationally invariant grid construction     ... off
Angular grids for H and He will be reduced by one unit

Total number of grid points                  ...    22227
Total number of batches                      ...      187
Average number of points per batch           ...      118
Average number of grid points per atom       ...      717
UseSFitting                                  ... on

GRIDX 2
-------
General Integration Accuracy     IntAcc      ... 4.020
Radial Grid Type                 RadialGrid  ... OptM3 with GC (2021)
Angular Grid (max. ang.)         AngularGrid ... 2 (Lebedev-110)
Angular grid pruning method      GridPruning ... 4 (adaptive)
Weight generation scheme         WeightScheme... mBecke (2022)
Basis function cutoff            BFCut       ... 1.0000e-11
Integration weight cutoff        WCut        ... 1.0000e-14
Partially contracted basis set               ... on
Rotationally invariant grid construction     ... off
Angular grids for H and He will be reduced by one unit

Total number of grid points                  ...    51589
Total number of batches                      ...      415
Average number of points per batch           ...      124
Average number of grid points per atom       ...     1664
UseSFitting                                  ... on

GRIDX 3
-------
General Integration Accuracy     IntAcc      ... 4.338
Radial Grid Type                 RadialGrid  ... OptM3 with GC (2021)
Angular Grid (max. ang.)         AngularGrid ... 3 (Lebedev-194)
Angular grid pruning method      GridPruning ... 4 (adaptive)
Weight generation scheme         WeightScheme... mBecke (2022)
Basis function cutoff            BFCut       ... 1.0000e-11
Integration weight cutoff        WCut        ... 1.0000e-14
Partially contracted basis set               ... on
Rotationally invariant grid construction     ... off
Angular grids for H and He will be reduced by one unit

Total number of grid points                  ...   114127
Total number of batches                      ...      905
Average number of points per batch           ...      126
Average number of grid points per atom       ...     3682
UseSFitting                                  ... on
Initializing property integral containers    ... done (  0.0 sec)

SHARK setup successfully completed in   3.7 seconds

Maximum memory used throughout the entire STARTUP-calculation: 68.3 MB


           ************************************************************
           *        Program running with 20 parallel MPI-processes    *
           *              working on a common directory               *
           ************************************************************
-------------------------------------------------------------------------------
                                 ORCA GUESS
                   Start orbitals & Density for SCF / CASSCF
-------------------------------------------------------------------------------

------------
SCF SETTINGS
------------
Hamiltonian:
 Density Functional     Method          .... DFT(GTOs)
 Exchange Functional    Exchange        .... B88
   X-Alpha parameter    XAlpha          ....  0.666667
   Becke's b parameter  XBeta           ....  0.004200
 Correlation Functional Correlation     .... LYP
 LDA part of GGA corr.  LDAOpt          .... VWN-5
 Gradients option       PostSCFGGA      .... off
 Hybrid DFT is turned on
   Fraction HF Exchange ScalHFX         ....  0.200000
   Scaling of DF-GGA-X  ScalDFX         ....  0.720000
   Scaling of DF-GGA-C  ScalDFC         ....  0.810000
   Scaling of DF-LDA-C  ScalLDAC        ....  1.000000
   Perturbative correction              ....  0.000000
   NL short-range parameter             ....  4.800000
 RI-approximation to the Coulomb term is turned on
   Number of AuxJ basis functions       .... 1367
   RIJ-COSX (HFX calculated with COS-X)).... on


General Settings:
 Integral files         IntName         .... rf_mecn_2H2O_freq_B3L_sw_04
 Hartree-Fock type      HFTyp           .... UHF
 Total Charge           Charge          ....   -2
 Multiplicity           Mult            ....    2
 Number of Electrons    NEL             ....  221
 Basis Dimension        Dim             ....  861
 Nuclear Repulsion      ENuc            ....   3212.7816801060 Eh

Convergence Acceleration:
 AO-DIIS                CNVDIIS         .... on
   Start iteration      DIISMaxIt       ....     0
   Startup error        DIISStart       ....  0.200000
   # of expansion vecs  DIISMaxEq       ....     5
   Bias factor          DIISBfac        ....   1.050
   Max. coefficient     DIISMaxC        ....  10.000
 MO-DIIS                CNVKDIIS        .... off
 Trust-Rad. Augm. Hess. CNVTRAH         .... auto
   Auto Start mean grad. ratio tolernc. ....  1.125000
   Auto Start start iteration           ....    50
   Auto Start num. interpolation iter.  ....    10
   Max. Number of Micro iterations      ....    24
   Max. Number of Macro iterations      .... Maxiter - #DIIS iter
   Number of Davidson start vectors     ....     2
   Converg. threshold    (grad. norm)   ....   1.000e-05
   Grad. Scal. Fac. for Micro threshold ....   0.100
   Minimum threshold for Micro iter.    ....   1.000e-02
   NR start threshold (gradient norm)   ....   1.000e-04
   Initial trust radius                 ....   0.400
   Minimum AH scaling param. (alpha)    ....   1.000
   Maximum AH scaling param. (alpha)    .... 1000.000
   Quad. conv. algorithm                .... NR
   White noise on init. David. guess    .... on
   Maximum white noise                  ....   0.010
   Pseudo random numbers                .... off
   Inactive MOs                         .... canonical
   Orbital update algorithm             .... Taylor
   Preconditioner                       .... Diag
   Full preconditioner red. dimension   ....   250
 SOSCF                  CNVSOSCF        .... on
   Start iteration      SOSCFMaxIt      ....   150
   Startup grad/error   SOSCFStart      ....  0.001000
   Hessian update       SOSCFHessUp     .... L-BFGS
 Level Shifting         CNVShift        .... on
   Level shift para.    LevelShift      ....    0.2500
   Turn off err/grad.   ShiftErr        ....    0.0000
 Zerner damping         CNVZerner       .... off
 Static damping         CNVDamp         .... on
   Fraction old density DampFac         ....    0.8500
   Max. Damping (<1)    DampMax         ....    0.9800
   Min. Damping (>=0)   DampMin         ....    0.0000
   Turn off err/grad.   DampErr         ....    0.0300

SCF Procedure:
 Maximum # iterations   MaxIter         ....  1500
 SCF integral mode      SCFMode         .... Direct
   Integral package                     .... SHARK and LIBINT hybrid scheme
 Reset frequency        DirectResetFreq ....    20
 Integral Threshold     Thresh          ....  2.500e-11 Eh
 Primitive CutOff       TCut            ....  2.500e-12 Eh

Convergence Tolerance:
 Convergence Check Mode ConvCheckMode   .... Total+1el-Energy
 Convergence forced     ConvForced      .... 0
 Energy Change          TolE            ....  1.000e-08 Eh
 1-El. energy change                    ....  1.000e-05 Eh
 Orbital Gradient       TolG            ....  1.000e-05
 Orbital Rotation angle TolX            ....  1.000e-05
 DIIS Error             TolErr          ....  5.000e-07

------------------------------
INITIAL GUESS: MODEL POTENTIAL
------------------------------
Loading Hartree-Fock densities                     ... done
Calculating cut-offs                               ... done
Initializing the effective Hamiltonian             ... done
Setting up the integral package (SHARK)            ... done
Starting the Coulomb interaction                   ... done (   0.2 sec)
Making the grid                                    ... done (   0.5 sec)
Mapping shells                                     ... done
Starting the XC term evaluation                    ... done (   0.1 sec)
  promolecular density results
     # of electrons  =    218.995573632
     EX              =   -225.805152256
     EC              =     -8.173281117
     EX+EC           =   -233.978433373
Transforming the Hamiltonian                       ... done (   0.1 sec)
Diagonalizing the Hamiltonian                      ... done (   0.2 sec)
Back transforming the eigenvectors                 ... done (   0.1 sec)
Now organizing SCF variables                       ... done
                      ------------------
                      INITIAL GUESS DONE (   1.3 sec)
                      ------------------
             **** ENERGY FILE WAS UPDATED (rf_mecn_2H2O_freq_B3L_sw_04.en.tmp) ****
Finished Guess after   2.0 sec
Maximum memory used throughout the entire GUESS-calculation: 57.2 MB


           ************************************************************
           *        Program running with 20 parallel MPI-processes    *
           *              working on a common directory               *
           ************************************************************

-------------------------------------------------------------------------------------------
                                      ORCA LEAN-SCF
                              memory conserving SCF solver
-------------------------------------------------------------------------------------------

--------------------
CPCM SOLVATION MODEL
--------------------
CPCM parameters:
  Epsilon                                         ...      35.6880
  Refrac                                          ...       1.3442
  Rsolv                                           ...       1.3000
  Surface type                                    ... GAUSSIAN VDW
  Discretization scheme                           ... Constant charge density
    Threshold for H atoms                         ...       5.0000 (charges/Ang^2)
    Threshold for non-H atoms                     ...       5.0000 (charges/Ang^2)
  Epsilon function type                           ...         CPCM
Solvent:                                          ... ACETONITRILE
SMD-CDS solvent descriptors:
  Soln                                            ...       1.3442
  Soln25                                          ...       1.3416
  Sola                                            ...       0.0700
  Solb                                            ...       0.3200
  Solg                                            ...      41.2500
  Solc                                            ...       0.0000
  Solh                                            ...       0.0000
Radii:
  Scheme                                          ... Element-dependent radii
  Radius for C  used is    3.4960 Bohr (=   1.8500 Ang.)
  Radius for F  used is    3.2692 Bohr (=   1.7300 Ang.)
  Radius for O  used is    4.0969 Bohr (=   2.1680 Ang.)
  Radius for H  used is    2.2677 Bohr (=   1.2000 Ang.)
Calculating surface                               ...        done! (  0.0s)
Cavity surface points                             ...         2704
Cavity Volume                                     ...    2658.2077
Cavity Surface-area                               ...    1371.5416
Calculating surface distance matrix               ...        done! (  0.1s)
Performing Cholesky decomposition & store         ...        done! (  0.2s)
Overall time for CPCM initialization              ...                 0.2s

----------------------------------------D-I-I-S--------------------------------------------
Iteration    Energy (Eh)           Delta-E    RMSDP     MaxDP     DIISErr   Damp  Time(sec)
-------------------------------------------------------------------------------------------
               ***  Starting incremental Fock matrix formation  ***
    1    -2105.1396804995151797     0.00e+00  5.55e-04  1.06e-01  1.92e-01  0.850   8.8
Warning: op=0 Small HOMO/LUMO gap (   0.004) - skipping pre-diagonalization
         Will do a full diagonalization
    2    -2105.4319537371934530    -2.92e-01  7.56e-04  1.84e-01  1.30e-01  0.850   5.9
                               ***Turning on AO-DIIS***
    3    -2105.5925137876306508    -1.61e-01  5.04e-04  1.21e-01  7.82e-02  0.850   5.2
    4    -2105.6880730453826800    -9.56e-02  3.57e-04  8.86e-02  5.76e-02  0.850   5.1
    5    -2105.7558120113949371    -6.77e-02  2.59e-04  5.74e-02  4.56e-02  0.850   5.1
    6    -2105.8089341997197153    -5.31e-02  1.94e-04  3.59e-02  3.75e-02  0.850   5.1
    7    -2105.8524587960514509    -4.35e-02  1.52e-04  2.24e-02  3.15e-02  0.850   5.0
    8    -2105.8887427491076778    -3.63e-02  1.24e-04  1.70e-02  2.67e-02  0.850   4.8
    9    -2105.9191418125997188    -3.04e-02  6.90e-04  9.85e-02  2.23e-02  0.000   4.8
   10    -2106.0840667455845505    -1.65e-01  5.11e-05  9.52e-03  3.17e-03  0.000   5.3
   11    -2106.0843794906263611    -3.13e-04  5.12e-05  1.11e-02  1.06e-03  0.000   4.6
                              *** Initializing SOSCF ***
---------------------------------------S-O-S-C-F--------------------------------------
Iteration    Energy (Eh)           Delta-E    RMSDP     MaxDP     MaxGrad    Time(sec)
--------------------------------------------------------------------------------------
   12    -2106.0844579880717902    -7.85e-05  3.28e-05  7.83e-03  7.00e-04     5.0
               *** Restarting incremental Fock matrix formation ***
   13    -2106.0844597624841299    -1.77e-06  6.13e-05  1.63e-02  1.44e-03     8.4
   14    -2106.0844959599348840    -3.62e-05  4.71e-05  1.27e-02  4.46e-04     6.6
   15    -2106.0844963166923662    -3.57e-07  1.68e-05  4.39e-03  4.37e-04     6.6
   16    -2106.0845050464172346    -8.73e-06  4.74e-06  1.07e-03  1.31e-04     6.1
   17    -2106.0845045528099035     4.94e-07  2.60e-06  6.27e-04  2.14e-04     5.5
   18    -2106.0845054548858570    -9.02e-07  1.31e-06  2.90e-04  2.98e-05     5.4
   19    -2106.0845054039114075     5.10e-08  7.30e-07  1.65e-04  3.02e-05     4.6
   20    -2106.0845055040886109    -1.00e-07  3.02e-07  9.13e-05  3.11e-06     4.3
   21    -2106.0845054943015384     9.79e-09  1.03e-07  2.35e-05  3.41e-06     3.9
                 **** Energy Check signals convergence ****

               *****************************************************
               *                     SUCCESS                       *
               *           SCF CONVERGED AFTER  21 CYCLES          *
               *****************************************************

Recomputing exchange energy using gridx3       ... done (   11.238 sec)
Old exchange energy                            :    -45.413994772 Eh
New exchange energy                            :    -45.414086135 Eh
Exchange energy change after final integration :     -0.000091363 Eh
Total energy after final integration           :  -2106.084596857 Eh

SMD CDS free energy correction energy :                 2.89400     Kcal/mol
Total Energy after SMD CDS correction =             -2106.079984970 Eh
             **** ENERGY FILE WAS UPDATED (rf_mecn_2H2O_freq_B3L_sw_04.en.tmp) ****

----------------
TOTAL SCF ENERGY
----------------

Total Energy       :      -2106.07998497012068 Eh          -57309.34994 eV

Components:
Nuclear Repulsion  :       3212.78168010601939 Eh           87424.23408 eV
Electronic Energy  :      -5318.64212500588019 Eh         -144727.61003 eV
One Electron Energy:      -9382.23300666546129 Eh         -255303.53949 eV
Two Electron Energy:       4063.59088165958110 Eh          110575.92946 eV
CPCM Dielectric    :         -0.22406059444048 Eh              -6.09700 eV
SMD CDS (Gcds)     :          0.00461188712572 Eh               0.12550 eV

Virial components:
Potential Energy   :      -4205.02833215112787 Eh         -114424.63815 eV
Kinetic Energy     :       2098.94834718100719 Eh           57115.28821 eV
Virial Ratio       :          2.00339771952878

DFT components:
N(Alpha)           :      111.000008464945 electrons
N(Beta)            :      110.000010639057 electrons
N(Total)           :      221.000019104002 electrons
E(X)               :     -181.040919172724 Eh       
E(C)               :       -9.639678488535 Eh       
E(XC)              :     -190.680597661259 Eh       

CPCM Solvation Model Properties:
Surface-charge          :          1.98869472207688
Corrected charge        :          2.00000000000000
Outlying charge corr.   :          0.00000634212599 Eh               0.00017 eV
Free-energy (cav+disp)  :          0.00461188712572 Eh               0.12550 eV

---------------
SCF CONVERGENCE
---------------

  Last Energy change         ...   -9.7871e-09  Tolerance :   1.0000e-08
  Last MAX-Density change    ...    2.3491e-05  Tolerance :   1.0000e-07
  Last RMS-Density change    ...    1.0258e-07  Tolerance :   5.0000e-09
  Last DIIS Error            ...    7.0000e-04  Tolerance :   5.0000e-07
  Last Orbital Gradient      ...    3.4063e-06  Tolerance :   1.0000e-05
  Last Orbital Rotation      ...    4.3582e-06  Tolerance :   1.0000e-05


----------------------
UHF SPIN CONTAMINATION
----------------------

Warning: in a DFT calculation there is little theoretical justification to 
         calculate <S**2> as in Hartree-Fock theory. We will do it anyways
         but you should keep in mind that the values have only limited relevance

Expectation value of <S**2>     :     0.752963
Ideal value S*(S+1) for S=0.5   :     0.750000
Deviation                       :     0.002963

----------------
ORBITAL ENERGIES
----------------
                 SPIN UP ORBITALS
  NO   OCC          E(Eh)            E(eV) 
   0   1.0000     -24.722192      -672.7250 
   1   1.0000     -24.722098      -672.7225 
   2   1.0000     -24.715429      -672.5410 
   3   1.0000     -24.704247      -672.2367 
   4   1.0000     -24.704201      -672.2355 
   5   1.0000     -24.698235      -672.0731 
   6   1.0000     -24.696956      -672.0383 
   7   1.0000     -24.691742      -671.8965 
   8   1.0000     -24.690875      -671.8729 
   9   1.0000     -24.689140      -671.8256 
  10   1.0000     -24.688600      -671.8110 
  11   1.0000     -24.688445      -671.8067 
  12   1.0000     -24.688429      -671.8063 
  13   1.0000     -24.683815      -671.6808 
  14   1.0000     -24.683194      -671.6638 
  15   1.0000     -19.082953      -519.2736 
  16   1.0000     -19.081557      -519.2356 
  17   1.0000     -19.070699      -518.9401 
  18   1.0000     -19.070610      -518.9377 
  19   1.0000     -10.429895      -283.8119 
  20   1.0000     -10.359086      -281.8851 
  21   1.0000     -10.350612      -281.6545 
  22   1.0000     -10.344180      -281.4795 
  23   1.0000     -10.341587      -281.4089 
  24   1.0000     -10.335598      -281.2459 
  25   1.0000     -10.334695      -281.2214 
  26   1.0000     -10.260982      -279.2155 
  27   1.0000      -1.323243       -36.0073 
  28   1.0000      -1.273751       -34.6605 
  29   1.0000      -1.269548       -34.5462 
  30   1.0000      -1.254954       -34.1490 
  31   1.0000      -1.249489       -34.0003 
  32   1.0000      -1.245158       -33.8825 
  33   1.0000      -1.238972       -33.7142 
  34   1.0000      -1.234159       -33.5832 
  35   1.0000      -1.228648       -33.4332 
  36   1.0000      -1.214272       -33.0420 
  37   1.0000      -1.211779       -32.9742 
  38   1.0000      -1.200737       -32.6737 
  39   1.0000      -1.195256       -32.5246 
  40   1.0000      -1.194313       -32.4989 
  41   1.0000      -1.187142       -32.3038 
  42   1.0000      -1.033416       -28.1207 
  43   1.0000      -0.968536       -26.3552 
  44   1.0000      -0.965865       -26.2825 
  45   1.0000      -0.946379       -25.7523 
  46   1.0000      -0.794492       -21.6192 
  47   1.0000      -0.785123       -21.3643 
  48   1.0000      -0.758093       -20.6288 
  49   1.0000      -0.728266       -19.8171 
  50   1.0000      -0.690977       -18.8024 
  51   1.0000      -0.660377       -17.9698 
  52   1.0000      -0.634566       -17.2674 
  53   1.0000      -0.608686       -16.5632 
  54   1.0000      -0.607242       -16.5239 
  55   1.0000      -0.605464       -16.4755 
  56   1.0000      -0.591590       -16.0980 
  57   1.0000      -0.584397       -15.9022 
  58   1.0000      -0.579731       -15.7753 
  59   1.0000      -0.571663       -15.5557 
  60   1.0000      -0.569903       -15.5078 
  61   1.0000      -0.558063       -15.1857 
  62   1.0000      -0.557649       -15.1744 
  63   1.0000      -0.553832       -15.0705 
  64   1.0000      -0.544237       -14.8094 
  65   1.0000      -0.538875       -14.6635 
  66   1.0000      -0.534471       -14.5437 
  67   1.0000      -0.523894       -14.2559 
  68   1.0000      -0.506450       -13.7812 
  69   1.0000      -0.491428       -13.3724 
  70   1.0000      -0.481191       -13.0939 
  71   1.0000      -0.480931       -13.0868 
  72   1.0000      -0.475585       -12.9413 
  73   1.0000      -0.461218       -12.5504 
  74   1.0000      -0.458899       -12.4873 
  75   1.0000      -0.456807       -12.4304 
  76   1.0000      -0.455316       -12.3898 
  77   1.0000      -0.451741       -12.2925 
  78   1.0000      -0.449500       -12.2315 
  79   1.0000      -0.447318       -12.1721 
  80   1.0000      -0.444190       -12.0870 
  81   1.0000      -0.443448       -12.0668 
  82   1.0000      -0.440499       -11.9866 
  83   1.0000      -0.434868       -11.8334 
  84   1.0000      -0.432390       -11.7659 
  85   1.0000      -0.425048       -11.5661 
  86   1.0000      -0.422391       -11.4938 
  87   1.0000      -0.421213       -11.4618 
  88   1.0000      -0.420366       -11.4387 
  89   1.0000      -0.416924       -11.3451 
  90   1.0000      -0.410746       -11.1770 
  91   1.0000      -0.409964       -11.1557 
  92   1.0000      -0.406243       -11.0544 
  93   1.0000      -0.403907       -10.9909 
  94   1.0000      -0.402124       -10.9423 
  95   1.0000      -0.400477       -10.8975 
  96   1.0000      -0.397380       -10.8133 
  97   1.0000      -0.390765       -10.6332 
  98   1.0000      -0.390588       -10.6284 
  99   1.0000      -0.381518       -10.3816 
 100   1.0000      -0.372691       -10.1414 
 101   1.0000      -0.354155        -9.6371 
 102   1.0000      -0.351709        -9.5705 
 103   1.0000      -0.346855        -9.4384 
 104   1.0000      -0.317578        -8.6417 
 105   1.0000      -0.281406        -7.6575 
 106   1.0000      -0.279093        -7.5945 
 107   1.0000      -0.259020        -7.0483 
 108   1.0000      -0.250174        -6.8076 
 109   1.0000      -0.246401        -6.7049 
 110   1.0000      -0.074341        -2.0229 
 111   0.0000       0.016615         0.4521 
 112   0.0000       0.042667         1.1610 
 113   0.0000       0.058194         1.5835 
 114   0.0000       0.062738         1.7072 
 115   0.0000       0.068997         1.8775 
 116   0.0000       0.079163         2.1541 
 117   0.0000       0.100401         2.7320 
 118   0.0000       0.110709         3.0125 
 119   0.0000       0.124064         3.3759 
 120   0.0000       0.127978         3.4825 
 121   0.0000       0.140344         3.8190 

                 SPIN DOWN ORBITALS
  NO   OCC          E(Eh)            E(eV) 
   0   1.0000     -24.722142      -672.7237 
   1   1.0000     -24.722048      -672.7211 
   2   1.0000     -24.714444      -672.5142 
   3   1.0000     -24.703872      -672.2265 
   4   1.0000     -24.703820      -672.2251 
   5   1.0000     -24.698082      -672.0690 
   6   1.0000     -24.696750      -672.0327 
   7   1.0000     -24.691316      -671.8849 
   8   1.0000     -24.690437      -671.8609 
   9   1.0000     -24.688497      -671.8081 
  10   1.0000     -24.688361      -671.8045 
  11   1.0000     -24.688308      -671.8030 
  12   1.0000     -24.687929      -671.7927 
  13   1.0000     -24.683138      -671.6623 
  14   1.0000     -24.682474      -671.6443 
  15   1.0000     -19.082954      -519.2736 
  16   1.0000     -19.081557      -519.2356 
  17   1.0000     -19.070407      -518.9322 
  18   1.0000     -19.070319      -518.9298 
  19   1.0000     -10.428640      -283.7777 
  20   1.0000     -10.357153      -281.8325 
  21   1.0000     -10.349308      -281.6190 
  22   1.0000     -10.341771      -281.4139 
  23   1.0000     -10.338396      -281.3221 
  24   1.0000     -10.334092      -281.2049 
  25   1.0000     -10.332185      -281.1531 
  26   1.0000     -10.260695      -279.2077 
  27   1.0000      -1.322343       -35.9828 
  28   1.0000      -1.272618       -34.6297 
  29   1.0000      -1.268202       -34.5095 
  30   1.0000      -1.253518       -34.1099 
  31   1.0000      -1.248996       -33.9869 
  32   1.0000      -1.243587       -33.8397 
  33   1.0000      -1.238794       -33.7093 
  34   1.0000      -1.232336       -33.5336 
  35   1.0000      -1.226974       -33.3876 
  36   1.0000      -1.213358       -33.0172 
  37   1.0000      -1.211174       -32.9577 
  38   1.0000      -1.199655       -32.6443 
  39   1.0000      -1.194261       -32.4975 
  40   1.0000      -1.193805       -32.4851 
  41   1.0000      -1.185676       -32.2639 
  42   1.0000      -1.032817       -28.1044 
  43   1.0000      -0.968491       -26.3540 
  44   1.0000      -0.965858       -26.2823 
  45   1.0000      -0.945838       -25.7376 
  46   1.0000      -0.786687       -21.4068 
  47   1.0000      -0.779019       -21.1982 
  48   1.0000      -0.750156       -20.4128 
  49   1.0000      -0.722268       -19.6539 
  50   1.0000      -0.687031       -18.6951 
  51   1.0000      -0.657878       -17.9018 
  52   1.0000      -0.632270       -17.2049 
  53   1.0000      -0.608021       -16.5451 
  54   1.0000      -0.604859       -16.4590 
  55   1.0000      -0.602175       -16.3860 
  56   1.0000      -0.589089       -16.0299 
  57   1.0000      -0.580524       -15.7969 
  58   1.0000      -0.578531       -15.7426 
  59   1.0000      -0.570424       -15.5220 
  60   1.0000      -0.566094       -15.4042 
  61   1.0000      -0.556560       -15.1448 
  62   1.0000      -0.553600       -15.0642 
  63   1.0000      -0.551611       -15.0101 
  64   1.0000      -0.543258       -14.7828 
  65   1.0000      -0.534561       -14.5461 
  66   1.0000      -0.532412       -14.4877 
  67   1.0000      -0.522656       -14.2222 
  68   1.0000      -0.506293       -13.7769 
  69   1.0000      -0.491404       -13.3718 
  70   1.0000      -0.480549       -13.0764 
  71   1.0000      -0.479363       -13.0441 
  72   1.0000      -0.475031       -12.9262 
  73   1.0000      -0.460589       -12.5333 
  74   1.0000      -0.458299       -12.4710 
  75   1.0000      -0.456423       -12.4199 
  76   1.0000      -0.454797       -12.3756 
  77   1.0000      -0.450960       -12.2712 
  78   1.0000      -0.448888       -12.2149 
  79   1.0000      -0.446682       -12.1548 
  80   1.0000      -0.443165       -12.0591 
  81   1.0000      -0.442426       -12.0390 
  82   1.0000      -0.439915       -11.9707 
  83   1.0000      -0.433865       -11.8061 
  84   1.0000      -0.431355       -11.7378 
  85   1.0000      -0.424187       -11.5427 
  86   1.0000      -0.421423       -11.4675 
  87   1.0000      -0.420543       -11.4436 
  88   1.0000      -0.419624       -11.4186 
  89   1.0000      -0.416080       -11.3221 
  90   1.0000      -0.410300       -11.1648 
  91   1.0000      -0.408422       -11.1137 
  92   1.0000      -0.405790       -11.0421 
  93   1.0000      -0.402310       -10.9474 
  94   1.0000      -0.399752       -10.8778 
  95   1.0000      -0.398095       -10.8327 
  96   1.0000      -0.394632       -10.7385 
  97   1.0000      -0.389173       -10.5899 
  98   1.0000      -0.387008       -10.5310 
  99   1.0000      -0.375447       -10.2164 
 100   1.0000      -0.368063       -10.0155 
 101   1.0000      -0.353392        -9.6163 
 102   1.0000      -0.350819        -9.5463 
 103   1.0000      -0.344193        -9.3660 
 104   1.0000      -0.314917        -8.5693 
 105   1.0000      -0.281303        -7.6547 
 106   1.0000      -0.279073        -7.5940 
 107   1.0000      -0.257476        -7.0063 
 108   1.0000      -0.249083        -6.7779 
 109   1.0000      -0.246004        -6.6941 
 110   0.0000      -0.007634        -0.2077 
 111   0.0000       0.030291         0.8243 
 112   0.0000       0.046491         1.2651 
 113   0.0000       0.061124         1.6633 
 114   0.0000       0.063356         1.7240 
 115   0.0000       0.080356         2.1866 
 116   0.0000       0.082756         2.2519 
 117   0.0000       0.104402         2.8409 
 118   0.0000       0.112407         3.0588 
 119   0.0000       0.124496         3.3877 
 120   0.0000       0.135757         3.6941 
*Only the first 10 virtual orbitals were printed.

                    ********************************
                    * MULLIKEN POPULATION ANALYSIS *
                    ********************************

--------------------------------------------
MULLIKEN ATOMIC CHARGES AND SPIN POPULATIONS
--------------------------------------------
   0 C :    0.448599    0.061601
   1 C :    0.291551    0.118214
   2 C :    0.242383    0.222133
   3 C :    0.247105    0.250546
   4 C :    0.278797    0.164949
   5 C :    0.285648    0.078753
   6 C :    0.331937    0.032942
   7 C :    0.242936    0.014460
   8 F :   -0.176274   -0.000113
   9 F :   -0.176216   -0.000116
  10 F :   -0.186200    0.010503
  11 F :   -0.209871    0.002491
  12 F :   -0.209591    0.002490
  13 F :   -0.234640    0.004137
  14 F :   -0.232978    0.003974
  15 F :   -0.240221    0.004136
  16 F :   -0.236809    0.003813
  17 F :   -0.225306    0.001637
  18 F :   -0.226072    0.001868
  19 F :   -0.215766    0.000817
  20 F :   -0.215901    0.001381
  21 F :   -0.222738    0.000511
  22 F :   -0.225657    0.000826
  23 O :   -0.508388    0.008979
  24 O :   -0.514395    0.008948
  25 O :   -0.731658   -0.000015
  26 H :    0.324700    0.000000
  27 H :    0.350844   -0.000037
  28 H :    0.347545   -0.000148
  29 O :   -0.726896   -0.000040
  30 H :    0.323532    0.000358
Sum of atomic charges         :   -2.0000000
Sum of atomic spin populations:    1.0000000

-----------------------------------------------------
MULLIKEN REDUCED ORBITAL CHARGES AND SPIN POPULATIONS
-----------------------------------------------------
CHARGE
  0 C s       :     3.045517  s :     3.045517
      pz      :     0.643324  p :     2.140616
      px      :     0.654980
      py      :     0.842313
      dz2     :     0.067661  d :     0.326347
      dxz     :     0.078054
      dyz     :     0.058972
      dx2y2   :     0.059666
      dxy     :     0.061994
      f0      :     0.007756  f :     0.038921
      f+1     :     0.004643
      f-1     :     0.005442
      f+2     :     0.007982
      f-2     :     0.003904
      f+3     :     0.003025
      f-3     :     0.006169

  1 C s       :     3.121555  s :     3.121555
      pz      :     0.742842  p :     2.283932
      px      :     0.642155
      py      :     0.898935
      dz2     :     0.051717  d :     0.276616
      dxz     :     0.061185
      dyz     :     0.047822
      dx2y2   :     0.062593
      dxy     :     0.053300
      f0      :     0.005637  f :     0.026346
      f+1     :     0.003904
      f-1     :     0.003454
      f+2     :     0.004661
      f-2     :     0.001524
      f+3     :     0.002339
      f-3     :     0.004827

  2 C s       :     3.145324  s :     3.145324
      pz      :     0.738095  p :     2.298656
      px      :     0.652960
      py      :     0.907601
      dz2     :     0.048879  d :     0.288218
      dxz     :     0.057007
      dyz     :     0.059214
      dx2y2   :     0.072005
      dxy     :     0.051112
      f0      :     0.005209  f :     0.025419
      f+1     :     0.003587
      f-1     :     0.003147
      f+2     :     0.004758
      f-2     :     0.001693
      f+3     :     0.002218
      f-3     :     0.004807

  3 C s       :     3.141473  s :     3.141473
      pz      :     0.762440  p :     2.299488
      px      :     0.656718
      py      :     0.880330
      dz2     :     0.050094  d :     0.286746
      dxz     :     0.055934
      dyz     :     0.057153
      dx2y2   :     0.073371
      dxy     :     0.050194
      f0      :     0.005195  f :     0.025188
      f+1     :     0.003624
      f-1     :     0.003149
      f+2     :     0.004649
      f-2     :     0.001604
      f+3     :     0.002206
      f-3     :     0.004761

  4 C s       :     3.139752  s :     3.139752
      pz      :     0.744622  p :     2.273693
      px      :     0.638811
      py      :     0.890261
      dz2     :     0.050752  d :     0.281802
      dxz     :     0.059336
      dyz     :     0.053176
      dx2y2   :     0.066881
      dxy     :     0.051656
      f0      :     0.005517  f :     0.025957
      f+1     :     0.003682
      f-1     :     0.003295
      f+2     :     0.004768
      f-2     :     0.001628
      f+3     :     0.002219
      f-3     :     0.004848

  5 C s       :     3.156273  s :     3.156273
      pz      :     0.731344  p :     2.255776
      px      :     0.612785
      py      :     0.911647
      dz2     :     0.050982  d :     0.275544
      dxz     :     0.058707
      dyz     :     0.051188
      dx2y2   :     0.060136
      dxy     :     0.054530
      f0      :     0.005314  f :     0.026759
      f+1     :     0.003579
      f-1     :     0.003133
      f+2     :     0.005380
      f-2     :     0.002091
      f+3     :     0.002280
      f-3     :     0.004983

  6 C s       :     3.130826  s :     3.130826
      pz      :     0.716525  p :     2.258956
      px      :     0.577812
      py      :     0.964619
      dz2     :     0.046637  d :     0.252079
      dxz     :     0.055756
      dyz     :     0.044913
      dx2y2   :     0.051728
      dxy     :     0.053045
      f0      :     0.004746  f :     0.026202
      f+1     :     0.004037
      f-1     :     0.002556
      f+2     :     0.004979
      f-2     :     0.002822
      f+3     :     0.002579
      f-3     :     0.004483

  7 C s       :     3.062078  s :     3.062078
      pz      :     0.803820  p :     2.417740
      px      :     0.718726
      py      :     0.895195
      dz2     :     0.030172  d :     0.252150
      dxz     :     0.054634
      dyz     :     0.022032
      dx2y2   :     0.070375
      dxy     :     0.074938
      f0      :     0.001880  f :     0.025096
      f+1     :     0.003102
      f-1     :     0.001816
      f+2     :     0.003878
      f-2     :     0.002978
      f+3     :     0.006541
      f-3     :     0.004901

  8 F s       :     3.908439  s :     3.908439
      pz      :     1.553295  p :     5.250984
      px      :     1.856212
      py      :     1.841477
      dz2     :     0.005717  d :     0.016112
      dxz     :     0.003894
      dyz     :     0.004552
      dx2y2   :     0.001016
      dxy     :     0.000933
      f0      :     0.000178  f :     0.000739
      f+1     :     0.000168
      f-1     :     0.000199
      f+2     :     0.000079
      f-2     :     0.000093
      f+3     :     0.000010
      f-3     :     0.000011

  9 F s       :     3.908483  s :     3.908483
      pz      :     1.893612  p :     5.250878
      px      :     1.455660
      py      :     1.901606
      dz2     :     0.002328  d :     0.016116
      dxz     :     0.003272
      dyz     :     0.000177
      dx2y2   :     0.006742
      dxy     :     0.003596
      f0      :     0.000060  f :     0.000740
      f+1     :     0.000153
      f-1     :     0.000011
      f+2     :     0.000100
      f-2     :     0.000007
      f+3     :     0.000253
      f-3     :     0.000156

 10 F s       :     3.907531  s :     3.907531
      pz      :     1.688925  p :     5.262639
      px      :     1.851158
      py      :     1.722556
      dz2     :     0.002943  d :     0.015340
      dxz     :     0.002753
      dyz     :     0.005358
      dx2y2   :     0.002139
      dxy     :     0.002146
      f0      :     0.000084  f :     0.000690
      f+1     :     0.000070
      f-1     :     0.000166
      f+2     :     0.000119
      f-2     :     0.000162
      f+3     :     0.000047
      f-3     :     0.000043

 11 F s       :     3.910433  s :     3.910433
      pz      :     1.534316  p :     5.283831
      px      :     1.862547
      py      :     1.886968
      dz2     :     0.006040  d :     0.014964
      dxz     :     0.003769
      dyz     :     0.003835
      dx2y2   :     0.000708
      dxy     :     0.000613
      f0      :     0.000192  f :     0.000643
      f+1     :     0.000172
      f-1     :     0.000156
      f+2     :     0.000053
      f-2     :     0.000060
      f+3     :     0.000005
      f-3     :     0.000005

 12 F s       :     3.910525  s :     3.910525
      pz      :     1.901602  p :     5.283448
      px      :     1.465580
      py      :     1.916266
      dz2     :     0.002202  d :     0.014975
      dxz     :     0.003039
      dyz     :     0.000143
      dx2y2   :     0.006191
      dxy     :     0.003400
      f0      :     0.000052  f :     0.000644
      f+1     :     0.000134
      f-1     :     0.000010
      f+2     :     0.000086
      f-2     :     0.000005
      f+3     :     0.000219
      f-3     :     0.000138

 13 F s       :     3.911225  s :     3.911225
      pz      :     1.556647  p :     5.308635
      px      :     1.867333
      py      :     1.884654
      dz2     :     0.005452  d :     0.014183
      dxz     :     0.003558
      dyz     :     0.003802
      dx2y2   :     0.000722
      dxy     :     0.000648
      f0      :     0.000161  f :     0.000597
      f+1     :     0.000152
      f-1     :     0.000157
      f+2     :     0.000051
      f-2     :     0.000064
      f+3     :     0.000005
      f-3     :     0.000007

 14 F s       :     3.911286  s :     3.911286
      pz      :     1.904970  p :     5.306802
      px      :     1.478187
      py      :     1.923645
      dz2     :     0.002094  d :     0.014289
      dxz     :     0.002870
      dyz     :     0.000174
      dx2y2   :     0.005943
      dxy     :     0.003208
      f0      :     0.000048  f :     0.000602
      f+1     :     0.000124
      f-1     :     0.000009
      f+2     :     0.000079
      f-2     :     0.000005
      f+3     :     0.000211
      f-3     :     0.000126

 15 F s       :     3.910279  s :     3.910279
      pz      :     1.557361  p :     5.315386
      px      :     1.868599
      py      :     1.889426
      dz2     :     0.005426  d :     0.013969
      dxz     :     0.003512
      dyz     :     0.003683
      dx2y2   :     0.000720
      dxy     :     0.000628
      f0      :     0.000162  f :     0.000587
      f+1     :     0.000151
      f-1     :     0.000152
      f+2     :     0.000049
      f-2     :     0.000061
      f+3     :     0.000005
      f-3     :     0.000006

 16 F s       :     3.910071  s :     3.910071
      pz      :     1.905749  p :     5.311968
      px      :     1.481598
      py      :     1.924621
      dz2     :     0.002089  d :     0.014172
      dxz     :     0.002860
      dyz     :     0.000171
      dx2y2   :     0.005898
      dxy     :     0.003155
      f0      :     0.000048  f :     0.000598
      f+1     :     0.000123
      f-1     :     0.000009
      f+2     :     0.000079
      f-2     :     0.000005
      f+3     :     0.000209
      f-3     :     0.000125

 17 F s       :     3.910339  s :     3.910339
      pz      :     1.547578  p :     5.299735
      px      :     1.859575
      py      :     1.892583
      dz2     :     0.005710  d :     0.014608
      dxz     :     0.003799
      dyz     :     0.003675
      dx2y2   :     0.000761
      dxy     :     0.000662
      f0      :     0.000175  f :     0.000624
      f+1     :     0.000171
      f-1     :     0.000147
      f+2     :     0.000055
      f-2     :     0.000064
      f+3     :     0.000006
      f-3     :     0.000006

 18 F s       :     3.912404  s :     3.912404
      pz      :     1.903591  p :     5.298462
      px      :     1.472159
      py      :     1.922712
      dz2     :     0.002139  d :     0.014581
      dxz     :     0.002940
      dyz     :     0.000173
      dx2y2   :     0.006065
      dxy     :     0.003264
      f0      :     0.000050  f :     0.000625
      f+1     :     0.000129
      f-1     :     0.000010
      f+2     :     0.000084
      f-2     :     0.000005
      f+3     :     0.000218
      f-3     :     0.000131

 19 F s       :     3.912879  s :     3.912879
      pz      :     1.577779  p :     5.287055
      px      :     1.831955
      py      :     1.877322
      dz2     :     0.004953  d :     0.015176
      dxz     :     0.004301
      dyz     :     0.003817
      dx2y2   :     0.001052
      dxy     :     0.001054
      f0      :     0.000134  f :     0.000656
      f+1     :     0.000185
      f-1     :     0.000137
      f+2     :     0.000077
      f-2     :     0.000099
      f+3     :     0.000011
      f-3     :     0.000013

 20 F s       :     3.912130  s :     3.912130
      pz      :     1.894973  p :     5.288056
      px      :     1.473619
      py      :     1.919465
      dz2     :     0.002141  d :     0.015062
      dxz     :     0.003190
      dyz     :     0.000221
      dx2y2   :     0.006125
      dxy     :     0.003385
      f0      :     0.000055  f :     0.000653
      f+1     :     0.000129
      f-1     :     0.000008
      f+2     :     0.000095
      f-2     :     0.000011
      f+3     :     0.000219
      f-3     :     0.000135

 21 F s       :     3.912912  s :     3.912912
      pz      :     1.602506  p :     5.294128
      px      :     1.795581
      py      :     1.896041
      dz2     :     0.004331  d :     0.015039
      dxz     :     0.005030
      dyz     :     0.003106
      dx2y2   :     0.001270
      dxy     :     0.001302
      f0      :     0.000110  f :     0.000659
      f+1     :     0.000217
      f-1     :     0.000093
      f+2     :     0.000099
      f-2     :     0.000104
      f+3     :     0.000019
      f-3     :     0.000017

 22 F s       :     3.910367  s :     3.910367
      pz      :     1.879534  p :     5.299779
      px      :     1.500062
      py      :     1.920183
      dz2     :     0.001924  d :     0.014864
      dxz     :     0.003572
      dyz     :     0.000375
      dx2y2   :     0.005602
      dxy     :     0.003392
      f0      :     0.000059  f :     0.000648
      f+1     :     0.000111
      f-1     :     0.000006
      f+2     :     0.000119
      f-2     :     0.000027
      f+3     :     0.000196
      f-3     :     0.000130

 23 O s       :     3.813196  s :     3.813196
      pz      :     1.504516  p :     4.667900
      px      :     1.487007
      py      :     1.676377
      dz2     :     0.004755  d :     0.025633
      dxz     :     0.005235
      dyz     :     0.003723
      dx2y2   :     0.005216
      dxy     :     0.006704
      f0      :     0.000109  f :     0.001658
      f+1     :     0.000321
      f-1     :     0.000124
      f+2     :     0.000224
      f-2     :     0.000302
      f+3     :     0.000299
      f-3     :     0.000279

 24 O s       :     3.808699  s :     3.808699
      pz      :     1.577629  p :     4.678814
      px      :     1.357724
      py      :     1.743462
      dz2     :     0.002634  d :     0.025207
      dxz     :     0.007032
      dyz     :     0.001561
      dx2y2   :     0.006879
      dxy     :     0.007101
      f0      :     0.000169  f :     0.001674
      f+1     :     0.000243
      f-1     :     0.000038
      f+2     :     0.000258
      f-2     :     0.000154
      f+3     :     0.000422
      f-3     :     0.000389

 25 O s       :     3.793352  s :     3.793352
      pz      :     1.813101  p :     4.918201
      px      :     1.364680
      py      :     1.740421
      dz2     :     0.001582  d :     0.018888
      dxz     :     0.005945
      dyz     :     0.004224
      dx2y2   :     0.001593
      dxy     :     0.005543
      f0      :     0.000260  f :     0.001218
      f+1     :     0.000040
      f-1     :     0.000049
      f+2     :     0.000179
      f-2     :     0.000293
      f+3     :     0.000168
      f-3     :     0.000228

 26 H s       :     0.628414  s :     0.628414
      pz      :     0.015025  p :     0.046886
      px      :     0.015252
      py      :     0.016608

 27 H s       :     0.595148  s :     0.595148
      pz      :     0.016737  p :     0.054009
      px      :     0.024168
      py      :     0.013104

 28 H s       :     0.597404  s :     0.597404
      pz      :     0.016291  p :     0.055051
      px      :     0.026969
      py      :     0.011790

 29 O s       :     3.789500  s :     3.789500
      pz      :     1.883821  p :     4.917327
      px      :     1.637148
      py      :     1.396359
      dz2     :     0.002450  d :     0.018860
      dxz     :     0.004194
      dyz     :     0.002223
      dx2y2   :     0.008970
      dxy     :     0.001024
      f0      :     0.000246  f :     0.001209
      f+1     :     0.000075
      f-1     :     0.000220
      f+2     :     0.000205
      f-2     :     0.000084
      f+3     :     0.000015
      f-3     :     0.000364

 30 H s       :     0.629328  s :     0.629328
      pz      :     0.015283  p :     0.047140
      px      :     0.012443
      py      :     0.019414


SPIN
  0 C s       :     0.013594  s :     0.013594
      pz      :     0.022437  p :     0.039196
      px      :     0.016971
      py      :    -0.000212
      dz2     :     0.000229  d :     0.008498
      dxz     :    -0.000078
      dyz     :     0.004482
      dx2y2   :     0.003292
      dxy     :     0.000573
      f0      :     0.000066  f :     0.000313
      f+1     :    -0.000018
      f-1     :     0.000024
      f+2     :     0.000052
      f-2     :     0.000093
      f+3     :     0.000004
      f-3     :     0.000092

  1 C s       :    -0.022075  s :    -0.022075
      pz      :     0.081692  p :     0.112047
      px      :     0.040386
      py      :    -0.010031
      dz2     :     0.005382  d :     0.028230
      dxz     :     0.000565
      dyz     :     0.004294
      dx2y2   :     0.017802
      dxy     :     0.000187
      f0      :    -0.000021  f :     0.000012
      f+1     :     0.000033
      f-1     :    -0.000024
      f+2     :    -0.000000
      f-2     :     0.000039
      f+3     :    -0.000039
      f-3     :     0.000025

  2 C s       :    -0.023011  s :    -0.023011
      pz      :     0.109800  p :     0.201287
      px      :     0.077438
      py      :     0.014049
      dz2     :     0.005369  d :     0.044104
      dxz     :     0.000552
      dyz     :     0.013010
      dx2y2   :     0.025057
      dxy     :     0.000116
      f0      :    -0.000026  f :    -0.000248
      f+1     :    -0.000015
      f-1     :    -0.000093
      f+2     :    -0.000097
      f-2     :     0.000027
[...]
 39:    333.35   0.001037    5.24  0.000971  (-0.001680 -0.027583 -0.014398)
 40:    344.35   0.015748   79.58  0.014271  (-0.002087  0.114584  0.033720)
 41:    358.96   0.000957    4.84  0.000832  (-0.007793 -0.027210 -0.005540)
 42:    364.57   0.000148    0.75  0.000127  (-0.005179 -0.006374 -0.007700)
 43:    375.56   0.005216   26.36  0.004334  ( 0.047061  0.039926  0.022909)
 44:    413.02   0.003269   16.52  0.002470  ( 0.049151 -0.007217  0.001469)
 45:    425.51   0.012938   65.39  0.009489  (-0.092848 -0.026781 -0.012289)
 46:    451.16   0.019256   97.31  0.013320  ( 0.086805  0.072539  0.022859)
 47:    463.67   0.000279    1.41  0.000188  (-0.006964 -0.002103  0.011606)
 48:    473.42   0.001137    5.74  0.000749  ( 0.000389 -0.026782  0.005638)
 49:    506.89   0.002604   13.16  0.001603  (-0.001665 -0.037540 -0.013827)
 50:    517.34   0.000163    0.82  0.000098  ( 0.002809  0.006784 -0.006666)
 51:    529.99   0.008043   40.65  0.004736  ( 0.016118  0.065669 -0.012794)
 52:    553.87   0.000670    3.38  0.000377  (-0.011508  0.015470  0.002361)
 53:    562.89   0.002194   11.09  0.001216  (-0.010932  0.007761  0.032197)
 54:    581.76   0.001133    5.73  0.000608  (-0.007496 -0.023480 -0.000626)
 55:    590.86   0.000707    3.57  0.000374  ( 0.008988  0.016355  0.005027)
 56:    593.22   0.000101    0.51  0.000053  ( 0.001615 -0.006841  0.001975)
 57:    618.31   0.009716   49.10  0.004904  (-0.003168  0.064590  0.026866)
 58:    637.04   0.072046  364.09  0.035293  ( 0.011727  0.182263  0.043997)
 59:    667.72   0.071153  359.58  0.033254  ( 0.003900  0.176041  0.047420)
 60:    682.96   0.033065  167.10  0.015108  (-0.001355  0.115560  0.041864)
 61:    696.88   0.032376  163.61  0.014498  ( 0.013327 -0.085098 -0.084134)
 62:    700.12   0.007663   38.73  0.003416  (-0.007004 -0.058023 -0.000109)
 63:    716.28   0.028490  143.98  0.012412  ( 0.053270 -0.033241 -0.092031)
 64:    743.90   0.031619  159.79  0.013264  (-0.010163  0.104645  0.047015)
 65:    791.16   0.006041   30.53  0.002383  ( 0.019466  0.035040 -0.027855)
 66:    817.14   0.033376  168.67  0.012746  (-0.022576 -0.110396  0.007016)
 67:    878.63   0.001345    6.79  0.000478  ( 0.004668 -0.020942  0.004145)
 68:    897.37   0.037452  189.27  0.013024  (-0.000413  0.108723  0.034686)
 69:    933.82   0.106698  539.21  0.035656  (-0.004246 -0.186788 -0.027356)
 70:    956.06   0.027500  138.97  0.008976  ( 0.042510 -0.069152  0.048856)
 71:    978.34   0.144193  728.69  0.045994  (-0.060034 -0.205849 -0.003970)
 72:   1003.90   0.138081  697.81  0.042922  (-0.018340  0.177624  0.105051)
 73:   1009.49   0.024575  124.19  0.007597  ( 0.074240 -0.012778  0.043840)
 74:   1032.60   0.380781  1924.31  0.115077  ( 0.088219 -0.213897 -0.248078)
 75:   1034.97   0.107442  542.97  0.032396  (-0.153883  0.056467 -0.074346)
 76:   1044.26   0.030617  154.72  0.009149  (-0.004297 -0.086346 -0.040930)
 77:   1057.03   0.140789  711.49  0.041565  (-0.107579 -0.167349 -0.044560)
 78:   1076.12   0.057517  290.67  0.016679  (-0.044709  0.099725 -0.068814)
 79:   1083.13   0.158983  803.44  0.045805  ( 0.171316 -0.127876 -0.010196)
 80:   1098.02   0.080438  406.50  0.022861  ( 0.016384  0.055164  0.139819)
 81:   1114.75   0.009113   46.05  0.002551  (-0.014208 -0.002243 -0.048416)
 82:   1140.90   0.108759  549.62  0.029748  ( 0.124037 -0.082317  0.087103)
 83:   1145.08   0.336712  1701.60  0.091763  ( 0.077680  0.287969  0.052939)
 84:   1249.99   0.227991  1152.17  0.056918  (-0.032000 -0.235703 -0.018401)
 85:   1369.79   0.172422  871.35  0.039281  ( 0.016767  0.195387  0.028698)
 86:   1659.04   0.037049  187.23  0.006969  (-0.036272  0.054622 -0.051669)
 87:   1668.74   0.120995  611.46  0.022627  ( 0.130758 -0.047934  0.056846)
 88:   1682.74   0.134475  679.58  0.024938  ( 0.148379  0.014268  0.052139)
 89:   3412.52   0.323648  1635.58  0.029597  ( 0.159177  0.002240  0.065224)
 90:   3441.38   0.118121  596.94  0.010711  ( 0.086362  0.019045  0.053759)
 91:   3802.15   0.018730   94.66  0.001537  (-0.034582 -0.018427 -0.001358)
 92:   3810.20   0.009116   46.07  0.000747  (-0.016504 -0.021747 -0.001142)

* The epsilon (eps) is given for a Dirac delta lineshape.
** The dipole moment derivative (T) already includes vibrational overlap.

The first frequency considered to be a vibration is 7
The total number of vibrations considered is 86


--------------------------
THERMOCHEMISTRY AT 298.15K
--------------------------

Temperature         ...   298.15 K
Pressure            ...     1.00 atm
Total Mass          ...   449.09 AMU
Quasi RRHO          ...     True
Cut-Off Frequency   ...     1.00 cm^-1

Throughout the following assumptions are being made:
  (1) The electronic state is orbitally nondegenerate
      but the spin degeneracy is treated
  (2) There are no thermally accessible electronically excited states
  (3) Hindered rotations indicated by low frequency modes are not
      treated as such but are treated as vibrations and this may
      cause some error
  (4) All equations used are the standard statistical mechanics
      equations for an ideal gas
  (5) All vibrations are strictly harmonic

freq.      16.04  E(vib)   ...       0.57 
freq.      28.86  E(vib)   ...       0.55 
freq.      31.18  E(vib)   ...       0.55 
freq.      36.87  E(vib)   ...       0.54 
freq.      41.58  E(vib)   ...       0.54 
freq.      49.37  E(vib)   ...       0.52 
freq.      50.98  E(vib)   ...       0.52 
freq.      58.30  E(vib)   ...       0.51 
freq.      65.21  E(vib)   ...       0.50 
freq.      70.06  E(vib)   ...       0.50 
freq.      70.93  E(vib)   ...       0.50 
freq.      86.26  E(vib)   ...       0.48 
freq.      96.82  E(vib)   ...       0.46 
freq.     100.45  E(vib)   ...       0.46 
freq.     133.25  E(vib)   ...       0.42 
freq.     153.81  E(vib)   ...       0.40 
freq.     160.62  E(vib)   ...       0.39 
freq.     169.48  E(vib)   ...       0.38 
freq.     186.17  E(vib)   ...       0.37 
freq.     202.38  E(vib)   ...       0.35 
freq.     203.83  E(vib)   ...       0.35 
freq.     213.23  E(vib)   ...       0.34 
freq.     230.71  E(vib)   ...       0.32 
freq.     243.24  E(vib)   ...       0.31 
freq.     248.18  E(vib)   ...       0.31 
freq.     249.61  E(vib)   ...       0.31 
freq.     260.37  E(vib)   ...       0.30 
freq.     280.95  E(vib)   ...       0.28 
freq.     314.69  E(vib)   ...       0.25 
freq.     319.21  E(vib)   ...       0.25 
freq.     322.98  E(vib)   ...       0.25 
freq.     327.72  E(vib)   ...       0.24 
freq.     333.35  E(vib)   ...       0.24 
freq.     344.35  E(vib)   ...       0.23 
freq.     358.96  E(vib)   ...       0.22 
freq.     364.57  E(vib)   ...       0.22 
freq.     375.56  E(vib)   ...       0.21 
freq.     413.02  E(vib)   ...       0.19 
freq.     425.51  E(vib)   ...       0.18 
freq.     451.16  E(vib)   ...       0.16 
freq.     463.67  E(vib)   ...       0.16 
freq.     473.42  E(vib)   ...       0.15 
freq.     506.89  E(vib)   ...       0.14 
freq.     517.34  E(vib)   ...       0.13 
freq.     529.99  E(vib)   ...       0.13 
freq.     553.87  E(vib)   ...       0.12 
freq.     562.89  E(vib)   ...       0.11 
freq.     581.76  E(vib)   ...       0.11 
freq.     590.86  E(vib)   ...       0.10 
freq.     593.22  E(vib)   ...       0.10 
freq.     618.31  E(vib)   ...       0.09 
freq.     637.04  E(vib)   ...       0.09 
freq.     667.72  E(vib)   ...       0.08 
freq.     682.96  E(vib)   ...       0.08 
freq.     696.88  E(vib)   ...       0.07 
freq.     700.12  E(vib)   ...       0.07 
freq.     716.28  E(vib)   ...       0.07 
freq.     743.90  E(vib)   ...       0.06 
freq.     791.16  E(vib)   ...       0.05 
freq.     817.14  E(vib)   ...       0.05 
freq.     878.63  E(vib)   ...       0.04 
freq.     897.37  E(vib)   ...       0.03 
freq.     933.82  E(vib)   ...       0.03 
freq.     956.06  E(vib)   ...       0.03 
freq.     978.34  E(vib)   ...       0.03 
freq.    1003.90  E(vib)   ...       0.02 
freq.    1009.49  E(vib)   ...       0.02 
freq.    1032.60  E(vib)   ...       0.02 
freq.    1034.97  E(vib)   ...       0.02 
freq.    1044.26  E(vib)   ...       0.02 
freq.    1057.03  E(vib)   ...       0.02 
freq.    1076.12  E(vib)   ...       0.02 
freq.    1083.13  E(vib)   ...       0.02 
freq.    1098.02  E(vib)   ...       0.02 
freq.    1114.75  E(vib)   ...       0.01 
freq.    1140.90  E(vib)   ...       0.01 
freq.    1145.08  E(vib)   ...       0.01 
freq.    1249.99  E(vib)   ...       0.01 
freq.    1369.79  E(vib)   ...       0.01 
freq.    1659.04  E(vib)   ...       0.00 
freq.    1668.74  E(vib)   ...       0.00 
freq.    1682.74  E(vib)   ...       0.00 
freq.    3412.52  E(vib)   ...       0.00 
freq.    3441.38  E(vib)   ...       0.00 
freq.    3802.15  E(vib)   ...       0.00 
freq.    3810.20  E(vib)   ...       0.00 

------------
INNER ENERGY
------------

The inner energy is: U= E(el) + E(ZPE) + E(vib) + E(rot) + E(trans)
    E(el)   - is the total energy from the electronic structure calculation
              = E(kin-el) + E(nuc-el) + E(el-el) + E(nuc-nuc)
    E(ZPE)  - the the zero temperature vibrational energy from the frequency calculation
    E(vib)  - the the finite temperature correction to E(ZPE) due to population
              of excited vibrational states
    E(rot)  - is the rotational thermal energy
    E(trans)- is the translational thermal energy

Summary of contributions to the inner energy U:
Electronic energy                ...  -2106.12916295 Eh
Zero point energy                ...      0.13695486 Eh      85.94 kcal/mol
Thermal vibrational correction   ...      0.02710842 Eh      17.01 kcal/mol
Thermal rotational correction    ...      0.00141627 Eh       0.89 kcal/mol
Thermal translational correction ...      0.00141627 Eh       0.89 kcal/mol
-----------------------------------------------------------------------
Total thermal energy                  -2105.96226713 Eh


Summary of corrections to the electronic energy:
(perhaps to be used in another calculation)
Total thermal correction                  0.02994096 Eh      18.79 kcal/mol
Non-thermal (ZPE) correction              0.13695486 Eh      85.94 kcal/mol
-----------------------------------------------------------------------
Total correction                          0.16689583 Eh     104.73 kcal/mol


--------
ENTHALPY
--------

The enthalpy is H = U + kB*T
                kB is Boltzmann's constant
Total thermal energy              ...  -2105.96226713 Eh 
Thermal Enthalpy correction       ...      0.00094421 Eh       0.59 kcal/mol
-----------------------------------------------------------------------
Total Enthalpy                    ...  -2105.96132292 Eh


Note: Only C1 symmetry has been detected, increase convergence thresholds 
      if your molecule has a higher symmetry. Symmetry factor of 1.0 is   
      used for the rotational entropy correction. 
 

Note: Rotational entropy computed according to Herzberg 
Infrared and Raman Spectra, Chapter V,1, Van Nostrand Reinhold, 1945 
Point Group:  C1, Symmetry Number:   1  
Rotational constants in cm-1:     0.013455     0.002922     0.002713 

Vibrational entropy computed according to the QRRHO of S. Grimme
Chem.Eur.J. 2012 18 9955 using a reference frequency of 100.0 cm-1


-------
ENTROPY
-------

The entropy contributions are T*S = T*(S(el)+S(vib)+S(rot)+S(trans))
     S(el)   - electronic entropy
     S(vib)  - vibrational entropy
     S(rot)  - rotational entropy
     S(trans)- translational entropy
The entropies will be listed as multiplied by the temperature to get
units of energy

Electronic entropy                ...      0.00065446 Eh      0.41 kcal/mol
Vibrational entropy               ...      0.04950101 Eh     31.06 kcal/mol
Rotational entropy                ...      0.01708958 Eh     10.72 kcal/mol
Translational entropy             ...      0.02099854 Eh     13.18 kcal/mol
-----------------------------------------------------------------------
Final entropy term                ...      0.08824358 Eh     55.37 kcal/mol

In case the symmetry of your molecule has not been determined correctly
or in case you have a reason to use a different symmetry number we print 
out the resulting rotational entropy values for sn=1,12:

 non-linear molecules -----------------------------------
|  sn= 1 | S(rot)=       0.01708958 Eh     10.72 kcal/mol|
|  sn= 2 | S(rot)=       0.01643512 Eh     10.31 kcal/mol|
|  sn= 3 | S(rot)=       0.01605229 Eh     10.07 kcal/mol|
|  sn= 4 | S(rot)=       0.01578066 Eh      9.90 kcal/mol|
|  sn= 5 | S(rot)=       0.01556998 Eh      9.77 kcal/mol|
|  sn= 6 | S(rot)=       0.01539783 Eh      9.66 kcal/mol|
|  sn= 7 | S(rot)=       0.01525228 Eh      9.57 kcal/mol|
|  sn= 8 | S(rot)=       0.01512621 Eh      9.49 kcal/mol|
|  sn= 9 | S(rot)=       0.01501500 Eh      9.42 kcal/mol|
|  sn=10 | S(rot)=       0.01491552 Eh      9.36 kcal/mol|
|  sn=11 | S(rot)=       0.01482553 Eh      9.30 kcal/mol|
|  sn=12 | S(rot)=       0.01474337 Eh      9.25 kcal/mol|
 linear molecules ---------------------------------------
|  Dinfh | S(rot)=       0.01090552 Eh      6.84 kcal/mol|
|  Cinfv | S(rot)=       0.01155998 Eh      7.25 kcal/mol|
 --------------------------------------------------------


-------------------
GIBBS FREE ENERGY
-------------------

The Gibbs free energy is G = H - T*S

Total enthalpy                    ...  -2105.96132292 Eh 
Total entropy correction          ...     -0.08824358 Eh    -55.37 kcal/mol
-----------------------------------------------------------------------
Final Gibbs free energy         ...  -2106.04956650 Eh

For completeness - the Gibbs free energy minus the electronic energy
G-E(el)                           ...      0.07959645 Eh     49.95 kcal/mol


Maximum memory used throughout the entire PROP-calculation: 752.8 MB

--------------------------------
SUGGESTED CITATIONS FOR THIS RUN
--------------------------------

Below you find a list of papers that are relevant to this ORCA run
We neither can nor want to force you to cite these papers, but we appreciate if you do
You receive ORCA, which is the product of decades of hard work by many enthusiastic individuals, for free
The only thing we kindly ask in return is that you cite our papers,
We deeply appreciate it, if you show your appreciation for ORCA by not just citing the generic ORCA reference.

Please note that relegating all ORCA citations to the supporting information does *not* help us.
SI sections are not indexed - citations you put there will not count into any citation statistics
But we need these citations in order to attract the funding resources that allow us to do what we are doing

Therefore, if you are a happy ORCA user, please consider citing a few of the papers listed below in the main body of your paper

In addition to the list printed below, the program has created the file rf_mecn_2H2O_freq_B3L_sw_04.bibtex that contains the list in bibtex format
You can import this file easily into all common literature databanks and citation aid programs


List of essential papers. We consider these as the minimum necessary citations

  1. Neese,F.
     Software update: the ORCA program system, version 5.0
     WIRES Comput. Molec. Sci., 2022 12(1)e1606
     doi.org/10.1002/wcms.1606

List of papers to cite with high priority. The work reported in these papers was absolutely
necessary for this run to complete.
Our perspective: the developers of density functionals and basis sets usually get cited in chemistry papers
Good! But without the algorithms to do something with them, the functionals or basis sets would not do anything.
Hence, in our opinion, the algorithm design and method developments papers are equally worthy of getting cited

  1. Neese,F.
     An improvement of the resolution of the identity approximation for the formation of the Coulomb matrix
     J. Comp. Chem., 2003 24(14)1740-1747
     doi.org/10.1002/jcc.10318
  2. Neese,F.; Wennmohs,F.; Hansen,A.; Becker,U.
     Efficient, approximate and parallel Hartree-Fock and hybrid DFT calculations. A 'chain-of-spheres' algorithm for the Hartree-Fock exchange
     Chem. Phys., 2009 356(1-3)98-109
     doi.org/10.1016/j.chemphys.2008.10.036
  3. Bykov,D.; Petrenko,T.; Izsak,R.; Kossmann,S.; Becker,U.; Valeev,E.; Neese,F.
     Efficient implementation of the analytic second derivatives of Hartree-Fock and hybrid DFT energies: a detailed analysis of different approximations
     Molec. Phys., 2015 113 1961-1977
     doi.org/10.1080/00268976.2015.1025114
  4. Garcia-Rates,M.; Neese,F.
     Efficient implementation of the analytical second derivatives of hartree-fock and hybrid DFT energies within the framework of the conductor-like polarizable continuum model
     J. Comput. Chem., 2019 40 1816-1828
     doi.org/10.1002/jcc.25833
  5. Garcia-Rates,M.; Neese,F.
     Effect of the Solute Cavity on the Solvation Energy and its Derivatives within the Framework of the Gaussian Charge Scheme
     J. Comput. Chem., 2020 41 922-939
     doi.org/10.1002/jcc.26139
  6. Helmich-Paris,B.; de Souza,B.; Neese,F.; Izsák,R.
     An improved chain of spheres for exchange algorithm
     J. Chem. Phys., 2021 155 104109
     doi.org/doi: 10.1063/5.0058766.
  7. Neese,F.
     The SHARK Integral Generation and Digestion System
     J. Comp. Chem., 2022  1-16
     doi.org/10.1002/jcc.26942
  8. Grimme,S.; Antony,J.; Ehrlich,S.; Krieg,H.
     A consistent and accurate ab initio parametrization of density functional dispersion correction (DFT-D) for the 94 elements H-Pu
     J. Chem. Phys., 2010 132 154104
     doi.org/10.1063/1.3382344
  9. Grimme,S.; Ehrlich,S.; Goerigk,L.
     Effect of the damping function in dispersion corrected density functional theory
     J. Comput. Chem., 2011 32(7)1456-1465
     doi.org/10.1002/jcc.21759

List of suggested additional citations. These are papers that are important in the 'surrounding' of 
of this run, or papers that preceded the highly important papers. If you like your results we are grateful for a citation.

  1. Izsak,R.; Neese,F.
     An overlap fitted chain of spheres exchange method
     J. Chem. Phys., 2011 135 144105
     doi.org/10.1063/1.3646921
  2. Izsak,R.; Hansen,A.; Neese,F.
     The resolution of identity and chain of spheres approximations for the LPNO-CCSD singles Fock term
     Molec. Phys., 2012 110 2413-2417
     doi.org/10.1080/00268976.2012.687466
  3. Neese,F.
     The ORCA program system
     WIRES Comput. Molec. Sci., 2012 2(1)73-78
     doi.org/10.1002/wcms.81
  4. Izsak,R.; Neese,F.; Klopper,W.
     Robust fitting techniques in the chain of spheres approximation to the Fock exchange: The role of the complementary space
     J. Chem. Phys., 2013 139 
     doi.org/10.1063/1.4819264
  5. Neese,F.
     Software update: the ORCA program system, version 4.0
     WIRES Comput. Molec. Sci., 2018 8(1)1-6
     doi.org/10.1002/wcms.1327
  6. Neese,F.; Wennmohs,F.; Becker,U.; Riplinger,C.
     The ORCA quantum chemistry program package
     J. Chem. Phys., 2020 152 Art. No. L224108
     doi.org/10.1063/5.0004608

List of optional additional citations

  1. Neese,F.
     Approximate second-order SCF convergence for spin unrestricted wavefunctions
     Chem. Phys. Lett., 2000 325(1-3)93-98
     doi.org/10.1016/s0009-2614(00)00662-x

Timings for individual modules:

Sum of individual times          ...     1805.511 sec (=  30.092 min)
Startup calculation              ...        4.290 sec (=   0.071 min)   0.2 %
SCF iterations                   ...      133.569 sec (=   2.226 min)   7.4 %
Property integrals               ...      344.572 sec (=   5.743 min)  19.1 %
SCF Response                     ...      983.399 sec (=  16.390 min)  54.5 %
Property calculations            ...      339.682 sec (=   5.661 min)  18.8 %
                             ****ORCA TERMINATED NORMALLY****
TOTAL RUN TIME: 0 days 0 hours 30 minutes 6 seconds 352 msec
