
                                 *****************
                                 * O   R   C   A *
                                 *****************

                                            #,                                       
                                            ###                                      
                                            ####                                     
                                            #####                                    
                                            ######                                   
                                           ########,                                 
                                     ,,################,,,,,                         
                               ,,#################################,,                 
                          ,,##########################################,,             
                       ,#########################################, ''#####,          
                    ,#############################################,,   '####,        
                  ,##################################################,,,,####,       
                ,###########''''           ''''###############################       
              ,#####''   ,,,,##########,,,,          '''####'''          '####       
            ,##' ,,,,###########################,,,                        '##       
           ' ,,###''''                  '''############,,,                           
         ,,##''                                '''############,,,,        ,,,,,,###''
      ,#''                                            '''#######################'''  
     '                                                          ''''####''''         
             ,#######,   #######,   ,#######,      ##                                
            ,#'     '#,  ##    ##  ,#'     '#,    #''#        ,####,   ,####,        
            ##       ##  ##   ,#'  ##            #'  '#       #'       #'  '#        
            ##       ##  #######   ##           ,######,      #####,   #    #        
            '#,     ,#'  ##    ##  '#,     ,#' ,#      #,     #,   #   #,  ,#        
             '#######'   ##     ##  '#######'  #'      '#     '####' # '####'        



                #########################################################
                #                        -***-                          #
                #          Department of theory and spectroscopy        #
                #                                                       #
                #                      Frank Neese                      #
                #                                                       #
                #     Directorship, Architecture, Infrastructure        #
                #                    SHARK, DRIVERS                     #
                #        Core code/Algorithms in most modules           #
                #                                                       #
                #        Max Planck Institute fuer Kohlenforschung      #
                #                Kaiser Wilhelm Platz 1                 #
                #                 D-45470 Muelheim/Ruhr                 #
                #                      Germany                          #
                #                                                       #
                #                  All rights reserved                  #
                #                        -***-                          #
                #########################################################


                         Program Version 6.0.1  -  RELEASE   -


 With contributions from (in alphabetic order):
[Max-Planck-Institut fuer Kohlenforschung]                               
  Daniel Aravena         : Magnetic Suceptibility                        
  Michael Atanasov       : Ab Initio Ligand Field Theory (pilot matlab implementation)
  Alexander A. Auer      : GIAO ZORA, VPT2 properties, NMR spectrum      
  Ute Becker             : All parallelization in ORCA, NUMFREQ, NUMCALC 
  Giovanni Bistoni       : ED, misc. LED, open-shell LED, HFLD           
  Martin Brehm           : Molecular dynamics                            
  Dmytro Bykov           : pre 5.0 version of the SCF Hessian            
  Marcos Casanova-Páez   : Triplet and SCS-CIS(D). UHF-(DLPNO)-IP/EA/STEOM-CCSD. UHF-CVS-IP/STEOM-CCSD   
  Vijay G. Chilkuri      : MRCI spin determinant printing, contributions to CSF-ICE 
  Pauline Colinet        : FMM embedding                                 
  Dipayan Datta          : RHF DLPNO-CCSD density                        
  Achintya Kumar Dutta   : EOM-CC, STEOM-CC                              
  Nicolas Foglia         : Exact transition moments, OPA infrastructure, MCD improvements    
  Dmitry Ganyushin       : Spin-Orbit,Spin-Spin,Magnetic field MRCI      
  Miquel Garcia-Rates    : C-PCM and meta-GGA Hessian, CCSD/C-PCM, Gaussian charge scheme 
  Tiago L. C. Gouveia    : GS-ROHF, GS-ROCIS                             
  Yang Guo               : DLPNO-NEVPT2, F12-NEVPT2, CIM, IAO-localization        
  Andreas Hansen         : Spin unrestricted coupled pair/coupled cluster methods 
  Ingolf Harden          : AUTO-CI MPn and infrastructure                
  Benjamin Helmich-Paris : MC-RPA, TRAH-(SCF,CASSCF), AVAS, COSX integrals, SCF dyn. polar. 
  Lee Huntington         : MR-EOM, pCC                                   
  Robert Izsak           : Overlap fitted RIJCOSX, COSX-SCS-MP3, EOM     
  Riya Kayal             : Wick's Theorem for AUTO-CI, AUTO-CI UHF-CCSDT 
  Emily Kempfer          : AUTO-CI, RHF CISDT and CCSDT                  
  Christian Kollmar      : KDIIS, OOCD, Brueckner-CCSD(T), CCSD density, CASPT2, CASPT2-K, improved NEVPT2 
  Axel Koslowski         : Symmetry handling                             
  Simone Kossmann        : meta-GGA functionals, TD-DFT gradient, OOMP2, (MP2 Hessian; deprecated post 5.0) 
  Lucas Lang             : DCDCAS                                        
  Marvin Lechner         : AUTO-CI (C++ implementation), FIC-MRCC        
  Spencer Leger          : CASSCF response                               
  Dagmar Lenk            : GEPOL surface, SMD, ORCA-2-JSON               
  Dimitrios Liakos       : Extrapolation schemes; Compound Job, initial MDCI parallelization 
  Dimitrios Manganas     : Further ROCIS development; embedding schemes. LFT, Crystal Embedding 
  Dimitrios Pantazis     : SARC Basis sets                               
  Anastasios Papadopoulos: AUTO-CI, single reference methods and gradients 
  Taras Petrenko         : pre 6.0 DFT Hessian and TD-DFT gradient, (ASA, deprecated), ECA, 1-Electron XAS/XES, NRVS 
  Peter Pinski           : DLPNO-MP2, DLPNO-MP2 Gradient                 
  Christoph Reimann      : Effective Core Potentials                     
  Marius Retegan         : Local ZFS, SOC                                
  Christoph Riplinger    : Optimizer, TS searches, QM/MM, DLPNO-CCSD(T), (RO)-DLPNO pert. Triples 
  Michael Roemelt        : Original ROCIS implementation                 
  Masaaki Saitow         : Open-shell DLPNO-CCSD energy and density      
  Barbara Sandhoefer     : DKH picture change effects                    
  Kantharuban Sivalingam : CASSCF convergence/infrastructure, NEVPT2 and variants, FIC-MRCI 
  Bernardo de Souza      : ESD, SOC TD-DFT                               
  Georgi L. Stoychev     : AutoAux, RI-MP2 NMR, DLPNO-MP2 response, X2C  
  Van Anh Tran           : RI-MP2 g-tensors                              
  Willem Van den Heuvel  : Paramagnetic NMR                              
  Zikuan Wang            : NOTCH, Electric field optimization            
  Frank Wennmohs         : Technical directorship and infrastructure     
  Hang Xu                : AUTO-CI-Response properties                   
                                                                         
[FACCTs GmbH]                                                            
  Markus Bursch, Miquel Garcia-Rates, Christoph Riplinger, Bernardo de Souza, Georgi L. Stoychev 
                                                                 
  APM, Basis sets (HGBS, AHGBS, def-TZVP (Ac-Lr), def2-XVPD (La-Lu)), CI-OPT, improved COSX, DLPNO-Multilevel,           
  DOCKER, DRACO, updates on ESD, GOAT, IRC, LR-CPCM, MBIS, meta-GGA TD-DFT gradient, ML-optimized integration grids, 
  MM, NACMEs, nearIR, NEB, NEB-TS, NL-DFT gradient (VV10), 2- and 3-layer-ONIOM, interface openCOSMO-RS, QMMM,   
  Crystal-QMMM, SF, symmetry and pop. for TD-DFT, r2SCAN hybrids, SOLVATOR                                   
                                                                         
[Other institutions]                                                     
  V. Asgeirsson          : NEB                                           
  Christoph Bannwarth    : sTDA-DFT, sTD-DFT, PBEh-3c, B97-3c, D3        
  Sebastian Ehlert       : rSCAN, r2SCAN, r2SCAN-3c, D4, dhf basis sets  
  Marvin Friede          : D4 for Fr, Ra, Ac-Lr                          
  Lars Goerigk           : TD-DFT with DH, B97 family of functionals     
  Stefan Grimme          : VdW corrections, initial TS optimization, DFT functionals, gCP, sTDA/sTD-DF 
  Waldemar Hujo          : DFT-NL                                        
  H. Jonsson             : NEB                                           
  Holger Kruse           : gCP                                           
  Marcel Mueller         : wB97X-3c, vDZP basis set                      
  Hagen Neugebauer       : wr2SCAN                                       
  Tobias Risthaus        : range-separated hybrid DFT                    
  Lukas Wittmann         : regularized MP2, r2SCAN double-hybrids, wr2SCAN        
                                                                         
We gratefully acknowledge several colleagues who have allowed us to      
interface, adapt or use parts of their codes:                            
  Ed Valeev, F. Pavosevic, A. Kumar             : LibInt (2-el integral package), F12 methods 
  Garnet Chan, S. Sharma, J. Yang, R. Olivares  : DMRG                   
  Ulf Ekstrom                                   : XCFun DFT Library      
  Mihaly Kallay                                 : mrcc  (arbitrary order and MRCC methods)
  Frank Weinhold                                : gennbo (NPA and NBO analysis)           
  Simon Mueller                                 : openCOSMO-RS                            
  Christopher J. Cramer and Donald G. Truhlar   : smd solvation model                     
  S Lehtola, MJT Oliveira, MAL Marques          : LibXC Library                           
  Liviu Ungur et al                             : ANISO software                          


 Your calculation uses the libint2 library for the computation of 2-el integrals
 For citations please refer to: http://libint.valeyev.net

 Your ORCA version has been built with support for libXC version: 6.2.2
 For citations please refer to: https://libxc.gitlab.io

 This ORCA versions uses:
   CBLAS   interface :  Fast vector & matrix operations
   LAPACKE interface :  Fast linear algebra routines
   SCALAPACK package :  Parallel linear algebra routines
   Shared memory     :  Shared parallel matrices
   BLAS/LAPACK       :  OpenBLAS 0.3.27  USE64BITINT DYNAMIC_ARCH NO_AFFINITY SkylakeX SINGLE_THREADED
        Core in use  :  SkylakeX
   Copyright (c) 2011-2014, The OpenBLAS Project


NOTE: MaxCore=8000 MB was set to SCF,MP2,MDCI,CIPSI,MRCI and CIS
      => If you want to overwrite this, your respective input block should be placed after the MaxCore statement
Your calculation utilizes the atom-pairwise dispersion correction
with the Becke-Johnson damping scheme (D3BJ)


Your calculation utilizes the SMD solvation module
Please cite in your paper:
A.V. Marenich, C.J. Cramer, D.G. Truhlar J. Phys. Chem. B, 113, (2009), 6378 

Warning: RI is on but no J-basis has been assigned. Assigning Def2/J (nothing to worry about!)
================================================================================

----- Orbital basis set information -----
Your calculation utilizes the basis: def2-TZVP
   F. Weigend and R. Ahlrichs, Phys. Chem. Chem. Phys. 7, 3297 (2005).

----- AuxJ basis set information -----
Your calculation utilizes the auxiliary basis: def2/J
   F. Weigend, Phys. Chem. Chem. Phys. 8, 1057 (2006).

================================================================================
                                        WARNINGS
                       Please study these warnings very carefully!
================================================================================



WARNING: SCAN, rSCAN, or r2SCAN functional requested.
  ===> : libXC variant has now been activated.



WARNING: your system is open-shell and RHF/RKS was chosen
  ===> : WILL SWITCH to UHF/UKS


================================================================================
                                       INPUT FILE
================================================================================
NAME = rf_mecn_freq_r2s_C3_D_B.inp
|  1> !r2scanh def2-TZVP freq d3 TightSCF SlowConv defgrid2
|  2>  
|  3> %pal
|  4> nprocs 20
|  5> end
|  6>  
|  7> %scf
|  8> MaxIter 1500
|  9> end
| 10>  
| 11> %maxcore 8000
| 12>  
| 13> !CPCM
| 14> %cpcm smd true
| 15> SMDsolvent "ACETONITRILE"
| 16> end
| 17>  
| 18> * xyz -1 2
| 19> 6        3.557458000     -0.179350000     -1.195866000
| 20> 8        4.153255000     -1.105152000     -1.752155000
| 21> 8        2.998510000      0.834976000     -1.643515000
| 22> 6        3.517599000     -0.233063000      0.376081000
| 23> 6        2.243856000      0.254267000      0.973562000
| 24> 6        0.957496000     -0.476116000      0.882434000
| 25> 6       -0.256662000      0.426459000      0.513334000
| 26> 6       -1.503521000     -0.371163000      0.025688000
| 27> 6       -2.818262000      0.459109000      0.100844000
| 28> 6       -3.967707000     -0.107639000     -0.776367000
| 29> 9        3.763170000     -1.492102000      0.849472000
| 30> 9        4.529202000      0.564325000      0.843881000
| 31> 9        2.177726000      1.518310000      1.370610000
| 32> 9        1.066708000     -1.454987000     -0.047148000
| 33> 9        0.648722000     -1.087411000      2.064265000
| 34> 9       -0.598034000      1.148187000      1.596686000
| 35> 9        0.102230000      1.265136000     -0.467906000
| 36> 9       -1.664319000     -1.471898000      0.774705000
| 37> 9       -1.299378000     -0.744773000     -1.247932000
| 38> 9       -2.585075000      1.718085000     -0.301363000
| 39> 9       -3.245552000      0.479187000      1.370263000
| 40> 9       -4.122310000     -1.409138000     -0.557593000
| 41> 9       -5.095235000      0.517804000     -0.458611000
| 42> 9       -3.722621000      0.090799000     -2.064059000
| 43> *
| 44> 
| 45>                          ****END OF INPUT****
================================================================================

                       ****************************
                       * Single Point Calculation *
                       ****************************

---------------------------------
CARTESIAN COORDINATES (ANGSTROEM)
---------------------------------
  C      3.557458   -0.179350   -1.195866
  O      4.153255   -1.105152   -1.752155
  O      2.998510    0.834976   -1.643515
  C      3.517599   -0.233063    0.376081
  C      2.243856    0.254267    0.973562
  C      0.957496   -0.476116    0.882434
  C     -0.256662    0.426459    0.513334
  C     -1.503521   -0.371163    0.025688
  C     -2.818262    0.459109    0.100844
  C     -3.967707   -0.107639   -0.776367
  F      3.763170   -1.492102    0.849472
  F      4.529202    0.564325    0.843881
  F      2.177726    1.518310    1.370610
  F      1.066708   -1.454987   -0.047148
  F      0.648722   -1.087411    2.064265
  F     -0.598034    1.148187    1.596686
  F      0.102230    1.265136   -0.467906
  F     -1.664319   -1.471898    0.774705
  F     -1.299378   -0.744773   -1.247932
  F     -2.585075    1.718085   -0.301363
  F     -3.245552    0.479187    1.370263
  F     -4.122310   -1.409138   -0.557593
  F     -5.095235    0.517804   -0.458611
  F     -3.722621    0.090799   -2.064059

----------------------------
CARTESIAN COORDINATES (A.U.)
----------------------------
  NO LB      ZA    FRAG     MASS         X           Y           Z
   0 C     6.0000    0    12.011    6.722621   -0.338922   -2.259859
   1 O     8.0000    0    15.999    7.848515   -2.088435   -3.311093
   2 O     8.0000    0    15.999    5.666363    1.577876   -3.105793
   3 C     6.0000    0    12.011    6.647299   -0.440425    0.710690
   4 C     6.0000    0    12.011    4.240273    0.480495    1.839766
   5 C     6.0000    0    12.011    1.809405   -0.899729    1.667559
   6 C     6.0000    0    12.011   -0.485021    0.805891    0.970061
   7 C     6.0000    0    12.011   -2.841243   -0.701396    0.048543
   8 C     6.0000    0    12.011   -5.325743    0.867590    0.190568
   9 C     6.0000    0    12.011   -7.497880   -0.203408   -1.467121
  10 F     9.0000    0    18.998    7.111361   -2.819664    1.605269
  11 F     9.0000    0    18.998    8.558951    1.066420    1.594704
  12 F     9.0000    0    18.998    4.115306    2.869190    2.590078
  13 F     9.0000    0    18.998    2.015786   -2.749527   -0.089097
  14 F     9.0000    0    18.998    1.225907   -2.054909    3.900896
  15 F     9.0000    0    18.998   -1.130120    2.169759    3.017299
  16 F     9.0000    0    18.998    0.193187    2.390761   -0.884214
  17 F     9.0000    0    18.998   -3.145107   -2.781484    1.463980
  18 F     9.0000    0    18.998   -2.455469   -1.407417   -2.358250
  19 F     9.0000    0    18.998   -4.885084    3.246710   -0.569494
  20 F     9.0000    0    18.998   -6.133204    0.905532    2.589422
  21 F     9.0000    0    18.998   -7.790037   -2.662885   -1.053698
  22 F     9.0000    0    18.998   -9.628599    0.978508   -0.866649
  23 F     9.0000    0    18.998   -7.034734    0.171585   -3.900506

--------------------------------
INTERNAL COORDINATES (ANGSTROEM)
--------------------------------
 C      0   0   0     0.000000000000     0.00000000     0.00000000
 O      1   0   0     1.233507543525     0.00000000     0.00000000
 O      1   2   0     1.241639934998   131.91148931     0.00000000
 C      1   2   3     1.573369377184   115.92456232   182.36304638
 C      4   1   2     1.488924210398   114.29403388   216.37982910
 C      5   4   1     1.482054549830   123.81712846    70.59480697
 C      6   5   4     1.557259159417   113.93287373   225.12264145
 C      7   6   5     1.558414849160   113.66109836   163.59562216
 C      8   7   6     1.556773559449   112.80647446   161.47286290
 C      9   8   7     1.553037746499   113.77609577   161.37589609
 F      4   1   2     1.367327085391   111.88770221   340.09690039
 F      4   1   2     1.370403258954   107.60697589    96.82487868
 F      5   4   1     1.326583957785   118.33480868   264.81539698
 F      6   5   4     1.354340573973   109.17196537   346.71868557
 F      6   5   4     1.365923670145   111.31883495   104.34601726
 F      7   6   5     1.345762870744   108.53033442   284.88003499
 F      7   6   5     1.339781517858   109.12004792    43.26748739
 F      8   7   6     1.341081654232   109.95329289    40.81729224
 F      8   7   6     1.342894895719   108.51404701   282.12410415
 F      9   8   7     1.342075711871   109.82203337    40.76583547
 F      9   8   7     1.339553831597   108.85234489   281.52144427
 F     10   9   8     1.328782825629   110.52114229    49.42210511
 F     10   9   8     1.327956028101   108.74700814   168.85395478
 F     10   9   8     1.325743366608   110.92687054   288.21521317

---------------------------
INTERNAL COORDINATES (A.U.)
---------------------------
 C      0   0   0     0.000000000000     0.00000000     0.00000000
 O      1   0   0     2.330991441389     0.00000000     0.00000000
 O      1   2   0     2.346359434085   131.91148931     0.00000000
 C      1   2   3     2.973237230375   115.92456232   182.36304638
 C      4   1   2     2.813658991818   114.29403388   216.37982910
 C      5   4   1     2.800677214711   123.81712846    70.59480697
 C      6   5   4     2.942793330839   113.93287373   225.12264145
 C      7   6   5     2.944977267948   113.66109836   163.59562216
 C      8   7   6     2.941875679889   112.80647446   161.47286290
 C      9   8   7     2.934816016525   113.77609577   161.37589609
 F      4   1   2     2.583873726881   111.88770221   340.09690039
 F      4   1   2     2.589686852457   107.60697589    96.82487868
 F      5   4   1     2.506880373867   118.33480868   264.81539698
 F      6   5   4     2.559332776866   109.17196537   346.71868557
 F      6   5   4     2.581221656414   111.31883495   104.34601726
 F      7   6   5     2.543123266905   108.53033442   284.88003499
 F      7   6   5     2.531820148040   109.12004792    43.26748739
 F      8   7   6     2.534277049725   109.95329289    40.81729224
 F      8   7   6     2.537703579550   108.51404701   282.12410415
 F      9   8   7     2.536155546424   109.82203337    40.76583547
 F      9   8   7     2.531389883362   108.85234489   281.52144427
 F     10   9   8     2.511035631896   110.52114229    49.42210511
 F     10   9   8     2.509473211000   108.74700814   168.85395478
 F     10   9   8     2.505291886751   110.92687054   288.21521317

---------------------
BASIS SET INFORMATION
---------------------
There are 3 groups of distinct atoms

 Group   1 Type C   : 11s6p2d1f contracted to 5s3p2d1f pattern {62111/411/11/1}
 Group   2 Type O   : 11s6p2d1f contracted to 5s3p2d1f pattern {62111/411/11/1}
 Group   3 Type F   : 11s6p2d1f contracted to 5s3p2d1f pattern {62111/411/11/1}

Atom   0C    basis set group =>   1
Atom   1O    basis set group =>   2
Atom   2O    basis set group =>   2
Atom   3C    basis set group =>   1
Atom   4C    basis set group =>   1
Atom   5C    basis set group =>   1
Atom   6C    basis set group =>   1
Atom   7C    basis set group =>   1
Atom   8C    basis set group =>   1
Atom   9C    basis set group =>   1
Atom  10F    basis set group =>   3
Atom  11F    basis set group =>   3
Atom  12F    basis set group =>   3
Atom  13F    basis set group =>   3
Atom  14F    basis set group =>   3
Atom  15F    basis set group =>   3
Atom  16F    basis set group =>   3
Atom  17F    basis set group =>   3
Atom  18F    basis set group =>   3
Atom  19F    basis set group =>   3
Atom  20F    basis set group =>   3
Atom  21F    basis set group =>   3
Atom  22F    basis set group =>   3
Atom  23F    basis set group =>   3
---------------------------------
AUXILIARY/J BASIS SET INFORMATION
---------------------------------
There are 3 groups of distinct atoms

 Group   1 Type C   : 12s5p4d2f1g contracted to 6s4p3d1f1g pattern {711111/2111/211/2/1}
 Group   2 Type O   : 12s5p4d2f1g contracted to 6s4p3d1f1g pattern {711111/2111/211/2/1}
 Group   3 Type F   : 12s5p4d2f1g contracted to 6s4p3d1f1g pattern {711111/2111/211/2/1}

Atom   0C    basis set group =>   1
Atom   1O    basis set group =>   2
Atom   2O    basis set group =>   2
Atom   3C    basis set group =>   1
Atom   4C    basis set group =>   1
Atom   5C    basis set group =>   1
Atom   6C    basis set group =>   1
Atom   7C    basis set group =>   1
Atom   8C    basis set group =>   1
Atom   9C    basis set group =>   1
Atom  10F    basis set group =>   3
Atom  11F    basis set group =>   3
Atom  12F    basis set group =>   3
Atom  13F    basis set group =>   3
Atom  14F    basis set group =>   3
Atom  15F    basis set group =>   3
Atom  16F    basis set group =>   3
Atom  17F    basis set group =>   3
Atom  18F    basis set group =>   3
Atom  19F    basis set group =>   3
Atom  20F    basis set group =>   3
Atom  21F    basis set group =>   3
Atom  22F    basis set group =>   3
Atom  23F    basis set group =>   3


           ************************************************************
           *        Program running with 20 parallel MPI-processes    *
           *              working on a common directory               *
           ************************************************************
------------------------------------------------------------------------------
                             ORCA STARTUP CALCULATIONS
                           -- RI-GTO INTEGRALS CHOSEN --
------------------------------------------------------------------------------
------------------------------------------------------------------------------
                   ___                                                        
                  /   \      - P O W E R E D   B Y -                         
                 /     \                                                     
                 |  |  |   _    _      __       _____    __    __             
                 |  |  |  | |  | |    /  \     |  _  \  |  |  /  |          
                  \  \/   | |  | |   /    \    | | | |  |  | /  /          
                 / \  \   | |__| |  /  /\  \   | |_| |  |  |/  /          
                |  |  |   |  __  | /  /__\  \  |    /   |      \           
                |  |  |   | |  | | |   __   |  |    \   |  |\   \          
                \     /   | |  | | |  |  |  |  | |\  \  |  | \   \       
                 \___/    |_|  |_| |__|  |__|  |_| \__\ |__|  \__/        
                                                                              
                      - O R C A' S   B I G   F R I E N D -                    
                                      &                                       
                       - I N T E G R A L  F E E D E R -                       
                                                                              
 v1 FN, 2020, v2 2021, v3 2022-2024                                           
------------------------------------------------------------------------------


----------------------
SHARK INTEGRAL PACKAGE
----------------------

Number of atoms                             ...     24
Number of basis functions                   ...    744
Number of shells                            ...    264
Maximum angular momentum                    ...      3
Integral batch strategy                     ... SHARK/LIBINT Hybrid
RI-J (if used) integral strategy            ... SPLIT-RIJ (Revised 2003 algorithm where possible)
Printlevel                                  ...      1
Contraction scheme used                     ... SEGMENTED contraction
Prescreening option                         ... SCHWARTZ
   Thresh                                   ... 2.500e-11
   Tcut                                     ... 2.500e-12
   Tpresel                                  ... 2.500e-12 
Coulomb Range Separation                    ... NOT USED
Exchange Range Separation                   ... NOT USED
Multipole approximations                    ... NOT USED
Finite Nucleus Model                        ... NOT USED
CABS basis                                  ... NOT available
Auxiliary Coulomb fitting basis             ... AVAILABLE
   # of basis functions in Aux-J            ...   1176
   # of shells in Aux-J                     ...    360
   Maximum angular momentum in Aux-J        ...      4
Auxiliary J/K fitting basis                 ... NOT available
Auxiliary Correlation fitting basis         ... NOT available
Auxiliary 'external' fitting basis          ... NOT available

Checking pre-screening integrals            ... done (  0.0 sec) Dimension = 264
Check shell pair data                       ... done (  0.0 sec)
Shell pair information
Shell pair cut-off parameter TPreSel        ...   2.5e-12
Total number of shell pairs                 ...     34980
Shell pairs after pre-screening             ...     22377
Total number of primitive shell pairs       ...    115968
Primitive shell pairs kept                  ...     47696
          la=0 lb=0:   4191 shell pairs
          la=1 lb=0:   6080 shell pairs
          la=1 lb=1:   2104 shell pairs
          la=2 lb=0:   3332 shell pairs
          la=2 lb=1:   2453 shell pairs
          la=2 lb=2:    698 shell pairs
          la=3 lb=0:   1530 shell pairs
          la=3 lb=1:   1193 shell pairs
          la=3 lb=2:    638 shell pairs
          la=3 lb=3:    158 shell pairs

Calculating one electron integrals          ... done (  0.0 sec)
Calculating RI/J V-Matrix + Cholesky decomp.... done (  0.1 sec)
Calculating Nuclear repulsion               ... done (  0.0 sec) ENN=   2667.753751761511 Eh

Diagonalization of the overlap matrix:
Smallest eigenvalue                        ... 5.631e-05
Time for diagonalization                   ...    0.120 sec
Threshold for overlap eigenvalues          ... 1.000e-07
Number of eigenvalues below threshold      ... 0
Time for construction of square roots      ...    0.059 sec
Total time needed                          ...    0.185 sec

-------------------
DFT GRID GENERATION
-------------------

General Integration Accuracy     IntAcc      ... 4.388
Radial Grid Type                 RadialGrid  ... OptM3 with GC (2021)
Angular Grid (max. ang.)         AngularGrid ... 4 (Lebedev-302)
Angular grid pruning method      GridPruning ... 4 (adaptive)
Weight generation scheme         WeightScheme... mBecke (2022)
Basis function cutoff            BFCut       ... 1.0000e-11
Integration weight cutoff        WCut        ... 1.0000e-14
Partially contracted basis set               ... off
Rotationally invariant grid construction     ... off
Angular grids for H and He will be reduced by one unit

Total number of grid points                  ...   145384
Total number of batches                      ...     2284
Average number of points per batch           ...       63
Average number of grid points per atom       ...     6058

--------------------
COSX GRID GENERATION
--------------------

GRIDX 1
-------
General Integration Accuracy     IntAcc      ... 3.816
Radial Grid Type                 RadialGrid  ... OptM3 with GC (2021)
Angular Grid (max. ang.)         AngularGrid ... 1 (Lebedev-50)
Angular grid pruning method      GridPruning ... 4 (adaptive)
Weight generation scheme         WeightScheme... mBecke (2022)
Basis function cutoff            BFCut       ... 1.0000e-11
Integration weight cutoff        WCut        ... 1.0000e-14
Partially contracted basis set               ... on
Rotationally invariant grid construction     ... off
Angular grids for H and He will be reduced by one unit

Total number of grid points                  ...    18273
Total number of batches                      ...      153
Average number of points per batch           ...      119
Average number of grid points per atom       ...      761
UseSFitting                                  ... on

GRIDX 2
-------
General Integration Accuracy     IntAcc      ... 4.020
Radial Grid Type                 RadialGrid  ... OptM3 with GC (2021)
Angular Grid (max. ang.)         AngularGrid ... 2 (Lebedev-110)
Angular grid pruning method      GridPruning ... 4 (adaptive)
Weight generation scheme         WeightScheme... mBecke (2022)
Basis function cutoff            BFCut       ... 1.0000e-11
Integration weight cutoff        WCut        ... 1.0000e-14
Partially contracted basis set               ... on
Rotationally invariant grid construction     ... off
Angular grids for H and He will be reduced by one unit

Total number of grid points                  ...    43254
Total number of batches                      ...      350
Average number of points per batch           ...      123
Average number of grid points per atom       ...     1802
UseSFitting                                  ... on

GRIDX 3
-------
General Integration Accuracy     IntAcc      ... 4.338
Radial Grid Type                 RadialGrid  ... OptM3 with GC (2021)
Angular Grid (max. ang.)         AngularGrid ... 3 (Lebedev-194)
Angular grid pruning method      GridPruning ... 4 (adaptive)
Weight generation scheme         WeightScheme... mBecke (2022)
Basis function cutoff            BFCut       ... 1.0000e-11
Integration weight cutoff        WCut        ... 1.0000e-14
Partially contracted basis set               ... on
Rotationally invariant grid construction     ... off
Angular grids for H and He will be reduced by one unit

Total number of grid points                  ...    95796
Total number of batches                      ...      759
Average number of points per batch           ...      126
Average number of grid points per atom       ...     3992
UseSFitting                                  ... on
Initializing property integral containers    ... done (  0.0 sec)

SHARK setup successfully completed in   3.7 seconds

Maximum memory used throughout the entire STARTUP-calculation: 57.6 MB


           ************************************************************
           *        Program running with 20 parallel MPI-processes    *
           *              working on a common directory               *
           ************************************************************
-------------------------------------------------------------------------------
                                 ORCA GUESS
                   Start orbitals & Density for SCF / CASSCF
-------------------------------------------------------------------------------

------------
SCF SETTINGS
------------
Hamiltonian:
 Density Functional     Method          .... DFT(GTOs)
  Functional kind                       .... Exchange
  Functional name                       .... Re-regularized SCAN exchange by Furness et al
  Functional family                     .... MGGA
  Functional refs                              
    [ 0] J. W. Furness, A. D. Kaplan, J. Ning, J. P. Perdew, and J. Sun.,  J. Phys. Chem. Lett. 11, 8208-8215 (2020), doi: 10.1021/acs.jpclett.0c02405
    [ 1] J. W. Furness, A. D. Kaplan, J. Ning, J. P. Perdew, and J. Sun.,  J. Phys. Chem. Lett. 11, 9248-9248 (2020), doi: 10.1021/acs.jpclett.0c03077
  Functional external parameters        .... 6
    Parameter  0 _c1        =  6.670000e-01 : c1 parameter        
    Parameter  1 _c2        =  8.000000e-01 : c2 parameter        
    Parameter  2 _d         =  1.240000e+00 : d parameter         
    Parameter  3 _k1        =  6.500000e-02 : k1 parameter        
    Parameter  4 _eta       =  1.000000e-03 : eta parameter       
    Parameter  5 _dp2       =  3.610000e-01 : dp2 parameter       
  Functional kind                       .... Correlation
  Functional name                       .... Re-regularized SCAN correlation by Furness et al
  Functional family                     .... MGGA
  Functional refs                              
    [ 0] J. W. Furness, A. D. Kaplan, J. Ning, J. P. Perdew, and J. Sun.,  J. Phys. Chem. Lett. 11, 8208-8215 (2020), doi: 10.1021/acs.jpclett.0c02405
    [ 1] J. W. Furness, A. D. Kaplan, J. Ning, J. P. Perdew, and J. Sun.,  J. Phys. Chem. Lett. 11, 9248-9248 (2020), doi: 10.1021/acs.jpclett.0c03077
  Functional external parameters        .... 1
    Parameter  0 _eta       =  1.000000e-03 : Regularization parameter
 Gradients option       PostSCFGGA      .... off
 Hybrid DFT is turned on
   Fraction HF Exchange ScalHFX         ....  0.100000
   Scaling of DF-GGA-X  ScalDFX         ....  0.900000
   Scaling of DF-GGA-C  ScalDFC         ....  1.000000
   Scaling of DF-LDA-C  ScalLDAC        ....  1.000000
   Perturbative correction              ....  0.000000
   NL short-range parameter             .... 11.900000
 RI-approximation to the Coulomb term is turned on
   Number of AuxJ basis functions       .... 1176
   RIJ-COSX (HFX calculated with COS-X)).... on


General Settings:
 Integral files         IntName         .... rf_mecn_freq_r2s_C3_D_B
 Hartree-Fock type      HFTyp           .... UHF
 Total Charge           Charge          ....   -1
 Multiplicity           Mult            ....    2
 Number of Electrons    NEL             ....  191
 Basis Dimension        Dim             ....  744
 Nuclear Repulsion      ENuc            ....   2667.7537517615 Eh

Convergence Acceleration:
 AO-DIIS                CNVDIIS         .... on
   Start iteration      DIISMaxIt       ....     0
   Startup error        DIISStart       ....  0.200000
   # of expansion vecs  DIISMaxEq       ....     5
   Bias factor          DIISBfac        ....   1.050
   Max. coefficient     DIISMaxC        ....  10.000
 MO-DIIS                CNVKDIIS        .... off
 Trust-Rad. Augm. Hess. CNVTRAH         .... auto
   Auto Start mean grad. ratio tolernc. ....  1.125000
   Auto Start start iteration           ....    50
   Auto Start num. interpolation iter.  ....    10
   Max. Number of Micro iterations      ....    24
   Max. Number of Macro iterations      .... Maxiter - #DIIS iter
   Number of Davidson start vectors     ....     2
   Converg. threshold    (grad. norm)   ....   1.000e-05
   Grad. Scal. Fac. for Micro threshold ....   0.100
   Minimum threshold for Micro iter.    ....   1.000e-02
   NR start threshold (gradient norm)   ....   1.000e-04
   Initial trust radius                 ....   0.400
   Minimum AH scaling param. (alpha)    ....   1.000
   Maximum AH scaling param. (alpha)    .... 1000.000
   Quad. conv. algorithm                .... NR
   White noise on init. David. guess    .... on
   Maximum white noise                  ....   0.010
   Pseudo random numbers                .... off
   Inactive MOs                         .... canonical
   Orbital update algorithm             .... Taylor
   Preconditioner                       .... Diag
   Full preconditioner red. dimension   ....   250
 SOSCF                  CNVSOSCF        .... on
   Start iteration      SOSCFMaxIt      ....   150
   Startup grad/error   SOSCFStart      ....  0.001000
   Hessian update       SOSCFHessUp     .... L-BFGS
 Level Shifting         CNVShift        .... on
   Level shift para.    LevelShift      ....    0.2500
   Turn off err/grad.   ShiftErr        ....    0.0000
 Zerner damping         CNVZerner       .... off
 Static damping         CNVDamp         .... on
   Fraction old density DampFac         ....    0.8500
   Max. Damping (<1)    DampMax         ....    0.9800
   Min. Damping (>=0)   DampMin         ....    0.0000
   Turn off err/grad.   DampErr         ....    0.0300

SCF Procedure:
 Maximum # iterations   MaxIter         ....  1500
 SCF integral mode      SCFMode         .... Direct
   Integral package                     .... SHARK and LIBINT hybrid scheme
 Reset frequency        DirectResetFreq ....    20
 Integral Threshold     Thresh          ....  2.500e-11 Eh
 Primitive CutOff       TCut            ....  2.500e-12 Eh

Convergence Tolerance:
 Convergence Check Mode ConvCheckMode   .... Total+1el-Energy
 Convergence forced     ConvForced      .... 0
 Energy Change          TolE            ....  1.000e-08 Eh
 1-El. energy change                    ....  1.000e-05 Eh
 Orbital Gradient       TolG            ....  1.000e-05
 Orbital Rotation angle TolX            ....  1.000e-05
 DIIS Error             TolErr          ....  5.000e-07

------------------------------
INITIAL GUESS: MODEL POTENTIAL
------------------------------
Loading Hartree-Fock densities                     ... done
Calculating cut-offs                               ... done
Initializing the effective Hamiltonian             ... done
Setting up the integral package (SHARK)            ... done
Starting the Coulomb interaction                   ... done (   0.2 sec)
Making the grid                                    ... done (   0.4 sec)
Mapping shells                                     ... done
Starting the XC term evaluation                    ... done (   0.2 sec)
  promolecular density results
     # of electrons  =    189.999295706
     EX              =   -197.248018991
     EC              =     -6.680960897
     EX+EC           =   -203.928979888
Transforming the Hamiltonian                       ... done (   0.1 sec)
Diagonalizing the Hamiltonian                      ... done (   0.1 sec)
Back transforming the eigenvectors                 ... done (   0.0 sec)
Now organizing SCF variables                       ... done
                      ------------------
                      INITIAL GUESS DONE (   1.1 sec)
                      ------------------
             **** ENERGY FILE WAS UPDATED (rf_mecn_freq_r2s_C3_D_B.en.tmp) ****
Finished Guess after   2.0 sec
Maximum memory used throughout the entire GUESS-calculation: 46.5 MB


           ************************************************************
           *        Program running with 20 parallel MPI-processes    *
           *              working on a common directory               *
           ************************************************************

-------------------------------------------------------------------------------------------
                                      ORCA LEAN-SCF
                              memory conserving SCF solver
-------------------------------------------------------------------------------------------

--------------------
CPCM SOLVATION MODEL
--------------------
CPCM parameters:
  Epsilon                                         ...      35.6880
  Refrac                                          ...       1.3442
  Rsolv                                           ...       1.3000
  Surface type                                    ... GAUSSIAN VDW
  Discretization scheme                           ... Constant charge density
    Threshold for H atoms                         ...       5.0000 (charges/Ang^2)
    Threshold for non-H atoms                     ...       5.0000 (charges/Ang^2)
  Epsilon function type                           ...         CPCM
Solvent:                                          ... ACETONITRILE
SMD-CDS solvent descriptors:
  Soln                                            ...       1.3442
  Soln25                                          ...       1.3416
  Sola                                            ...       0.0700
  Solb                                            ...       0.3200
  Solg                                            ...      41.2500
  Solc                                            ...       0.0000
  Solh                                            ...       0.0000
Radii:
  Scheme                                          ... Element-dependent radii
  Radius for C  used is    3.4960 Bohr (=   1.8500 Ang.)
  Radius for O  used is    4.0969 Bohr (=   2.1680 Ang.)
  Radius for F  used is    3.2692 Bohr (=   1.7300 Ang.)
Calculating surface                               ...        done! (  0.0s)
Cavity surface points                             ...         2101
Cavity Volume                                     ...    2094.3262
Cavity Surface-area                               ...    1085.9631
Calculating surface distance matrix               ...        done! (  0.0s)
Performing Cholesky decomposition & store         ...        done! (  0.1s)
Overall time for CPCM initialization              ...                 0.2s

----------------------------------------D-I-I-S--------------------------------------------
Iteration    Energy (Eh)           Delta-E    RMSDP     MaxDP     DIISErr   Damp  Time(sec)
-------------------------------------------------------------------------------------------
               ***  Starting incremental Fock matrix formation  ***
    1    -1852.6801664011377397     0.00e+00  2.82e-04  4.97e-02  1.53e-01  0.850   8.0
Warning: op=0 Small HOMO/LUMO gap (   0.044) - skipping pre-diagonalization
         Will do a full diagonalization
    2    -1852.8093335498519991    -1.29e-01  3.82e-04  9.25e-02  1.08e-01  0.850   5.7
                               ***Turning on AO-DIIS***
    3    -1852.8816743757447512    -7.23e-02  1.69e-04  3.55e-02  6.61e-02  0.850   5.0
    4    -1852.9251441130477360    -4.35e-02  8.52e-05  1.04e-02  4.98e-02  0.850   4.8
    5    -1852.9561841654517593    -3.10e-02  5.84e-05  4.24e-03  4.13e-02  0.850   4.5
    6    -1852.9808402426856446    -2.47e-02  4.89e-05  4.05e-03  3.57e-02  0.850   4.5
    7    -1853.0014169337041494    -2.06e-02  4.40e-05  3.72e-03  3.10e-02  0.850   4.3
    8    -1853.0189088961046764    -1.75e-02  3.92e-05  3.23e-03  2.62e-02  0.850   4.4
    9    -1853.0335559511199790    -1.46e-02  2.25e-04  1.82e-02  2.18e-02  0.000   4.5
   10    -1853.1109878066004057    -7.74e-02  1.87e-05  2.90e-03  2.79e-03  0.000   4.7
   11    -1853.1111297621323502    -1.42e-04  1.13e-05  1.61e-03  1.07e-03  0.000   4.4
                              *** Initializing SOSCF ***
---------------------------------------S-O-S-C-F--------------------------------------
Iteration    Energy (Eh)           Delta-E    RMSDP     MaxDP     MaxGrad    Time(sec)
--------------------------------------------------------------------------------------
   12    -1853.1111674957214746    -3.77e-05  7.73e-06  1.09e-03  8.88e-04     4.6
               *** Restarting incremental Fock matrix formation ***
   13    -1853.1111862092598130    -1.87e-05  1.15e-05  1.12e-03  1.19e-03     7.6
   14    -1853.1111939944116784    -7.79e-06  1.19e-05  2.73e-03  7.11e-04     5.0
   15    -1853.1111992295368509    -5.24e-06  5.13e-06  5.60e-04  4.24e-04     5.0
   16    -1853.1112020194600518    -2.79e-06  3.40e-06  7.08e-04  8.73e-05     4.8
   17    -1853.1112021384910804    -1.19e-07  1.95e-06  4.29e-04  1.07e-04     4.5
   18    -1853.1112026167206750    -4.78e-07  6.84e-07  1.08e-04  2.88e-05     4.4
   19    -1853.1112025990510119     1.77e-08  4.09e-07  6.85e-05  1.98e-05     3.8
   20    -1853.1112026561199855    -5.71e-08  1.18e-07  1.27e-05  3.06e-06     3.8
   21    -1853.1112026242949469     3.18e-08  8.56e-08  1.58e-05  3.17e-06     3.2
   22    -1853.1112026540436091    -2.97e-08  1.34e-07  1.94e-05  4.39e-07     3.1
                  *** Gradient check signals convergence ***

               *****************************************************
               *                     SUCCESS                       *
               *           SCF CONVERGED AFTER  22 CYCLES          *
               *****************************************************

Recomputing exchange energy using gridx3       ... done (    8.718 sec)
Old exchange energy                            :    -19.917788051 Eh
New exchange energy                            :    -19.917781619 Eh
Exchange energy change after final integration :      0.000006432 Eh
Total energy after final integration           :  -1853.111196222 Eh

SMD CDS free energy correction energy :                 3.12627     Kcal/mol
Total Energy after SMD CDS correction =             -1853.106214190 Eh
             **** ENERGY FILE WAS UPDATED (rf_mecn_freq_r2s_C3_D_B.en.tmp) ****

----------------
TOTAL SCF ENERGY
----------------

Total Energy       :      -1853.10621419011363 Eh          -50425.58368 eV

Components:
Nuclear Repulsion  :       2667.75375176151056 Eh           72593.27016 eV
Electronic Energy  :      -4520.78408433818549 Eh         -123016.78899 eV
One Electron Energy:      -7911.27685540095626 Eh         -215276.78770 eV
Two Electron Energy:       3390.49277106277077 Eh           92259.99871 eV
CPCM Dielectric    :         -0.08087007736862 Eh              -2.20059 eV
SMD CDS (Gcds)     :          0.00498203197529 Eh               0.13557 eV

Virial components:
Potential Energy   :      -3700.09433790541516 Eh         -100684.68564 eV
Kinetic Energy     :       1846.98812371530130 Eh           50259.10197 eV
Virial Ratio       :          2.00331246876808

DFT components:
N(Alpha)           :       96.000018320270 electrons
N(Beta)            :       95.000004673747 electrons
N(Total)           :      191.000022994017 electrons
E(X)               :     -180.217726988541 Eh       
E(C)               :       -6.651223897908 Eh       
E(XC)              :     -186.868950886448 Eh       

CPCM Solvation Model Properties:
Surface-charge          :          0.99019553422143
Corrected charge        :          1.00000000000000
Outlying charge corr.   :          0.00000537617084 Eh               0.00015 eV
Free-energy (cav+disp)  :          0.00498203197529 Eh               0.13557 eV

---------------
SCF CONVERGENCE
---------------

  Last Energy change         ...    2.9749e-08  Tolerance :   1.0000e-08
  Last MAX-Density change    ...    1.9395e-05  Tolerance :   1.0000e-07
  Last RMS-Density change    ...    1.3449e-07  Tolerance :   5.0000e-09
  Last DIIS Error            ...    8.8800e-04  Tolerance :   5.0000e-07
  Last Orbital Gradient      ...    4.3922e-07  Tolerance :   1.0000e-05
  Last Orbital Rotation      ...    1.5618e-06  Tolerance :   1.0000e-05


----------------------
UHF SPIN CONTAMINATION
----------------------

Warning: in a DFT calculation there is little theoretical justification to 
         calculate <S**2> as in Hartree-Fock theory. We will do it anyways
         but you should keep in mind that the values have only limited relevance

Expectation value of <S**2>     :     0.757266
Ideal value S*(S+1) for S=0.5   :     0.750000
Deviation                       :     0.007266

----------------
ORBITAL ENERGIES
----------------
                 SPIN UP ORBITALS
  NO   OCC          E(Eh)            E(eV) 
   0   1.0000     -24.731616      -672.9815 
   1   1.0000     -24.730404      -672.9485 
   2   1.0000     -24.730307      -672.9459 
   3   1.0000     -24.729827      -672.9328 
   4   1.0000     -24.729072      -672.9123 
   5   1.0000     -24.728751      -672.9035 
   6   1.0000     -24.728624      -672.9001 
   7   1.0000     -24.724929      -672.7995 
   8   1.0000     -24.722287      -672.7276 
   9   1.0000     -24.719580      -672.6540 
  10   1.0000     -24.717185      -672.5888 
  11   1.0000     -24.706591      -672.3005 
  12   1.0000     -24.683449      -671.6708 
  13   1.0000     -24.679030      -671.5506 
  14   1.0000     -19.053812      -518.4806 
  15   1.0000     -19.050621      -518.3938 
  16   1.0000     -10.439050      -284.0610 
  17   1.0000     -10.383896      -282.5602 
  18   1.0000     -10.383568      -282.5513 
  19   1.0000     -10.377613      -282.3892 
  20   1.0000     -10.369262      -282.1620 
  21   1.0000     -10.319921      -280.8193 
  22   1.0000     -10.275879      -279.6209 
  23   1.0000     -10.233522      -278.4683 
  24   1.0000      -1.360786       -37.0289 
  25   1.0000      -1.333282       -36.2805 
  26   1.0000      -1.316161       -35.8146 
  27   1.0000      -1.310933       -35.6723 
  28   1.0000      -1.297387       -35.3037 
  29   1.0000      -1.277712       -34.7683 
  30   1.0000      -1.271846       -34.6087 
  31   1.0000      -1.265988       -34.4493 
  32   1.0000      -1.263358       -34.3777 
  33   1.0000      -1.260168       -34.2909 
  34   1.0000      -1.256271       -34.1849 
  35   1.0000      -1.251949       -34.0673 
  36   1.0000      -1.237005       -33.6606 
  37   1.0000      -1.205330       -32.7987 
  38   1.0000      -1.031573       -28.0705 
  39   1.0000      -0.947834       -25.7919 
  40   1.0000      -0.843907       -22.9639 
  41   1.0000      -0.826944       -22.5023 
  42   1.0000      -0.792593       -21.5675 
  43   1.0000      -0.747977       -20.3535 
  44   1.0000      -0.705454       -19.1964 
  45   1.0000      -0.677816       -18.4443 
  46   1.0000      -0.650895       -17.7118 
  47   1.0000      -0.637980       -17.3603 
  48   1.0000      -0.633495       -17.2383 
  49   1.0000      -0.627466       -17.0742 
  50   1.0000      -0.614773       -16.7288 
  51   1.0000      -0.609168       -16.5763 
  52   1.0000      -0.607910       -16.5421 
  53   1.0000      -0.593749       -16.1567 
  54   1.0000      -0.590702       -16.0738 
  55   1.0000      -0.580338       -15.7918 
  56   1.0000      -0.575402       -15.6575 
  57   1.0000      -0.568134       -15.4597 
  58   1.0000      -0.565240       -15.3810 
  59   1.0000      -0.550312       -14.9747 
  60   1.0000      -0.534184       -14.5359 
  61   1.0000      -0.502020       -13.6606 
  62   1.0000      -0.500226       -13.6118 
  63   1.0000      -0.497007       -13.5243 
  64   1.0000      -0.490731       -13.3535 
  65   1.0000      -0.485208       -13.2032 
  66   1.0000      -0.484181       -13.1752 
  67   1.0000      -0.476858       -12.9760 
  68   1.0000      -0.470406       -12.8004 
  69   1.0000      -0.468120       -12.7382 
  70   1.0000      -0.461621       -12.5613 
  71   1.0000      -0.457750       -12.4560 
  72   1.0000      -0.453992       -12.3538 
  73   1.0000      -0.448658       -12.2086 
  74   1.0000      -0.448168       -12.1953 
  75   1.0000      -0.439799       -11.9675 
  76   1.0000      -0.436903       -11.8887 
  77   1.0000      -0.435621       -11.8539 
  78   1.0000      -0.430720       -11.7205 
  79   1.0000      -0.428077       -11.6486 
  80   1.0000      -0.427427       -11.6309 
  81   1.0000      -0.425555       -11.5800 
  82   1.0000      -0.421264       -11.4632 
  83   1.0000      -0.419228       -11.4078 
  84   1.0000      -0.415789       -11.3142 
  85   1.0000      -0.409218       -11.1354 
  86   1.0000      -0.397401       -10.8138 
  87   1.0000      -0.391536       -10.6542 
  88   1.0000      -0.384519       -10.4633 
  89   1.0000      -0.374502       -10.1907 
  90   1.0000      -0.362251        -9.8574 
  91   1.0000      -0.330564        -8.9951 
  92   1.0000      -0.257761        -7.0140 
  93   1.0000      -0.243810        -6.6344 
  94   1.0000      -0.226739        -6.1699 
  95   1.0000      -0.211194        -5.7469 
  96   0.0000      -0.012866        -0.3501 
  97   0.0000       0.009161         0.2493 
  98   0.0000       0.023241         0.6324 
  99   0.0000       0.055105         1.4995 
 100   0.0000       0.064776         1.7626 
 101   0.0000       0.096131         2.6159 
 102   0.0000       0.112525         3.0620 
 103   0.0000       0.116841         3.1794 
 104   0.0000       0.125271         3.4088 
 105   0.0000       0.142231         3.8703 
 106   0.0000       0.149072         4.0565 

                 SPIN DOWN ORBITALS
  NO   OCC          E(Eh)            E(eV) 
   0   1.0000     -24.731617      -672.9815 
   1   1.0000     -24.730405      -672.9485 
   2   1.0000     -24.730307      -672.9459 
   3   1.0000     -24.729822      -672.9327 
   4   1.0000     -24.729069      -672.9122 
   5   1.0000     -24.728747      -672.9034 
   6   1.0000     -24.728625      -672.9001 
   7   1.0000     -24.724817      -672.7965 
   8   1.0000     -24.722274      -672.7273 
   9   1.0000     -24.716795      -672.5782 
  10   1.0000     -24.714950      -672.5280 
  11   1.0000     -24.704753      -672.2505 
  12   1.0000     -24.683251      -671.6654 
  13   1.0000     -24.678203      -671.5280 
  14   1.0000     -19.052448      -518.4435 
  15   1.0000     -19.050103      -518.3796 
  16   1.0000     -10.439043      -284.0608 
  17   1.0000     -10.383854      -282.5590 
  18   1.0000     -10.383550      -282.5508 
  19   1.0000     -10.377286      -282.3803 
  20   1.0000     -10.370054      -282.1835 
  21   1.0000     -10.320795      -280.8431 
  22   1.0000     -10.259280      -279.1692 
  23   1.0000     -10.232891      -278.4511 
  24   1.0000      -1.360780       -37.0287 
  25   1.0000      -1.333116       -36.2759 
  26   1.0000      -1.315905       -35.8076 
  27   1.0000      -1.310749       -35.6673 
  28   1.0000      -1.295813       -35.2609 
  29   1.0000      -1.271837       -34.6084 
  30   1.0000      -1.271006       -34.5858 
  31   1.0000      -1.265983       -34.4491 
  32   1.0000      -1.263291       -34.3759 
  33   1.0000      -1.257672       -34.2230 
  34   1.0000      -1.256206       -34.1831 
  35   1.0000      -1.251806       -34.0634 
  36   1.0000      -1.234460       -33.5914 
  37   1.0000      -1.204113       -32.7656 
  38   1.0000      -1.030017       -28.0282 
  39   1.0000      -0.946051       -25.7434 
  40   1.0000      -0.841639       -22.9022 
  41   1.0000      -0.817227       -22.2379 
  42   1.0000      -0.783304       -21.3148 
  43   1.0000      -0.744669       -20.2635 
  44   1.0000      -0.704238       -19.1633 
  45   1.0000      -0.676534       -18.4094 
  46   1.0000      -0.645375       -17.5616 
  47   1.0000      -0.637195       -17.3390 
  48   1.0000      -0.631174       -17.1751 
  49   1.0000      -0.627327       -17.0704 
  50   1.0000      -0.614400       -16.7187 
  51   1.0000      -0.607969       -16.5437 
  52   1.0000      -0.605923       -16.4880 
  53   1.0000      -0.592894       -16.1335 
  54   1.0000      -0.588658       -16.0182 
  55   1.0000      -0.578012       -15.7285 
  56   1.0000      -0.573467       -15.6048 
  57   1.0000      -0.564365       -15.3572 
  58   1.0000      -0.562068       -15.2946 
  59   1.0000      -0.547769       -14.9055 
  60   1.0000      -0.532795       -14.4981 
  61   1.0000      -0.501923       -13.6580 
  62   1.0000      -0.496971       -13.5233 
  63   1.0000      -0.491969       -13.3872 
  64   1.0000      -0.487420       -13.2634 
  65   1.0000      -0.484575       -13.1860 
  66   1.0000      -0.477137       -12.9836 
  67   1.0000      -0.470335       -12.7985 
  68   1.0000      -0.469904       -12.7867 
  69   1.0000      -0.466725       -12.7002 
  70   1.0000      -0.458611       -12.4794 
  71   1.0000      -0.456159       -12.4127 
  72   1.0000      -0.452353       -12.3091 
  73   1.0000      -0.448248       -12.1974 
  74   1.0000      -0.446645       -12.1538 
  75   1.0000      -0.438199       -11.9240 
  76   1.0000      -0.436578       -11.8799 
  77   1.0000      -0.435423       -11.8485 
  78   1.0000      -0.429920       -11.6987 
  79   1.0000      -0.427232       -11.6256 
  80   1.0000      -0.425500       -11.5784 
  81   1.0000      -0.423339       -11.5196 
  82   1.0000      -0.419905       -11.4262 
  83   1.0000      -0.418148       -11.3784 
  84   1.0000      -0.414606       -11.2820 
  85   1.0000      -0.407655       -11.0928 
  86   1.0000      -0.396497       -10.7892 
  87   1.0000      -0.389740       -10.6054 
  88   1.0000      -0.382075       -10.3968 
  89   1.0000      -0.373589       -10.1659 
  90   1.0000      -0.358771        -9.7626 
  91   1.0000      -0.327951        -8.9240 
  92   1.0000      -0.243638        -6.6297 
  93   1.0000      -0.228529        -6.2186 
  94   1.0000      -0.224505        -6.1091 
  95   0.0000      -0.094092        -2.5604 
  96   0.0000      -0.011356        -0.3090 
  97   0.0000       0.010859         0.2955 
  98   0.0000       0.027000         0.7347 
  99   0.0000       0.059114         1.6086 
 100   0.0000       0.068977         1.8769 
 101   0.0000       0.106562         2.8997 
 102   0.0000       0.115034         3.1302 
 103   0.0000       0.119994         3.2652 
 104   0.0000       0.127789         3.4773 
 105   0.0000       0.143792         3.9128 
*Only the first 10 virtual orbitals were printed.

                    ********************************
                    * MULLIKEN POPULATION ANALYSIS *
                    ********************************

--------------------------------------------
MULLIKEN ATOMIC CHARGES AND SPIN POPULATIONS
--------------------------------------------
   0 C :    0.208553    0.017057
   1 O :   -0.501321    0.038743
   2 O :   -0.519125    0.013562
   3 C :    0.379884   -0.039174
   4 C :    0.077670    0.830888
   5 C :    0.367250   -0.000891
   6 C :    0.320556    0.005674
   7 C :    0.300787    0.001942
   8 C :    0.328536    0.000634
   9 C :    0.470722    0.000224
  10 F :   -0.214254    0.012184
  11 F :   -0.217307    0.003139
  12 F :   -0.174209    0.078376
  13 F :   -0.185396    0.006068
  14 F :   -0.187799    0.028979
  15 F :   -0.172058    0.001698
  16 F :   -0.162399    0.000743
  17 F :   -0.164742   -0.000070
  18 F :   -0.165599    0.000104
  19 F :   -0.163686    0.000005
  20 F :   -0.161234    0.000036
  21 F :   -0.156412   -0.000009
  22 F :   -0.154169    0.000080
  23 F :   -0.154247    0.000007
Sum of atomic charges         :   -1.0000000
Sum of atomic spin populations:    1.0000000

-----------------------------------------------------
MULLIKEN REDUCED ORBITAL CHARGES AND SPIN POPULATIONS
-----------------------------------------------------
CHARGE
  0 C s       :     3.023924  s :     3.023924
      pz      :     0.919553  p :     2.489605
      px      :     0.796813
      py      :     0.773239
      dz2     :     0.059494  d :     0.253384
      dxz     :     0.025340
      dyz     :     0.051799
      dx2y2   :     0.068906
      dxy     :     0.047844
      f0      :     0.002176  f :     0.024533
      f+1     :     0.002692
      f-1     :     0.006085
      f+2     :     0.002932
      f-2     :     0.003360
      f+3     :     0.003100
      f-3     :     0.004188

  1 O s       :     3.807042  s :     3.807042
      pz      :     1.677570  p :     4.663304
      px      :     1.498177
      py      :     1.487557
      dz2     :     0.004202  d :     0.029129
      dxz     :     0.003923
      dyz     :     0.006844
      dx2y2   :     0.007332
      dxy     :     0.006828
      f0      :     0.000166  f :     0.001846
      f+1     :     0.000125
      f-1     :     0.000320
      f+2     :     0.000280
      f-2     :     0.000347
      f+3     :     0.000265
      f-3     :     0.000342

  2 O s       :     3.808656  s :     3.808656
      pz      :     1.740258  p :     4.679727
      px      :     1.502448
      py      :     1.437021
      dz2     :     0.003879  d :     0.028941
      dxz     :     0.003252
      dyz     :     0.006572
      dx2y2   :     0.007799
      dxy     :     0.007439
      f0      :     0.000175  f :     0.001801
      f+1     :     0.000101
      f-1     :     0.000292
      f+2     :     0.000221
      f-2     :     0.000305
      f+3     :     0.000311
      f-3     :     0.000397

  3 C s       :     3.070205  s :     3.070205
      pz      :     0.939638  p :     2.267145
      px      :     0.738210
      py      :     0.589297
      dz2     :     0.049451  d :     0.256943
      dxz     :     0.044250
      dyz     :     0.053704
      dx2y2   :     0.054408
      dxy     :     0.055129
      f0      :     0.002101  f :     0.025824
      f+1     :     0.003073
      f-1     :     0.004402
      f+2     :     0.003447
      f-2     :     0.003553
      f+3     :     0.005322
      f-3     :     0.003926

  4 C s       :     3.238940  s :     3.238940
      pz      :     0.967597  p :     2.517178
      px      :     0.909736
      py      :     0.639845
      dz2     :     0.017347  d :     0.148485
      dxz     :     0.016173
      dyz     :     0.031576
      dx2y2   :     0.027201
      dxy     :     0.056188
      f0      :     0.001732  f :     0.017728
      f+1     :     0.001466
      f-1     :     0.003183
      f+2     :     0.002417
      f-2     :     0.001535
      f+3     :     0.004973
      f-3     :     0.002422

  5 C s       :     3.065238  s :     3.065238
      pz      :     0.609955  p :     2.250138
      px      :     0.922063
      py      :     0.718120
      dz2     :     0.070923  d :     0.290157
      dxz     :     0.068025
      dyz     :     0.056941
      dx2y2   :     0.037798
      dxy     :     0.056471
      f0      :     0.005543  f :     0.027216
      f+1     :     0.002896
      f-1     :     0.004963
      f+2     :     0.004282
      f-2     :     0.005003
      f+3     :     0.002448
      f-3     :     0.002082

  6 C s       :     3.147839  s :     3.147839
      pz      :     0.606735  p :     2.212374
      px      :     0.886605
      py      :     0.719035
      dz2     :     0.079583  d :     0.291190
      dxz     :     0.058137
      dyz     :     0.056548
      dx2y2   :     0.039200
      dxy     :     0.057722
      f0      :     0.005855  f :     0.028041
      f+1     :     0.002803
      f-1     :     0.004635
      f+2     :     0.005335
      f-2     :     0.004729
      f+3     :     0.002336
      f-3     :     0.002348

  7 C s       :     3.138810  s :     3.138810
      pz      :     0.601566  p :     2.241148
      px      :     0.934599
      py      :     0.704983
      dz2     :     0.069916  d :     0.291265
      dxz     :     0.064801
      dyz     :     0.064451
      dx2y2   :     0.032206
      dxy     :     0.059891
      f0      :     0.004382  f :     0.027990
      f+1     :     0.004021
      f-1     :     0.007253
      f+2     :     0.003143
      f-2     :     0.003847
      f+3     :     0.002877
      f-3     :     0.002467

  8 C s       :     3.103717  s :     3.103717
      pz      :     0.659448  p :     2.251271
      px      :     0.910983
      py      :     0.680840
      dz2     :     0.058258  d :     0.288373
      dxz     :     0.054351
      dyz     :     0.074840
      dx2y2   :     0.040350
      dxy     :     0.060573
      f0      :     0.004802  f :     0.028103
      f+1     :     0.003405
      f-1     :     0.006768
      f+2     :     0.003466
      f-2     :     0.002777
      f+3     :     0.003849
      f-3     :     0.003038

  9 C s       :     3.021243  s :     3.021243
      pz      :     0.696885  p :     2.109070
      px      :     0.763861
      py      :     0.648324
      dz2     :     0.059596  d :     0.358319
      dxz     :     0.074111
      dyz     :     0.084790
      dx2y2   :     0.067575
      dxy     :     0.072246
      f0      :     0.006519  f :     0.040646
      f+1     :     0.006124
      f-1     :     0.007011
      f+2     :     0.004861
      f-2     :     0.003449
      f+3     :     0.008761
      f-3     :     0.003921

 10 F s       :     3.919301  s :     3.919301
      pz      :     1.858808  p :     5.279071
      px      :     1.883039
      py      :     1.537224
      dz2     :     0.002079  d :     0.015236
      dxz     :     0.000611
      dyz     :     0.004632
      dx2y2   :     0.004739
      dxy     :     0.003175
      f0      :     0.000074  f :     0.000646
      f+1     :     0.000010
      f-1     :     0.000121
      f+2     :     0.000133
      f-2     :     0.000049
      f+3     :     0.000118
      f-3     :     0.000141

 11 F s       :     3.923552  s :     3.923552
      pz      :     1.859635  p :     5.278075
      px      :     1.656713
      py      :     1.761727
      dz2     :     0.002166  d :     0.015045
      dxz     :     0.002974
      dyz     :     0.001999
      dx2y2   :     0.002937
      dxy     :     0.004970
      f0      :     0.000067  f :     0.000635
      f+1     :     0.000077
      f-1     :     0.000049
      f+2     :     0.000038
      f-2     :     0.000141
      f+3     :     0.000115
      f-3     :     0.000149

 12 F s       :     3.929699  s :     3.929699
      pz      :     1.827507  p :     5.225817
      px      :     1.904828
      py      :     1.493483
      dz2     :     0.002374  d :     0.017952
      dxz     :     0.000456
      dyz     :     0.005483
      dx2y2   :     0.005847
      dxy     :     0.003792
      f0      :     0.000078  f :     0.000742
      f+1     :     0.000005
      f-1     :     0.000144
      f+2     :     0.000159
      f-2     :     0.000039
      f+3     :     0.000136
      f-3     :     0.000182

 13 F s       :     3.933283  s :     3.933283
      pz      :     1.681800  p :     5.234936
      px      :     1.901934
      py      :     1.651202
      dz2     :     0.002994  d :     0.016496
      dxz     :     0.001801
      dyz     :     0.006511
      dx2y2   :     0.002779
      dxy     :     0.002410
      f0      :     0.000078  f :     0.000682
      f+1     :     0.000022
      f-1     :     0.000201
      f+2     :     0.000177
      f-2     :     0.000105
      f+3     :     0.000051
      f-3     :     0.000048

 14 F s       :     3.925350  s :     3.925350
      pz      :     1.565646  p :     5.246149
      px      :     1.884126
      py      :     1.796377
      dz2     :     0.005194  d :     0.015647
      dxz     :     0.003252
      dyz     :     0.005051
      dx2y2   :     0.000936
      dxy     :     0.001213
      f0      :     0.000141  f :     0.000654
      f+1     :     0.000108
      f-1     :     0.000214
      f+2     :     0.000075
      f-2     :     0.000093
      f+3     :     0.000011
      f-3     :     0.000011

 15 F s       :     3.927914  s :     3.927914
      pz      :     1.605157  p :     5.226462
      px      :     1.869109
      py      :     1.752196
      dz2     :     0.004525  d :     0.016973
      dxz     :     0.003311
      dyz     :     0.005818
      dx2y2   :     0.001460
      dxy     :     0.001859
      f0      :     0.000113  f :     0.000709
      f+1     :     0.000092
      f-1     :     0.000222
      f+2     :     0.000106
      f-2     :     0.000132
      f+3     :     0.000025
      f-3     :     0.000019

 16 F s       :     3.927919  s :     3.927919
      pz      :     1.651257  p :     5.216280
      px      :     1.862923
      py      :     1.702100
      dz2     :     0.003665  d :     0.017465
      dxz     :     0.002988
      dyz     :     0.006167
      dx2y2   :     0.002153
      dxy     :     0.002492
      f0      :     0.000089  f :     0.000734
      f+1     :     0.000066
      f-1     :     0.000206
      f+2     :     0.000137
      f-2     :     0.000153
      f+3     :     0.000045
      f-3     :     0.000038

 17 F s       :     3.927862  s :     3.927862
      pz      :     1.752045  p :     5.218802
      px      :     1.892843
      py      :     1.573914
      dz2     :     0.002441  d :     0.017352
      dxz     :     0.001428
      dyz     :     0.006308
      dx2y2   :     0.003979
      dxy     :     0.003196
      f0      :     0.000080  f :     0.000726
      f+1     :     0.000009
      f-1     :     0.000156
      f+2     :     0.000198
      f-2     :     0.000103
      f+3     :     0.000089
      f-3     :     0.000091

 18 F s       :     3.928372  s :     3.928372
      pz      :     1.482416  p :     5.219264
      px      :     1.889319
      py      :     1.847530
      dz2     :     0.007581  d :     0.017243
      dxz     :     0.004028
      dyz     :     0.004444
      dx2y2   :     0.000512
      dxy     :     0.000678
      f0      :     0.000267  f :     0.000720
      f+1     :     0.000152
      f-1     :     0.000205
      f+2     :     0.000036
      f-2     :     0.000052
      f+3     :     0.000003
      f-3     :     0.000003

 19 F s       :     3.928356  s :     3.928356
      pz      :     1.852642  p :     5.217386
      px      :     1.881692
      py      :     1.483052
      dz2     :     0.002234  d :     0.017223
      dxz     :     0.000570
      dyz     :     0.004515
      dx2y2   :     0.005686
      dxy     :     0.004218
      f0      :     0.000075  f :     0.000721
      f+1     :     0.000012
      f-1     :     0.000121
      f+2     :     0.000138
      f-2     :     0.000052
      f+3     :     0.000158
      f-3     :     0.000166

 20 F s       :     3.926455  s :     3.926455
      pz      :     1.479668  p :     5.216711
      px      :     1.851346
      py      :     1.885697
      dz2     :     0.007742  d :     0.017333
      dxz     :     0.005231
      dyz     :     0.003268
      dx2y2   :     0.000608
      dxy     :     0.000485
      f0      :     0.000274  f :     0.000736
      f+1     :     0.000240
      f-1     :     0.000125
      f+2     :     0.000049
      f-2     :     0.000042
      f+3     :     0.000004
      f-3     :     0.000003

 21 F s       :     3.924505  s :     3.924505
      pz      :     1.876887  p :     5.213794
      px      :     1.881646
      py      :     1.455260
      dz2     :     0.002444  d :     0.017345
      dxz     :     0.000266
      dyz     :     0.004036
      dx2y2   :     0.006647
      dxy     :     0.003954
      f0      :     0.000071  f :     0.000768
      f+1     :     0.000013
      f-1     :     0.000147
      f+2     :     0.000122
      f-2     :     0.000022
      f+3     :     0.000166
      f-3     :     0.000227

 22 F s       :     3.923014  s :     3.923014
      pz      :     1.867305  p :     5.212981
      px      :     1.554107
      py      :     1.791569
      dz2     :     0.002438  d :     0.017395
      dxz     :     0.003525
      dyz     :     0.001235
      dx2y2   :     0.004547
      dxy     :     0.005650
      f0      :     0.000077  f :     0.000779
      f+1     :     0.000116
      f-1     :     0.000039
      f+2     :     0.000061
      f-2     :     0.000114
      f+3     :     0.000153
      f-3     :     0.000220

 23 F s       :     3.923134  s :     3.923134
      pz      :     1.458610  p :     5.212811
      px      :     1.876487
      py      :     1.877714
      dz2     :     0.008626  d :     0.017520
      dxz     :     0.004362
      dyz     :     0.003810
      dx2y2   :     0.000372
      dxy     :     0.000350
      f0      :     0.000332  f :     0.000783
      f+1     :     0.000207
      f-1     :     0.000177
      f+2     :     0.000032
      f-2     :     0.000030
      f+3     :     0.000002
      f-3     :     0.000002


SPIN
  0 C s       :     0.006822  s :     0.006822
      pz      :     0.014577  p :     0.010138
      px      :    -0.002034
      py      :    -0.002405
      dz2     :     0.000587  d :    -0.000283
      dxz     :    -0.000279
      dyz     :    -0.000305
      dx2y2   :    -0.000018
      dxy     :    -0.000268
      f0      :     0.000053  f :     0.000380
      f+1     :     0.000125
      f-1     :     0.000151
      f+2     :     0.000044
      f-2     :    -0.000002
      f+3     :     0.000032
      f-3     :    -0.000022

  1 O s       :     0.001247  s :     0.001247
      pz      :     0.036996  p :     0.037524
      px      :     0.000258
      py      :     0.000270
      dz2     :     0.000004  d :    -0.000014
      dxz     :    -0.000001
      dyz     :    -0.000003
      dx2y2   :    -0.000004
      dxy     :    -0.000011
      f0      :    -0.000007  f :    -0.000014
      f+1     :    -0.000002
      f-1     :    -0.000003
      f+2     :    -0.000002
      f-2     :    -0.000002
      f+3     :     0.000001
      f-3     :     0.000001

  2 O s       :     0.000899  s :     0.000899
      pz      :    -0.000270  p :     0.012548
      px      :     0.013226
      py      :    -0.000408
      dz2     :    -0.000002  d :     0.000102
      dxz     :     0.000036
      dyz     :     0.000042
      dx2y2   :     0.000030
      dxy     :    -0.000003
      f0      :     0.000001  f :     0.000012
      f+1     :     0.000007
      f-1     :     0.000003
      f+2     :     0.000001
      f-2     :     0.000000
      f+3     :    -0.000000
      f-3     :     0.000001

  3 C s       :    -0.005850  s :    -0.005850
      pz      :    -0.029002  p :    -0.049299
      px      :    -0.013877
      py      :    -0.006420
      dz2     :     0.009327  d :     0.014492
      dxz     :     0.004479
      dyz     :    -0.000055
      dx2y2   :    -0.000398
      dxy     :     0.001139
      f0      :     0.000048  f :     0.001484
      f+1     :     0.000620
      f-1     :     0.000109
      f+2     :     0.000266
      f-2     :     0.000080
      f+3     :     0.000013
      f-3     :     0.000348

  4 C s       :     0.073652  s :     0.073652
      pz      :     0.621111  p :     0.758948
      px      :     0.053658
      py      :     0.084179
      dz2     :    -0.001702  d :     0.001162
      dxz     :     0.001491
      dyz     :     0.000397
      dx2y2   :    -0.001357
      dxy     :     0.002333
      f0      :    -0.000895  f :    -0.002875
      f+1     :    -0.000582
      f-1     :    -0.000885
      f+2     :    -0.000205
      f-2     :    -0.000196
      f+3     :    -0.000040
      f-3     :    -0.000072

  5 C s       :    -0.019707  s :    -0.019707
      pz      :     0.021961  p :     0.000530
      px      :    -0.021424
      py      :    -0.000006
      dz2     :    -0.000648  d :     0.016791
      dxz     :     0.007950
      dyz     :     0.006033
      dx2y2   :     0.002118
      dxy     :     0.001338
      f0      :     0.000581  f :     0.001495
      f+1     :     0.000031
      f-1     :    -0.000011
      f+2     :     0.000296
      f-2     :     0.000440
      f+3     :     0.000092
      f-3     :     0.000066

  6 C s       :    -0.000790  s :    -0.000790
      pz      :     0.000758  p :     0.006224
      px      :     0.000603
      py      :     0.004863
      dz2     :    -0.000148  d :     0.000204
      dxz     :    -0.000011
      dyz     :     0.000149
      dx2y2   :     0.000209
      dxy     :     0.000004
      f0      :     0.000021  f :     0.000037
      f+1     :     0.000003
      f-1     :    -0.000015
      f+2     :     0.000008
      f-2     :     0.000011
      f+3     :     0.000016
      f-3     :    -0.000007

  7 C s       :    -0.000154  s :    -0.000154
      pz      :     0.000323  p :     0.001864
      px      :     0.000451
      py      :     0.001091
      dz2     :     0.000023  d :     0.000219
      dxz     :     0.000026
      dyz     :    -0.000002
      dx2y2   :     0.000179
      dxy     :    -0.000008
      f0      :    -0.000002  f :     0.000013
      f+1     :     0.000002
      f-1     :     0.000002
      f+2     :     0.000005
      f-2     :    -0.000000
      f+3     :     0.000007
      f-3     :    -0.000002

  8 C s       :     0.000059  s :     0.000059
      pz      :     0.000044  p :     0.000511
      px      :     0.000174
      py      :     0.000293
      dz2     :    -0.000004  d :     0.000060
      dxz     :     0.000019
      dyz     :    -0.000002
      dx2y2   :     0.000024
      dxy     :     0.000023
      f0      :    -0.000000  f :     0.000004
      f+1     :    -0.000001
      f-1     :     0.000001
      f+2     :     0.000000
      f-2     :    -0.000000
      f+3     :     0.000004
      f-3     :    -0.000000

  9 C s       :     0.000047  s :     0.000047
      pz      :     0.000067  p :     0.000156
      px      :     0.000046
      py      :     0.000043
      dz2     :     0.000000  d :     0.000020
      dxz     :    -0.000001
      dyz     :     0.000003
      dx2y2   :     0.000010
      dxy     :     0.000007
      f0      :    -0.000000  f :     0.000002
      f+1     :    -0.000000
      f-1     :    -0.000000
      f+2     :     0.000000
      f-2     :     0.000001
      f+3     :     0.000001
      f-3     :    -0.000000

 10 F s       :    -0.000234  s :    -0.000234
      pz      :     0.000144  p :     0.012453
      px      :     0.001590
      py      :     0.010719
      dz2     :    -0.000014  d :    -0.000042
      dxz     :     0.000023
      dyz     :    -0.000023
      dx2y2   :    -0.000011
      dxy     :    -0.000017
      f0      :     0.000001  f :     0.000006
      f+1     :    -0.000000
      f-1     :     0.000001
      f+2     :    -0.000000
      f-2     :     0.000001
      f+3     :     0.000001
      f-3     :     0.000002

 11 F s       :    -0.000728  s :    -0.000728
      pz      :     0.000014  p :     0.003925
      px      :     0.001126
      py      :     0.002785
      dz2     :     0.000008  d :    -0.000060
      dxz     :    -0.000024
      dyz     :    -0.000008
      dx2y2   :    -0.000015
      dxy     :    -0.000021
      f0      :     0.000001  f :     0.000003
      f+1     :     0.000000
      f-1     :     0.000000
      f+2     :     0.000001
      f-2     :     0.000000
      f+3     :     0.000000
      f-3     :     0.000000

 12 F s       :     0.008890  s :     0.008890
      pz      :     0.063589  p :     0.067648
      px      :     0.003556
      py      :     0.000503
[...]
 15:    126.29   0.000074    0.38  0.000183  ( 0.010368  0.007359 -0.004671)
 16:    147.77   0.000286    1.45  0.000604  (-0.009356  0.015464  0.016651)
 17:    184.26   0.000903    4.56  0.001529  (-0.020605  0.010971  0.031372)
 18:    189.59   0.001075    5.43  0.001769  (-0.025300 -0.011681  0.031507)
 19:    202.29   0.001878    9.49  0.002897  (-0.012994 -0.026762  0.044860)
 20:    213.37   0.000778    3.93  0.001138  ( 0.025439 -0.000555 -0.022148)
 21:    227.56   0.000046    0.23  0.000064  (-0.003918  0.005988  0.003540)
 22:    246.59   0.000234    1.18  0.000296  ( 0.014404  0.009412 -0.000238)
 23:    250.13   0.000082    0.41  0.000102  ( 0.004452  0.006249  0.006600)
 24:    252.51   0.000530    2.68  0.000656  ( 0.021219  0.012516  0.006974)
 25:    284.88   0.001902    9.61  0.002084  (-0.044767  0.008715 -0.001962)
 26:    291.82   0.000318    1.61  0.000340  ( 0.015565  0.009565 -0.002464)
 27:    310.06   0.000091    0.46  0.000091  ( 0.000274 -0.004452  0.008457)
 28:    323.06   0.000553    2.79  0.000534  ( 0.022467  0.005400 -0.000133)
 29:    342.39   0.000198    1.00  0.000181  (-0.002762  0.003432  0.012701)
 30:    351.55   0.000705    3.56  0.000626  ( 0.013160  0.008951  0.019310)
 31:    364.12   0.000092    0.47  0.000079  ( 0.006379  0.004872 -0.003844)
 32:    369.28   0.000040    0.20  0.000034  (-0.002298  0.005044 -0.001727)
 33:    382.21   0.000116    0.59  0.000095  (-0.009688 -0.000525  0.000758)
 34:    402.31   0.000041    0.21  0.000032  (-0.004886  0.001737 -0.002156)
 35:    433.13   0.000732    3.70  0.000527  ( 0.014396  0.017468  0.003881)
 36:    453.79   0.003448   17.43  0.002371  ( 0.045399 -0.008029  0.015682)
 37:    479.35   0.001635    8.26  0.001065  ( 0.032285 -0.002591 -0.003942)
 38:    524.70   0.001451    7.33  0.000863  (-0.029006 -0.004328  0.001749)
 39:    534.29   0.004210   21.28  0.002459  (-0.039613  0.028948  0.007211)
 40:    571.58   0.002246   11.35  0.001226  (-0.018631 -0.028036 -0.009649)
 41:    577.31   0.008220   41.54  0.004443  ( 0.059632  0.029012  0.006743)
 42:    605.99   0.001121    5.67  0.000578  (-0.012036  0.006986 -0.019592)
 43:    610.19   0.007906   39.95  0.004043  ( 0.063290 -0.005875  0.001773)
 44:    630.68   0.001696    8.57  0.000839  (-0.018636 -0.001226 -0.022149)
 45:    660.14   0.025198  127.34  0.011912  (-0.108640 -0.004171 -0.009587)
 46:    699.32   0.025813  130.45  0.011519  (-0.107275  0.003319  0.000130)
 47:    722.64   0.001598    8.08  0.000690  (-0.010000  0.002533  0.024161)
 48:    755.63   0.012860   64.99  0.005311  (-0.000763 -0.009696  0.072224)
 49:    777.72   0.007168   36.23  0.002876  ( 0.008918 -0.020810  0.048618)
 50:    806.32   0.015603   78.85  0.006039  (-0.039250 -0.019270 -0.064240)
 51:    879.83   0.001008    5.09  0.000357  ( 0.013415 -0.010876  0.007692)
 52:    991.50   0.001522    7.69  0.000479  (-0.020045  0.005293  0.007024)
 53:   1032.16   0.056921  287.65  0.017209  ( 0.083652  0.046653 -0.089640)
 54:   1060.41   0.040834  206.36  0.012017  (-0.011670 -0.108931  0.003836)
 55:   1092.46   0.042168  213.10  0.012045  ( 0.055082 -0.025013  0.091574)
 56:   1122.33   0.009120   46.09  0.002536  ( 0.018732  0.023334  0.040503)
 57:   1139.40   0.015022   75.92  0.004114  (-0.043278  0.040225 -0.024967)
 58:   1149.58   0.145395  734.77  0.039469  (-0.007285  0.173489  0.096526)
 59:   1170.90   0.034159  172.63  0.009104  (-0.006943 -0.056213  0.076784)
 60:   1173.86   0.042443  214.49  0.011283  (-0.005199 -0.091525  0.053661)
 61:   1184.29   0.042622  215.40  0.011231  (-0.001711  0.102765 -0.025836)
 62:   1186.46   0.091558  462.70  0.024082  (-0.066277  0.018872  0.139042)
 63:   1208.03   0.107907  545.32  0.027875  ( 0.048150  0.076448 -0.140400)
 64:   1225.01   0.007871   39.78  0.002005  (-0.035879  0.025615  0.007859)
 65:   1257.48   0.024465  123.63  0.006071  (-0.060576  0.042331  0.024696)
 66:   1298.47   0.005402   27.30  0.001298  ( 0.003496 -0.034192 -0.010811)
 67:   1337.59   0.061200  309.28  0.014278  (-0.045174 -0.026362 -0.107436)
 68:   1360.38   0.001020    5.15  0.000234  ( 0.013387 -0.001531  0.007233)
 69:   1367.78   0.042353  214.04  0.009663  ( 0.079604  0.011936 -0.056425)
 70:   1411.07   0.005973   30.19  0.001321  (-0.003135 -0.032723  0.015503)
 71:   1747.54   0.153513  775.79  0.027413  ( 0.086939 -0.140062 -0.015413)

* The epsilon (eps) is given for a Dirac delta lineshape.
** The dipole moment derivative (T) already includes vibrational overlap.

The first frequency considered to be a vibration is 6
The total number of vibrations considered is 66


--------------------------
THERMOCHEMISTRY AT 298.15K
--------------------------

Temperature         ...   298.15 K
Pressure            ...     1.00 atm
Total Mass          ...   394.06 AMU
Quasi RRHO          ...     True
Cut-Off Frequency   ...     1.00 cm^-1

Throughout the following assumptions are being made:
  (1) The electronic state is orbitally nondegenerate
      but the spin degeneracy is treated
  (2) There are no thermally accessible electronically excited states
  (3) Hindered rotations indicated by low frequency modes are not
      treated as such but are treated as vibrations and this may
      cause some error
  (4) All equations used are the standard statistical mechanics
      equations for an ideal gas
  (5) All vibrations are strictly harmonic

freq.      21.22  E(vib)   ...       0.56 
freq.      25.85  E(vib)   ...       0.56 
freq.      38.42  E(vib)   ...       0.54 
freq.      41.84  E(vib)   ...       0.53 
freq.      48.42  E(vib)   ...       0.53 
freq.      57.22  E(vib)   ...       0.51 
freq.      64.11  E(vib)   ...       0.51 
freq.      83.01  E(vib)   ...       0.48 
freq.      94.78  E(vib)   ...       0.47 
freq.     126.29  E(vib)   ...       0.43 
freq.     147.77  E(vib)   ...       0.41 
freq.     184.26  E(vib)   ...       0.37 
freq.     189.59  E(vib)   ...       0.36 
freq.     202.29  E(vib)   ...       0.35 
freq.     213.37  E(vib)   ...       0.34 
freq.     227.56  E(vib)   ...       0.33 
freq.     246.59  E(vib)   ...       0.31 
freq.     250.13  E(vib)   ...       0.31 
freq.     252.51  E(vib)   ...       0.30 
freq.     284.88  E(vib)   ...       0.28 
freq.     291.82  E(vib)   ...       0.27 
freq.     310.06  E(vib)   ...       0.26 
freq.     323.06  E(vib)   ...       0.25 
freq.     342.39  E(vib)   ...       0.23 
freq.     351.55  E(vib)   ...       0.23 
freq.     364.12  E(vib)   ...       0.22 
freq.     369.28  E(vib)   ...       0.21 
freq.     382.21  E(vib)   ...       0.21 
freq.     402.31  E(vib)   ...       0.19 
freq.     433.13  E(vib)   ...       0.17 
freq.     453.79  E(vib)   ...       0.16 
freq.     479.35  E(vib)   ...       0.15 
freq.     524.70  E(vib)   ...       0.13 
freq.     534.29  E(vib)   ...       0.13 
freq.     571.58  E(vib)   ...       0.11 
freq.     577.31  E(vib)   ...       0.11 
freq.     605.99  E(vib)   ...       0.10 
freq.     610.19  E(vib)   ...       0.10 
freq.     630.68  E(vib)   ...       0.09 
freq.     660.14  E(vib)   ...       0.08 
freq.     699.32  E(vib)   ...       0.07 
freq.     722.64  E(vib)   ...       0.07 
freq.     755.63  E(vib)   ...       0.06 
freq.     777.72  E(vib)   ...       0.05 
freq.     806.32  E(vib)   ...       0.05 
freq.     879.83  E(vib)   ...       0.04 
freq.     991.50  E(vib)   ...       0.02 
freq.    1032.16  E(vib)   ...       0.02 
freq.    1060.41  E(vib)   ...       0.02 
freq.    1092.46  E(vib)   ...       0.02 
freq.    1122.33  E(vib)   ...       0.01 
freq.    1139.40  E(vib)   ...       0.01 
freq.    1149.58  E(vib)   ...       0.01 
freq.    1170.90  E(vib)   ...       0.01 
freq.    1173.86  E(vib)   ...       0.01 
freq.    1184.29  E(vib)   ...       0.01 
freq.    1186.46  E(vib)   ...       0.01 
freq.    1208.03  E(vib)   ...       0.01 
freq.    1225.01  E(vib)   ...       0.01 
freq.    1257.48  E(vib)   ...       0.01 
freq.    1298.47  E(vib)   ...       0.01 
freq.    1337.59  E(vib)   ...       0.01 
freq.    1360.38  E(vib)   ...       0.01 
freq.    1367.78  E(vib)   ...       0.01 
freq.    1411.07  E(vib)   ...       0.00 
freq.    1747.54  E(vib)   ...       0.00 

------------
INNER ENERGY
------------

The inner energy is: U= E(el) + E(ZPE) + E(vib) + E(rot) + E(trans)
    E(el)   - is the total energy from the electronic structure calculation
              = E(kin-el) + E(nuc-el) + E(el-el) + E(nuc-nuc)
    E(ZPE)  - the the zero temperature vibrational energy from the frequency calculation
    E(vib)  - the the finite temperature correction to E(ZPE) due to population
              of excited vibrational states
    E(rot)  - is the rotational thermal energy
    E(trans)- is the translational thermal energy

Summary of contributions to the inner energy U:
Electronic energy                ...  -1853.11451360 Eh
Zero point energy                ...      0.09380628 Eh      58.86 kcal/mol
Thermal vibrational correction   ...      0.01976634 Eh      12.40 kcal/mol
Thermal rotational correction    ...      0.00141627 Eh       0.89 kcal/mol
Thermal translational correction ...      0.00141627 Eh       0.89 kcal/mol
-----------------------------------------------------------------------
Total thermal energy                  -1852.99810844 Eh


Summary of corrections to the electronic energy:
(perhaps to be used in another calculation)
Total thermal correction                  0.02259888 Eh      14.18 kcal/mol
Non-thermal (ZPE) correction              0.09380628 Eh      58.86 kcal/mol
-----------------------------------------------------------------------
Total correction                          0.11640516 Eh      73.05 kcal/mol


--------
ENTHALPY
--------

The enthalpy is H = U + kB*T
                kB is Boltzmann's constant
Total thermal energy              ...  -1852.99810844 Eh 
Thermal Enthalpy correction       ...      0.00094421 Eh       0.59 kcal/mol
-----------------------------------------------------------------------
Total Enthalpy                    ...  -1852.99716423 Eh


Note: Only C1 symmetry has been detected, increase convergence thresholds 
      if your molecule has a higher symmetry. Symmetry factor of 1.0 is   
      used for the rotational entropy correction. 
 

Note: Rotational entropy computed according to Herzberg 
Infrared and Raman Spectra, Chapter V,1, Van Nostrand Reinhold, 1945 
Point Group:  C1, Symmetry Number:   1  
Rotational constants in cm-1:     0.018839     0.004455     0.004330 

Vibrational entropy computed according to the QRRHO of S. Grimme
Chem.Eur.J. 2012 18 9955 using a reference frequency of 100.0 cm-1


-------
ENTROPY
-------

The entropy contributions are T*S = T*(S(el)+S(vib)+S(rot)+S(trans))
     S(el)   - electronic entropy
     S(vib)  - vibrational entropy
     S(rot)  - rotational entropy
     S(trans)- translational entropy
The entropies will be listed as multiplied by the temperature to get
units of energy

Electronic entropy                ...      0.00065446 Eh      0.41 kcal/mol
Vibrational entropy               ...      0.03575977 Eh     22.44 kcal/mol
Rotational entropy                ...      0.01651085 Eh     10.36 kcal/mol
Translational entropy             ...      0.02081341 Eh     13.06 kcal/mol
-----------------------------------------------------------------------
Final entropy term                ...      0.07373849 Eh     46.27 kcal/mol

In case the symmetry of your molecule has not been determined correctly
or in case you have a reason to use a different symmetry number we print 
out the resulting rotational entropy values for sn=1,12:

 non-linear molecules -----------------------------------
|  sn= 1 | S(rot)=       0.01651085 Eh     10.36 kcal/mol|
|  sn= 2 | S(rot)=       0.01585639 Eh      9.95 kcal/mol|
|  sn= 3 | S(rot)=       0.01547356 Eh      9.71 kcal/mol|
|  sn= 4 | S(rot)=       0.01520193 Eh      9.54 kcal/mol|
|  sn= 5 | S(rot)=       0.01499125 Eh      9.41 kcal/mol|
|  sn= 6 | S(rot)=       0.01481910 Eh      9.30 kcal/mol|
|  sn= 7 | S(rot)=       0.01467356 Eh      9.21 kcal/mol|
|  sn= 8 | S(rot)=       0.01454748 Eh      9.13 kcal/mol|
|  sn= 9 | S(rot)=       0.01443627 Eh      9.06 kcal/mol|
|  sn=10 | S(rot)=       0.01433679 Eh      9.00 kcal/mol|
|  sn=11 | S(rot)=       0.01424680 Eh      8.94 kcal/mol|
|  sn=12 | S(rot)=       0.01416465 Eh      8.89 kcal/mol|
 linear molecules ---------------------------------------
|  Dinfh | S(rot)=       0.01046430 Eh      6.57 kcal/mol|
|  Cinfv | S(rot)=       0.01111876 Eh      6.98 kcal/mol|
 --------------------------------------------------------


-------------------
GIBBS FREE ENERGY
-------------------

The Gibbs free energy is G = H - T*S

Total enthalpy                    ...  -1852.99716423 Eh 
Total entropy correction          ...     -0.07373849 Eh    -46.27 kcal/mol
-----------------------------------------------------------------------
Final Gibbs free energy         ...  -1853.07090272 Eh

For completeness - the Gibbs free energy minus the electronic energy
G-E(el)                           ...      0.04361088 Eh     27.37 kcal/mol


Maximum memory used throughout the entire PROP-calculation: 524.0 MB

--------------------------------
SUGGESTED CITATIONS FOR THIS RUN
--------------------------------

Below you find a list of papers that are relevant to this ORCA run
We neither can nor want to force you to cite these papers, but we appreciate if you do
You receive ORCA, which is the product of decades of hard work by many enthusiastic individuals, for free
The only thing we kindly ask in return is that you cite our papers,
We deeply appreciate it, if you show your appreciation for ORCA by not just citing the generic ORCA reference.

Please note that relegating all ORCA citations to the supporting information does *not* help us.
SI sections are not indexed - citations you put there will not count into any citation statistics
But we need these citations in order to attract the funding resources that allow us to do what we are doing

Therefore, if you are a happy ORCA user, please consider citing a few of the papers listed below in the main body of your paper

In addition to the list printed below, the program has created the file rf_mecn_freq_r2s_C3_D_B.bibtex that contains the list in bibtex format
You can import this file easily into all common literature databanks and citation aid programs


List of essential papers. We consider these as the minimum necessary citations

  1. Neese,F.
     Software update: the ORCA program system, version 5.0
     WIRES Comput. Molec. Sci., 2022 12(1)e1606
     doi.org/10.1002/wcms.1606

List of papers to cite with high priority. The work reported in these papers was absolutely
necessary for this run to complete.
Our perspective: the developers of density functionals and basis sets usually get cited in chemistry papers
Good! But without the algorithms to do something with them, the functionals or basis sets would not do anything.
Hence, in our opinion, the algorithm design and method developments papers are equally worthy of getting cited

  1. Neese,F.
     An improvement of the resolution of the identity approximation for the formation of the Coulomb matrix
     J. Comp. Chem., 2003 24(14)1740-1747
     doi.org/10.1002/jcc.10318
  2. Neese,F.; Wennmohs,F.; Hansen,A.; Becker,U.
     Efficient, approximate and parallel Hartree-Fock and hybrid DFT calculations. A 'chain-of-spheres' algorithm for the Hartree-Fock exchange
     Chem. Phys., 2009 356(1-3)98-109
     doi.org/10.1016/j.chemphys.2008.10.036
  3. Bykov,D.; Petrenko,T.; Izsak,R.; Kossmann,S.; Becker,U.; Valeev,E.; Neese,F.
     Efficient implementation of the analytic second derivatives of Hartree-Fock and hybrid DFT energies: a detailed analysis of different approximations
     Molec. Phys., 2015 113 1961-1977
     doi.org/10.1080/00268976.2015.1025114
  4. Garcia-Rates,M.; Neese,F.
     Efficient implementation of the analytical second derivatives of hartree-fock and hybrid DFT energies within the framework of the conductor-like polarizable continuum model
     J. Comput. Chem., 2019 40 1816-1828
     doi.org/10.1002/jcc.25833
  5. Garcia-Rates,M.; Neese,F.
     Effect of the Solute Cavity on the Solvation Energy and its Derivatives within the Framework of the Gaussian Charge Scheme
     J. Comput. Chem., 2020 41 922-939
     doi.org/10.1002/jcc.26139
  6. Helmich-Paris,B.; de Souza,B.; Neese,F.; Izsák,R.
     An improved chain of spheres for exchange algorithm
     J. Chem. Phys., 2021 155 104109
     doi.org/doi: 10.1063/5.0058766.
  7. Neese,F.
     The SHARK Integral Generation and Digestion System
     J. Comp. Chem., 2022  1-16
     doi.org/10.1002/jcc.26942
  8. Lehtola,S.; Steigemann,C.; Oliveira,M.; Marques,M.
     Recent developments in Libxc - A comprehensive library of functionals for density functional theory
     Software X, 2018 7 
     doi.org/10.1016/j.softx.2017.11.002
  9. Grimme,S.; Antony,J.; Ehrlich,S.; Krieg,H.
     A consistent and accurate ab initio parametrization of density functional dispersion correction (DFT-D) for the 94 elements H-Pu
     J. Chem. Phys., 2010 132 154104
     doi.org/10.1063/1.3382344
 10. Grimme,S.; Ehrlich,S.; Goerigk,L.
     Effect of the damping function in dispersion corrected density functional theory
     J. Comput. Chem., 2011 32(7)1456-1465
     doi.org/10.1002/jcc.21759
 11. Bursch,M.; Neugebauer,H.; Ehlert,S.; Grimme,S.
     Dispersion corrected r2SCAN based global hybrid functionals: r2SCANh, r2SCAN0, and r2SCAN50
     J. Phys. Chem., 2022 156(13)134105
     doi.org/10.1063/5.0086040

List of suggested additional citations. These are papers that are important in the 'surrounding' of 
of this run, or papers that preceded the highly important papers. If you like your results we are grateful for a citation.

  1. Izsak,R.; Neese,F.
     An overlap fitted chain of spheres exchange method
     J. Chem. Phys., 2011 135 144105
     doi.org/10.1063/1.3646921
  2. Izsak,R.; Hansen,A.; Neese,F.
     The resolution of identity and chain of spheres approximations for the LPNO-CCSD singles Fock term
     Molec. Phys., 2012 110 2413-2417
     doi.org/10.1080/00268976.2012.687466
  3. Neese,F.
     The ORCA program system
     WIRES Comput. Molec. Sci., 2012 2(1)73-78
     doi.org/10.1002/wcms.81
  4. Izsak,R.; Neese,F.; Klopper,W.
     Robust fitting techniques in the chain of spheres approximation to the Fock exchange: The role of the complementary space
     J. Chem. Phys., 2013 139 
     doi.org/10.1063/1.4819264
  5. Neese,F.
     Software update: the ORCA program system, version 4.0
     WIRES Comput. Molec. Sci., 2018 8(1)1-6
     doi.org/10.1002/wcms.1327
  6. Neese,F.; Wennmohs,F.; Becker,U.; Riplinger,C.
     The ORCA quantum chemistry program package
     J. Chem. Phys., 2020 152 Art. No. L224108
     doi.org/10.1063/5.0004608
  7. Wittmann,L.; Neugebauer,H.; Grimme,S.; Bursch,M.
     Dispersion-corrected r2SCAN based double-hybrid functionals
     J. Chem. Phys., 2023 159(22)224103
     doi.org/10.1063/5.0174988

List of optional additional citations

  1. Neese,F.
     Approximate second-order SCF convergence for spin unrestricted wavefunctions
     Chem. Phys. Lett., 2000 325(1-3)93-98
     doi.org/10.1016/s0009-2614(00)00662-x

Timings for individual modules:

Sum of individual times          ...     1423.026 sec (=  23.717 min)
Startup calculation              ...        4.307 sec (=   0.072 min)   0.3 %
SCF iterations                   ...      118.591 sec (=   1.977 min)   8.3 %
Property integrals               ...      452.168 sec (=   7.536 min)  31.8 %
SCF Response                     ...      632.321 sec (=  10.539 min)  44.4 %
Property calculations            ...      215.639 sec (=   3.594 min)  15.2 %
                             ****ORCA TERMINATED NORMALLY****
TOTAL RUN TIME: 0 days 0 hours 23 minutes 43 seconds 820 msec
