
                                 *****************
                                 * O   R   C   A *
                                 *****************

                                            #,                                       
                                            ###                                      
                                            ####                                     
                                            #####                                    
                                            ######                                   
                                           ########,                                 
                                     ,,################,,,,,                         
                               ,,#################################,,                 
                          ,,##########################################,,             
                       ,#########################################, ''#####,          
                    ,#############################################,,   '####,        
                  ,##################################################,,,,####,       
                ,###########''''           ''''###############################       
              ,#####''   ,,,,##########,,,,          '''####'''          '####       
            ,##' ,,,,###########################,,,                        '##       
           ' ,,###''''                  '''############,,,                           
         ,,##''                                '''############,,,,        ,,,,,,###''
      ,#''                                            '''#######################'''  
     '                                                          ''''####''''         
             ,#######,   #######,   ,#######,      ##                                
            ,#'     '#,  ##    ##  ,#'     '#,    #''#        ,####,   ,####,        
            ##       ##  ##   ,#'  ##            #'  '#       #'       #'  '#        
            ##       ##  #######   ##           ,######,      #####,   #    #        
            '#,     ,#'  ##    ##  '#,     ,#' ,#      #,     #,   #   #,  ,#        
             '#######'   ##     ##  '#######'  #'      '#     '####' # '####'        



                #########################################################
                #                        -***-                          #
                #          Department of theory and spectroscopy        #
                #                                                       #
                #                      Frank Neese                      #
                #                                                       #
                #     Directorship, Architecture, Infrastructure        #
                #                    SHARK, DRIVERS                     #
                #        Core code/Algorithms in most modules           #
                #                                                       #
                #        Max Planck Institute fuer Kohlenforschung      #
                #                Kaiser Wilhelm Platz 1                 #
                #                 D-45470 Muelheim/Ruhr                 #
                #                      Germany                          #
                #                                                       #
                #                  All rights reserved                  #
                #                        -***-                          #
                #########################################################


                         Program Version 6.0.1  -  RELEASE   -


 With contributions from (in alphabetic order):
[Max-Planck-Institut fuer Kohlenforschung]                               
  Daniel Aravena         : Magnetic Suceptibility                        
  Michael Atanasov       : Ab Initio Ligand Field Theory (pilot matlab implementation)
  Alexander A. Auer      : GIAO ZORA, VPT2 properties, NMR spectrum      
  Ute Becker             : All parallelization in ORCA, NUMFREQ, NUMCALC 
  Giovanni Bistoni       : ED, misc. LED, open-shell LED, HFLD           
  Martin Brehm           : Molecular dynamics                            
  Dmytro Bykov           : pre 5.0 version of the SCF Hessian            
  Marcos Casanova-Páez   : Triplet and SCS-CIS(D). UHF-(DLPNO)-IP/EA/STEOM-CCSD. UHF-CVS-IP/STEOM-CCSD   
  Vijay G. Chilkuri      : MRCI spin determinant printing, contributions to CSF-ICE 
  Pauline Colinet        : FMM embedding                                 
  Dipayan Datta          : RHF DLPNO-CCSD density                        
  Achintya Kumar Dutta   : EOM-CC, STEOM-CC                              
  Nicolas Foglia         : Exact transition moments, OPA infrastructure, MCD improvements    
  Dmitry Ganyushin       : Spin-Orbit,Spin-Spin,Magnetic field MRCI      
  Miquel Garcia-Rates    : C-PCM and meta-GGA Hessian, CCSD/C-PCM, Gaussian charge scheme 
  Tiago L. C. Gouveia    : GS-ROHF, GS-ROCIS                             
  Yang Guo               : DLPNO-NEVPT2, F12-NEVPT2, CIM, IAO-localization        
  Andreas Hansen         : Spin unrestricted coupled pair/coupled cluster methods 
  Ingolf Harden          : AUTO-CI MPn and infrastructure                
  Benjamin Helmich-Paris : MC-RPA, TRAH-(SCF,CASSCF), AVAS, COSX integrals, SCF dyn. polar. 
  Lee Huntington         : MR-EOM, pCC                                   
  Robert Izsak           : Overlap fitted RIJCOSX, COSX-SCS-MP3, EOM     
  Riya Kayal             : Wick's Theorem for AUTO-CI, AUTO-CI UHF-CCSDT 
  Emily Kempfer          : AUTO-CI, RHF CISDT and CCSDT                  
  Christian Kollmar      : KDIIS, OOCD, Brueckner-CCSD(T), CCSD density, CASPT2, CASPT2-K, improved NEVPT2 
  Axel Koslowski         : Symmetry handling                             
  Simone Kossmann        : meta-GGA functionals, TD-DFT gradient, OOMP2, (MP2 Hessian; deprecated post 5.0) 
  Lucas Lang             : DCDCAS                                        
  Marvin Lechner         : AUTO-CI (C++ implementation), FIC-MRCC        
  Spencer Leger          : CASSCF response                               
  Dagmar Lenk            : GEPOL surface, SMD, ORCA-2-JSON               
  Dimitrios Liakos       : Extrapolation schemes; Compound Job, initial MDCI parallelization 
  Dimitrios Manganas     : Further ROCIS development; embedding schemes. LFT, Crystal Embedding 
  Dimitrios Pantazis     : SARC Basis sets                               
  Anastasios Papadopoulos: AUTO-CI, single reference methods and gradients 
  Taras Petrenko         : pre 6.0 DFT Hessian and TD-DFT gradient, (ASA, deprecated), ECA, 1-Electron XAS/XES, NRVS 
  Peter Pinski           : DLPNO-MP2, DLPNO-MP2 Gradient                 
  Christoph Reimann      : Effective Core Potentials                     
  Marius Retegan         : Local ZFS, SOC                                
  Christoph Riplinger    : Optimizer, TS searches, QM/MM, DLPNO-CCSD(T), (RO)-DLPNO pert. Triples 
  Michael Roemelt        : Original ROCIS implementation                 
  Masaaki Saitow         : Open-shell DLPNO-CCSD energy and density      
  Barbara Sandhoefer     : DKH picture change effects                    
  Kantharuban Sivalingam : CASSCF convergence/infrastructure, NEVPT2 and variants, FIC-MRCI 
  Bernardo de Souza      : ESD, SOC TD-DFT                               
  Georgi L. Stoychev     : AutoAux, RI-MP2 NMR, DLPNO-MP2 response, X2C  
  Van Anh Tran           : RI-MP2 g-tensors                              
  Willem Van den Heuvel  : Paramagnetic NMR                              
  Zikuan Wang            : NOTCH, Electric field optimization            
  Frank Wennmohs         : Technical directorship and infrastructure     
  Hang Xu                : AUTO-CI-Response properties                   
                                                                         
[FACCTs GmbH]                                                            
  Markus Bursch, Miquel Garcia-Rates, Christoph Riplinger, Bernardo de Souza, Georgi L. Stoychev 
                                                                 
  APM, Basis sets (HGBS, AHGBS, def-TZVP (Ac-Lr), def2-XVPD (La-Lu)), CI-OPT, improved COSX, DLPNO-Multilevel,           
  DOCKER, DRACO, updates on ESD, GOAT, IRC, LR-CPCM, MBIS, meta-GGA TD-DFT gradient, ML-optimized integration grids, 
  MM, NACMEs, nearIR, NEB, NEB-TS, NL-DFT gradient (VV10), 2- and 3-layer-ONIOM, interface openCOSMO-RS, QMMM,   
  Crystal-QMMM, SF, symmetry and pop. for TD-DFT, r2SCAN hybrids, SOLVATOR                                   
                                                                         
[Other institutions]                                                     
  V. Asgeirsson          : NEB                                           
  Christoph Bannwarth    : sTDA-DFT, sTD-DFT, PBEh-3c, B97-3c, D3        
  Sebastian Ehlert       : rSCAN, r2SCAN, r2SCAN-3c, D4, dhf basis sets  
  Marvin Friede          : D4 for Fr, Ra, Ac-Lr                          
  Lars Goerigk           : TD-DFT with DH, B97 family of functionals     
  Stefan Grimme          : VdW corrections, initial TS optimization, DFT functionals, gCP, sTDA/sTD-DF 
  Waldemar Hujo          : DFT-NL                                        
  H. Jonsson             : NEB                                           
  Holger Kruse           : gCP                                           
  Marcel Mueller         : wB97X-3c, vDZP basis set                      
  Hagen Neugebauer       : wr2SCAN                                       
  Tobias Risthaus        : range-separated hybrid DFT                    
  Lukas Wittmann         : regularized MP2, r2SCAN double-hybrids, wr2SCAN        
                                                                         
We gratefully acknowledge several colleagues who have allowed us to      
interface, adapt or use parts of their codes:                            
  Ed Valeev, F. Pavosevic, A. Kumar             : LibInt (2-el integral package), F12 methods 
  Garnet Chan, S. Sharma, J. Yang, R. Olivares  : DMRG                   
  Ulf Ekstrom                                   : XCFun DFT Library      
  Mihaly Kallay                                 : mrcc  (arbitrary order and MRCC methods)
  Frank Weinhold                                : gennbo (NPA and NBO analysis)           
  Simon Mueller                                 : openCOSMO-RS                            
  Christopher J. Cramer and Donald G. Truhlar   : smd solvation model                     
  S Lehtola, MJT Oliveira, MAL Marques          : LibXC Library                           
  Liviu Ungur et al                             : ANISO software                          


 Your calculation uses the libint2 library for the computation of 2-el integrals
 For citations please refer to: http://libint.valeyev.net

 Your ORCA version has been built with support for libXC version: 6.2.2
 For citations please refer to: https://libxc.gitlab.io

 This ORCA versions uses:
   CBLAS   interface :  Fast vector & matrix operations
   LAPACKE interface :  Fast linear algebra routines
   SCALAPACK package :  Parallel linear algebra routines
   Shared memory     :  Shared parallel matrices
   BLAS/LAPACK       :  OpenBLAS 0.3.27  USE64BITINT DYNAMIC_ARCH NO_AFFINITY SkylakeX SINGLE_THREADED
        Core in use  :  SkylakeX
   Copyright (c) 2011-2014, The OpenBLAS Project


NOTE: MaxCore=8000 MB was set to SCF,MP2,MDCI,CIPSI,MRCI and CIS
      => If you want to overwrite this, your respective input block should be placed after the MaxCore statement
Your calculation utilizes the atom-pairwise dispersion correction
with the Becke-Johnson damping scheme (D3BJ)


Your calculation utilizes the SMD solvation module
Please cite in your paper:
A.V. Marenich, C.J. Cramer, D.G. Truhlar J. Phys. Chem. B, 113, (2009), 6378 

Warning: RI is on but no J-basis has been assigned. Assigning Def2/J (nothing to worry about!)
================================================================================

----- Orbital basis set information -----
Your calculation utilizes the basis: def2-TZVP
   F. Weigend and R. Ahlrichs, Phys. Chem. Chem. Phys. 7, 3297 (2005).

----- AuxJ basis set information -----
Your calculation utilizes the auxiliary basis: def2/J
   F. Weigend, Phys. Chem. Chem. Phys. 8, 1057 (2006).

================================================================================
                                        WARNINGS
                       Please study these warnings very carefully!
================================================================================


WARNING: your system is open-shell and RHF/RKS was chosen
  ===> : WILL SWITCH to UHF/UKS


================================================================================
                                       INPUT FILE
================================================================================
NAME = rf_mecn_freq_TP_C3_P_B.inp
|  1> !TPSSh def2-TZVP freq d3 TightSCF SlowConv defgrid2
|  2>  
|  3> %pal
|  4> nprocs 20
|  5> end
|  6>  
|  7> %scf
|  8> MaxIter 1500
|  9> end
| 10>  
| 11> %maxcore 8000
| 12>  
| 13> !CPCM
| 14> %cpcm smd true
| 15> SMDsolvent "ACETONITRILE"
| 16> end
| 17>  
| 18> * xyz 0 2
| 19> 6        4.419319000      0.377438000     -0.195481000
| 20> 8        5.376417000     -0.368469000     -0.732004000
| 21> 8        4.341672000      1.575648000     -0.200764000
| 22> 6        3.321153000     -0.501178000      0.462286000
| 23> 6        2.195472000     -0.761515000     -0.487227000
| 24> 6        0.807697000     -1.205645000     -0.138859000
| 25> 6       -0.244893000     -0.043964000     -0.165461000
| 26> 6       -1.739722000     -0.507513000     -0.127087000
| 27> 6       -2.728234000      0.624987000      0.312340000
| 28> 6       -4.221357000      0.361913000     -0.063888000
| 29> 9        3.856766000     -1.679762000      0.915627000
| 30> 9        2.855876000      0.154059000      1.561190000
| 31> 9        2.461898000     -0.633021000     -1.780713000
| 32> 9        0.399941000     -2.153039000     -1.027428000
| 33> 9        0.819893000     -1.745362000      1.103323000
| 34> 9       -0.001209000      0.758832000      0.894327000
| 35> 9       -0.050799000      0.667697000     -1.297855000
| 36> 9       -1.866817000     -1.536289000      0.738172000
| 37> 9       -2.085667000     -0.939223000     -1.359404000
| 38> 9       -2.363698000      1.791868000     -0.261967000
| 39> 9       -2.661326000      0.761707000      1.652012000
| 40> 9       -4.601875000     -0.857094000      0.332625000
| 41> 9       -4.985818000      1.270521000      0.550030000
| 42> 9       -4.409399000      0.469729000     -1.380752000
| 43> 1        6.033543000      0.219590000     -1.158456000
| 44> *
| 45> 
| 46>                          ****END OF INPUT****
================================================================================

                       ****************************
                       * Single Point Calculation *
                       ****************************

---------------------------------
CARTESIAN COORDINATES (ANGSTROEM)
---------------------------------
  C      4.419319    0.377438   -0.195481
  O      5.376417   -0.368469   -0.732004
  O      4.341672    1.575648   -0.200764
  C      3.321153   -0.501178    0.462286
  C      2.195472   -0.761515   -0.487227
  C      0.807697   -1.205645   -0.138859
  C     -0.244893   -0.043964   -0.165461
  C     -1.739722   -0.507513   -0.127087
  C     -2.728234    0.624987    0.312340
  C     -4.221357    0.361913   -0.063888
  F      3.856766   -1.679762    0.915627
  F      2.855876    0.154059    1.561190
  F      2.461898   -0.633021   -1.780713
  F      0.399941   -2.153039   -1.027428
  F      0.819893   -1.745362    1.103323
  F     -0.001209    0.758832    0.894327
  F     -0.050799    0.667697   -1.297855
  F     -1.866817   -1.536289    0.738172
  F     -2.085667   -0.939223   -1.359404
  F     -2.363698    1.791868   -0.261967
  F     -2.661326    0.761707    1.652012
  F     -4.601875   -0.857094    0.332625
  F     -4.985818    1.270521    0.550030
  F     -4.409399    0.469729   -1.380752
  H      6.033543    0.219590   -1.158456

----------------------------
CARTESIAN COORDINATES (A.U.)
----------------------------
  NO LB      ZA    FRAG     MASS         X           Y           Z
   0 C     6.0000    0    12.011    8.351303    0.713254   -0.369406
   1 O     8.0000    0    15.999   10.159956   -0.696305   -1.383287
   2 O     8.0000    0    15.999    8.204571    2.977543   -0.379389
   3 C     6.0000    0    12.011    6.276070   -0.947089    0.873594
   4 C     6.0000    0    12.011    4.148841   -1.439055   -0.920726
   5 C     6.0000    0    12.011    1.526326   -2.278339   -0.262405
   6 C     6.0000    0    12.011   -0.462781   -0.083080   -0.312676
   7 C     6.0000    0    12.011   -3.287598   -0.959061   -0.240160
   8 C     6.0000    0    12.011   -5.155615    1.181054    0.590237
   9 C     6.0000    0    12.011   -7.977209    0.683916   -0.120731
  10 F     9.0000    0    18.998    7.288232   -3.174290    1.730284
  11 F     9.0000    0    18.998    5.396824    0.291129    2.950222
  12 F     9.0000    0    18.998    4.652313   -1.196236   -3.365060
  13 F     9.0000    0    18.998    0.755779   -4.068654   -1.941558
  14 F     9.0000    0    18.998    1.549373   -3.298256    2.084978
  15 F     9.0000    0    18.998   -0.002285    1.433985    1.690033
  16 F     9.0000    0    18.998   -0.095996    1.261764   -2.452591
  17 F     9.0000    0    18.998   -3.527773   -2.903165    1.394943
  18 F     9.0000    0    18.998   -3.941339   -1.774874   -2.568901
  19 F     9.0000    0    18.998   -4.466742    3.386140   -0.495046
  20 F     9.0000    0    18.998   -5.029177    1.439418    3.121850
  21 F     9.0000    0    18.998   -8.696283   -1.619673    0.628570
  22 F     9.0000    0    18.998   -9.421831    2.400937    1.039406
  23 F     9.0000    0    18.998   -8.332557    0.887659   -2.609243
  24 H     1.0000    0     1.008   11.401744    0.414965   -2.189165

--------------------------------
INTERNAL COORDINATES (ANGSTROEM)
--------------------------------
 C      0   0   0     0.000000000000     0.00000000     0.00000000
 O      1   0   0     1.326751960158     0.00000000     0.00000000
 O      1   2   0     1.200734846166   127.29313671     0.00000000
 C      1   2   3     1.552608149309   111.30964791   178.90246561
 C      4   1   2     1.495495905878   111.21851579   266.24687671
 C      5   4   1     1.498175947928   126.95708213   199.11145547
 C      6   5   4     1.567850796557   113.47141530   101.62293430
 C      7   6   5     1.565523547737   114.91260250   166.87676545
 C      8   7   6     1.566144409840   113.29330978   161.11672475
 C      9   8   7     1.562104903836   114.45302487   161.51109782
 F      4   1   2     1.371663075652   110.49145605    29.66229292
 F      4   1   2     1.361399358790   108.13963154   145.58966836
 F      5   4   1     1.326875862207   116.80408145    21.71088263
 F      6   5   4     1.361387239008   109.38855258   221.85772840
 F      6   5   4     1.354422129038   108.84731758   340.74350955
 F      7   6   5     1.351670786255   107.80187437   288.87431815
 F      7   6   5     1.351462182598   107.93667214    45.96141992
 F      8   7   6     1.350261579947   109.34060152    40.39866494
 F      8   7   6     1.350798525175   108.47006311   282.27135365
 F      9   8   7     1.350676235708   109.57641644    40.66539320
 F      9   8   7     1.348291550981   108.71064270   281.93486463
 F     10   9   8     1.337159142938   110.73923189    50.37038126
 F     10   9   8     1.336736484468   108.75651993   169.76157193
 F     10   9   8     1.334584159248   111.02166904   289.09664159
 H      2   1   3     0.979535234517   108.81310446   359.42210427

---------------------------
INTERNAL COORDINATES (A.U.)
---------------------------
 C      0   0   0     0.000000000000     0.00000000     0.00000000
 O      1   0   0     2.507197852341     0.00000000     0.00000000
 O      1   2   0     2.269060018710   127.29313671     0.00000000
 C      1   2   3     2.934004195488   111.30964791   178.90246561
 C      4   1   2     2.826077696511   111.21851579   266.24687671
 C      5   4   1     2.831142242011   126.95708213   199.11145547
 C      6   5   4     2.962808624343   113.47141530   101.62293430
 C      7   6   5     2.958410761427   114.91260250   166.87676545
 C      8   7   6     2.959584020769   113.29330978   161.11672475
 C      9   8   7     2.951950460706   114.45302487   161.51109782
 F      4   1   2     2.592067560994   110.49145605    29.66229292
 F      4   1   2     2.572671947009   108.13963154   145.58966836
 F      5   4   1     2.507431993282   116.80408145    21.71088263
 F      6   5   4     2.572649043940   109.38855258   221.85772840
 F      6   5   4     2.559486893605   108.84731758   340.74350955
 F      7   6   5     2.554287609245   107.80187437   288.87431815
 F      7   6   5     2.553893405462   107.93667214    45.96141992
 F      8   7   6     2.551624595256   109.34060152    40.39866494
 F      8   7   6     2.552639274685   108.47006311   282.27135365
 F      9   8   7     2.552408181084   109.57641644    40.66539320
 F      9   8   7     2.547901780035   108.71064270   281.93486463
 F     10   9   8     2.526864577621   110.73923189    50.37038126
 F     10   9   8     2.526065868866   108.75651993   169.76157193
 F     10   9   8     2.521998563648   111.02166904   289.09664159
 H      2   1   3     1.851053331764   108.81310446   359.42210427

---------------------
BASIS SET INFORMATION
---------------------
There are 4 groups of distinct atoms

 Group   1 Type C   : 11s6p2d1f contracted to 5s3p2d1f pattern {62111/411/11/1}
 Group   2 Type O   : 11s6p2d1f contracted to 5s3p2d1f pattern {62111/411/11/1}
 Group   3 Type F   : 11s6p2d1f contracted to 5s3p2d1f pattern {62111/411/11/1}
 Group   4 Type H   : 5s1p contracted to 3s1p pattern {311/1}

Atom   0C    basis set group =>   1
Atom   1O    basis set group =>   2
Atom   2O    basis set group =>   2
Atom   3C    basis set group =>   1
Atom   4C    basis set group =>   1
Atom   5C    basis set group =>   1
Atom   6C    basis set group =>   1
Atom   7C    basis set group =>   1
Atom   8C    basis set group =>   1
Atom   9C    basis set group =>   1
Atom  10F    basis set group =>   3
Atom  11F    basis set group =>   3
Atom  12F    basis set group =>   3
Atom  13F    basis set group =>   3
Atom  14F    basis set group =>   3
Atom  15F    basis set group =>   3
Atom  16F    basis set group =>   3
Atom  17F    basis set group =>   3
Atom  18F    basis set group =>   3
Atom  19F    basis set group =>   3
Atom  20F    basis set group =>   3
Atom  21F    basis set group =>   3
Atom  22F    basis set group =>   3
Atom  23F    basis set group =>   3
Atom  24H    basis set group =>   4
---------------------------------
AUXILIARY/J BASIS SET INFORMATION
---------------------------------
There are 4 groups of distinct atoms

 Group   1 Type C   : 12s5p4d2f1g contracted to 6s4p3d1f1g pattern {711111/2111/211/2/1}
 Group   2 Type O   : 12s5p4d2f1g contracted to 6s4p3d1f1g pattern {711111/2111/211/2/1}
 Group   3 Type F   : 12s5p4d2f1g contracted to 6s4p3d1f1g pattern {711111/2111/211/2/1}
 Group   4 Type H   : 5s2p1d contracted to 3s1p1d pattern {311/2/1}

Atom   0C    basis set group =>   1
Atom   1O    basis set group =>   2
Atom   2O    basis set group =>   2
Atom   3C    basis set group =>   1
Atom   4C    basis set group =>   1
Atom   5C    basis set group =>   1
Atom   6C    basis set group =>   1
Atom   7C    basis set group =>   1
Atom   8C    basis set group =>   1
Atom   9C    basis set group =>   1
Atom  10F    basis set group =>   3
Atom  11F    basis set group =>   3
Atom  12F    basis set group =>   3
Atom  13F    basis set group =>   3
Atom  14F    basis set group =>   3
Atom  15F    basis set group =>   3
Atom  16F    basis set group =>   3
Atom  17F    basis set group =>   3
Atom  18F    basis set group =>   3
Atom  19F    basis set group =>   3
Atom  20F    basis set group =>   3
Atom  21F    basis set group =>   3
Atom  22F    basis set group =>   3
Atom  23F    basis set group =>   3
Atom  24H    basis set group =>   4


           ************************************************************
           *        Program running with 20 parallel MPI-processes    *
           *              working on a common directory               *
           ************************************************************
------------------------------------------------------------------------------
                             ORCA STARTUP CALCULATIONS
                           -- RI-GTO INTEGRALS CHOSEN --
------------------------------------------------------------------------------
------------------------------------------------------------------------------
                   ___                                                        
                  /   \      - P O W E R E D   B Y -                         
                 /     \                                                     
                 |  |  |   _    _      __       _____    __    __             
                 |  |  |  | |  | |    /  \     |  _  \  |  |  /  |          
                  \  \/   | |  | |   /    \    | | | |  |  | /  /          
                 / \  \   | |__| |  /  /\  \   | |_| |  |  |/  /          
                |  |  |   |  __  | /  /__\  \  |    /   |      \           
                |  |  |   | |  | | |   __   |  |    \   |  |\   \          
                \     /   | |  | | |  |  |  |  | |\  \  |  | \   \       
                 \___/    |_|  |_| |__|  |__|  |_| \__\ |__|  \__/        
                                                                              
                      - O R C A' S   B I G   F R I E N D -                    
                                      &                                       
                       - I N T E G R A L  F E E D E R -                       
                                                                              
 v1 FN, 2020, v2 2021, v3 2022-2024                                           
------------------------------------------------------------------------------


----------------------
SHARK INTEGRAL PACKAGE
----------------------

Number of atoms                             ...     25
Number of basis functions                   ...    750
Number of shells                            ...    268
Maximum angular momentum                    ...      3
Integral batch strategy                     ... SHARK/LIBINT Hybrid
RI-J (if used) integral strategy            ... SPLIT-RIJ (Revised 2003 algorithm where possible)
Printlevel                                  ...      1
Contraction scheme used                     ... SEGMENTED contraction
Prescreening option                         ... SCHWARTZ
   Thresh                                   ... 2.500e-11
   Tcut                                     ... 2.500e-12
   Tpresel                                  ... 2.500e-12 
Coulomb Range Separation                    ... NOT USED
Exchange Range Separation                   ... NOT USED
Multipole approximations                    ... NOT USED
Finite Nucleus Model                        ... NOT USED
CABS basis                                  ... NOT available
Auxiliary Coulomb fitting basis             ... AVAILABLE
   # of basis functions in Aux-J            ...   1187
   # of shells in Aux-J                     ...    365
   Maximum angular momentum in Aux-J        ...      4
Auxiliary J/K fitting basis                 ... NOT available
Auxiliary Correlation fitting basis         ... NOT available
Auxiliary 'external' fitting basis          ... NOT available

Checking pre-screening integrals            ... done (  0.0 sec) Dimension = 268
Check shell pair data                       ... done (  0.0 sec)
Shell pair information
Shell pair cut-off parameter TPreSel        ...   2.5e-12
Total number of shell pairs                 ...     36046
Shell pairs after pre-screening             ...     22415
Total number of primitive shell pairs       ...    118872
Primitive shell pairs kept                  ...     47507
          la=0 lb=0:   4253 shell pairs
          la=1 lb=0:   6132 shell pairs
          la=1 lb=1:   2109 shell pairs
          la=2 lb=0:   3329 shell pairs
          la=2 lb=1:   2423 shell pairs
          la=2 lb=2:    682 shell pairs
          la=3 lb=0:   1527 shell pairs
          la=3 lb=1:   1181 shell pairs
          la=3 lb=2:    625 shell pairs
          la=3 lb=3:    154 shell pairs

Calculating one electron integrals          ... done (  0.0 sec)
Calculating RI/J V-Matrix + Cholesky decomp.... done (  0.1 sec)
Calculating Nuclear repulsion               ... done (  0.0 sec) ENN=   2651.166939004316 Eh

Diagonalization of the overlap matrix:
Smallest eigenvalue                        ... 6.753e-05
Time for diagonalization                   ...    0.117 sec
Threshold for overlap eigenvalues          ... 1.000e-07
Number of eigenvalues below threshold      ... 0
Time for construction of square roots      ...    0.053 sec
Total time needed                          ...    0.175 sec

-------------------
DFT GRID GENERATION
-------------------

General Integration Accuracy     IntAcc      ... 4.388
Radial Grid Type                 RadialGrid  ... OptM3 with GC (2021)
Angular Grid (max. ang.)         AngularGrid ... 4 (Lebedev-302)
Angular grid pruning method      GridPruning ... 4 (adaptive)
Weight generation scheme         WeightScheme... mBecke (2022)
Basis function cutoff            BFCut       ... 1.0000e-11
Integration weight cutoff        WCut        ... 1.0000e-14
Partially contracted basis set               ... off
Rotationally invariant grid construction     ... off
Angular grids for H and He will be reduced by one unit

Total number of grid points                  ...   148723
Total number of batches                      ...     2336
Average number of points per batch           ...       63
Average number of grid points per atom       ...     5949

--------------------
COSX GRID GENERATION
--------------------

GRIDX 1
-------
General Integration Accuracy     IntAcc      ... 3.816
Radial Grid Type                 RadialGrid  ... OptM3 with GC (2021)
Angular Grid (max. ang.)         AngularGrid ... 1 (Lebedev-50)
Angular grid pruning method      GridPruning ... 4 (adaptive)
Weight generation scheme         WeightScheme... mBecke (2022)
Basis function cutoff            BFCut       ... 1.0000e-11
Integration weight cutoff        WCut        ... 1.0000e-14
Partially contracted basis set               ... on
Rotationally invariant grid construction     ... off
Angular grids for H and He will be reduced by one unit

Total number of grid points                  ...    18676
Total number of batches                      ...      157
Average number of points per batch           ...      118
Average number of grid points per atom       ...      747
UseSFitting                                  ... on

GRIDX 2
-------
General Integration Accuracy     IntAcc      ... 4.020
Radial Grid Type                 RadialGrid  ... OptM3 with GC (2021)
Angular Grid (max. ang.)         AngularGrid ... 2 (Lebedev-110)
Angular grid pruning method      GridPruning ... 4 (adaptive)
Weight generation scheme         WeightScheme... mBecke (2022)
Basis function cutoff            BFCut       ... 1.0000e-11
Integration weight cutoff        WCut        ... 1.0000e-14
Partially contracted basis set               ... on
Rotationally invariant grid construction     ... off
Angular grids for H and He will be reduced by one unit

Total number of grid points                  ...    44033
Total number of batches                      ...      356
Average number of points per batch           ...      123
Average number of grid points per atom       ...     1761
UseSFitting                                  ... on

GRIDX 3
-------
General Integration Accuracy     IntAcc      ... 4.338
Radial Grid Type                 RadialGrid  ... OptM3 with GC (2021)
Angular Grid (max. ang.)         AngularGrid ... 3 (Lebedev-194)
Angular grid pruning method      GridPruning ... 4 (adaptive)
Weight generation scheme         WeightScheme... mBecke (2022)
Basis function cutoff            BFCut       ... 1.0000e-11
Integration weight cutoff        WCut        ... 1.0000e-14
Partially contracted basis set               ... on
Rotationally invariant grid construction     ... off
Angular grids for H and He will be reduced by one unit

Total number of grid points                  ...    97562
Total number of batches                      ...      773
Average number of points per batch           ...      126
Average number of grid points per atom       ...     3902
UseSFitting                                  ... on
Initializing property integral containers    ... done (  0.0 sec)

SHARK setup successfully completed in   3.8 seconds

Maximum memory used throughout the entire STARTUP-calculation: 57.4 MB


           ************************************************************
           *        Program running with 20 parallel MPI-processes    *
           *              working on a common directory               *
           ************************************************************
-------------------------------------------------------------------------------
                                 ORCA GUESS
                   Start orbitals & Density for SCF / CASSCF
-------------------------------------------------------------------------------

------------
SCF SETTINGS
------------
Hamiltonian:
 Density Functional     Method          .... DFT(GTOs)
 Exchange Functional    Exchange        .... TPSS
 Correlation Functional Correlation     .... TPSS
 LDA part of GGA corr.  LDAOpt          .... PW91-LDA
 Gradients option       PostSCFGGA      .... off
 Hybrid DFT is turned on
   Fraction HF Exchange ScalHFX         ....  0.100000
   Scaling of DF-GGA-X  ScalDFX         ....  0.900000
   Scaling of DF-GGA-C  ScalDFC         ....  1.000000
   Scaling of DF-LDA-C  ScalLDAC        ....  1.000000
   Perturbative correction              ....  0.000000
   NL short-range parameter             ....  5.200000
 RI-approximation to the Coulomb term is turned on
   Number of AuxJ basis functions       .... 1187
   RIJ-COSX (HFX calculated with COS-X)).... on


General Settings:
 Integral files         IntName         .... rf_mecn_freq_TP_C3_P_B
 Hartree-Fock type      HFTyp           .... UHF
 Total Charge           Charge          ....    0
 Multiplicity           Mult            ....    2
 Number of Electrons    NEL             ....  191
 Basis Dimension        Dim             ....  750
 Nuclear Repulsion      ENuc            ....   2651.1669390043 Eh

Convergence Acceleration:
 AO-DIIS                CNVDIIS         .... on
   Start iteration      DIISMaxIt       ....     0
   Startup error        DIISStart       ....  0.200000
   # of expansion vecs  DIISMaxEq       ....     5
   Bias factor          DIISBfac        ....   1.050
   Max. coefficient     DIISMaxC        ....  10.000
 MO-DIIS                CNVKDIIS        .... off
 Trust-Rad. Augm. Hess. CNVTRAH         .... auto
   Auto Start mean grad. ratio tolernc. ....  1.125000
   Auto Start start iteration           ....    50
   Auto Start num. interpolation iter.  ....    10
   Max. Number of Micro iterations      ....    24
   Max. Number of Macro iterations      .... Maxiter - #DIIS iter
   Number of Davidson start vectors     ....     2
   Converg. threshold    (grad. norm)   ....   1.000e-05
   Grad. Scal. Fac. for Micro threshold ....   0.100
   Minimum threshold for Micro iter.    ....   1.000e-02
   NR start threshold (gradient norm)   ....   1.000e-04
   Initial trust radius                 ....   0.400
   Minimum AH scaling param. (alpha)    ....   1.000
   Maximum AH scaling param. (alpha)    .... 1000.000
   Quad. conv. algorithm                .... NR
   White noise on init. David. guess    .... on
   Maximum white noise                  ....   0.010
   Pseudo random numbers                .... off
   Inactive MOs                         .... canonical
   Orbital update algorithm             .... Taylor
   Preconditioner                       .... Diag
   Full preconditioner red. dimension   ....   250
 SOSCF                  CNVSOSCF        .... on
   Start iteration      SOSCFMaxIt      ....   150
   Startup grad/error   SOSCFStart      ....  0.001000
   Hessian update       SOSCFHessUp     .... L-BFGS
 Level Shifting         CNVShift        .... on
   Level shift para.    LevelShift      ....    0.2500
   Turn off err/grad.   ShiftErr        ....    0.0000
 Zerner damping         CNVZerner       .... off
 Static damping         CNVDamp         .... on
   Fraction old density DampFac         ....    0.8500
   Max. Damping (<1)    DampMax         ....    0.9800
   Min. Damping (>=0)   DampMin         ....    0.0000
   Turn off err/grad.   DampErr         ....    0.0300

SCF Procedure:
 Maximum # iterations   MaxIter         ....  1500
 SCF integral mode      SCFMode         .... Direct
   Integral package                     .... SHARK and LIBINT hybrid scheme
 Reset frequency        DirectResetFreq ....    20
 Integral Threshold     Thresh          ....  2.500e-11 Eh
 Primitive CutOff       TCut            ....  2.500e-12 Eh

Convergence Tolerance:
 Convergence Check Mode ConvCheckMode   .... Total+1el-Energy
 Convergence forced     ConvForced      .... 0
 Energy Change          TolE            ....  1.000e-08 Eh
 1-El. energy change                    ....  1.000e-05 Eh
 Orbital Gradient       TolG            ....  1.000e-05
 Orbital Rotation angle TolX            ....  1.000e-05
 DIIS Error             TolErr          ....  5.000e-07

------------------------------
INITIAL GUESS: MODEL POTENTIAL
------------------------------
Loading Hartree-Fock densities                     ... done
Calculating cut-offs                               ... done
Initializing the effective Hamiltonian             ... done
Setting up the integral package (SHARK)            ... done
Starting the Coulomb interaction                   ... done (   0.2 sec)
Making the grid                                    ... done (   0.5 sec)
Mapping shells                                     ... done
Starting the XC term evaluation                    ... done (   0.2 sec)
  promolecular density results
     # of electrons  =    190.999848886
     EX              =   -197.549791983
     EC              =     -6.706972469
     EX+EC           =   -204.256764452
Transforming the Hamiltonian                       ... done (   0.0 sec)
Diagonalizing the Hamiltonian                      ... done (   0.1 sec)
Back transforming the eigenvectors                 ... done (   0.1 sec)
Now organizing SCF variables                       ... done
                      ------------------
                      INITIAL GUESS DONE (   1.2 sec)
                      ------------------
             **** ENERGY FILE WAS UPDATED (rf_mecn_freq_TP_C3_P_B.en.tmp) ****
Finished Guess after   2.0 sec
Maximum memory used throughout the entire GUESS-calculation: 46.5 MB


           ************************************************************
           *        Program running with 20 parallel MPI-processes    *
           *              working on a common directory               *
           ************************************************************

-------------------------------------------------------------------------------------------
                                      ORCA LEAN-SCF
                              memory conserving SCF solver
-------------------------------------------------------------------------------------------

--------------------
CPCM SOLVATION MODEL
--------------------
CPCM parameters:
  Epsilon                                         ...      35.6880
  Refrac                                          ...       1.3442
  Rsolv                                           ...       1.3000
  Surface type                                    ... GAUSSIAN VDW
  Discretization scheme                           ... Constant charge density
    Threshold for H atoms                         ...       5.0000 (charges/Ang^2)
    Threshold for non-H atoms                     ...       5.0000 (charges/Ang^2)
  Epsilon function type                           ...         CPCM
Solvent:                                          ... ACETONITRILE
SMD-CDS solvent descriptors:
  Soln                                            ...       1.3442
  Soln25                                          ...       1.3416
  Sola                                            ...       0.0700
  Solb                                            ...       0.3200
  Solg                                            ...      41.2500
  Solc                                            ...       0.0000
  Solh                                            ...       0.0000
Radii:
  Scheme                                          ... Element-dependent radii
  Radius for C  used is    3.4960 Bohr (=   1.8500 Ang.)
  Radius for O  used is    4.0969 Bohr (=   2.1680 Ang.)
  Radius for F  used is    3.2692 Bohr (=   1.7300 Ang.)
  Radius for H  used is    2.2677 Bohr (=   1.2000 Ang.)
Calculating surface                               ...        done! (  0.0s)
Cavity surface points                             ...         2183
Cavity Volume                                     ...    2113.6288
Cavity Surface-area                               ...    1112.3630
Calculating surface distance matrix               ...        done! (  0.0s)
Performing Cholesky decomposition & store         ...        done! (  0.1s)
Overall time for CPCM initialization              ...                 0.2s

----------------------------------------D-I-I-S--------------------------------------------
Iteration    Energy (Eh)           Delta-E    RMSDP     MaxDP     DIISErr   Damp  Time(sec)
-------------------------------------------------------------------------------------------
               ***  Starting incremental Fock matrix formation  ***
    1    -1854.0135338915274588     0.00e+00  1.84e-04  1.41e-02  1.38e-01  0.850   8.0
Warning: op=1 Small HOMO/LUMO gap (   0.038) - skipping pre-diagonalization
         Will do a full diagonalization
    2    -1854.1296103673716971    -1.16e-01  1.78e-04  1.29e-02  9.17e-02  0.850   5.5
                               ***Turning on AO-DIIS***
    3    -1854.1906714552783342    -6.11e-02  7.86e-05  4.69e-03  5.18e-02  0.850   4.6
    4    -1854.2271561871934864    -3.65e-02  5.04e-05  3.64e-03  3.92e-02  0.850   4.5
    5    -1854.2531091846626623    -2.60e-02  4.22e-05  3.79e-03  3.37e-02  0.850   4.4
    6    -1854.2737851434681033    -2.07e-02  3.80e-05  3.78e-03  2.96e-02  0.850   4.3
    7    -1854.2911153435393317    -1.73e-02  2.33e-04  2.38e-02  2.53e-02  0.000   4.6
    8    -1854.3826651214562844    -9.15e-02  2.90e-05  3.53e-03  6.01e-03  0.000   4.8
    9    -1854.3827214032849042    -5.63e-05  1.17e-05  1.33e-03  5.53e-03  0.000   4.1
   10    -1854.3829644035972706    -2.43e-04  5.16e-06  4.64e-04  1.12e-03  0.000   3.7
                              *** Initializing SOSCF ***
---------------------------------------S-O-S-C-F--------------------------------------
Iteration    Energy (Eh)           Delta-E    RMSDP     MaxDP     MaxGrad    Time(sec)
--------------------------------------------------------------------------------------
   11    -1854.3829820478990769    -1.76e-05  2.49e-06  3.56e-04  3.68e-04     4.2
               *** Restarting incremental Fock matrix formation ***
   12    -1854.3829811448999862     9.03e-07  2.06e-06  1.67e-04  7.74e-05     7.6
   13    -1854.3829815077301646    -3.63e-07  1.39e-06  1.35e-04  1.32e-04     4.5
   14    -1854.3829817102664492    -2.03e-07  8.38e-07  6.71e-05  1.21e-04     4.4
   15    -1854.3829817764658401    -6.62e-08  4.15e-07  2.78e-05  3.75e-05     4.2
   16    -1854.3829817921919130    -1.57e-08  2.95e-07  2.59e-05  1.68e-05     3.9
   17    -1854.3829818096842246    -1.75e-08  1.38e-07  8.40e-06  4.54e-06     3.8
   18    -1854.3829818018289188     7.86e-09  9.00e-08  6.03e-06  3.94e-06     3.4
                 **** Energy Check signals convergence ****

               *****************************************************
               *                     SUCCESS                       *
               *           SCF CONVERGED AFTER  18 CYCLES          *
               *****************************************************

Recomputing exchange energy using gridx3       ... done (    8.514 sec)
Old exchange energy                            :    -19.916245622 Eh
New exchange energy                            :    -19.916258355 Eh
Exchange energy change after final integration :     -0.000012733 Eh
Total energy after final integration           :  -1854.382994535 Eh

SMD CDS free energy correction energy :                 3.21305     Kcal/mol
Total Energy after SMD CDS correction =             -1854.377874222 Eh
             **** ENERGY FILE WAS UPDATED (rf_mecn_freq_TP_C3_P_B.en.tmp) ****

----------------
TOTAL SCF ENERGY
----------------

Total Energy       :      -1854.37787422178644 Eh          -50460.18730 eV

Components:
Nuclear Repulsion  :       2651.16693900431574 Eh           72141.92003 eV
Electronic Energy  :      -4505.53735198910272 Eh         -122601.90431 eV
One Electron Energy:      -7853.57292000407324 Eh         -213706.58379 eV
Two Electron Energy:       3348.03556801497052 Eh           91104.67948 eV
CPCM Dielectric    :         -0.01256881704238 Eh              -0.34201 eV
SMD CDS (Gcds)     :          0.00512031308119 Eh               0.13933 eV

Virial components:
Potential Energy   :      -3702.45280827465695 Eh         -100748.86289 eV
Kinetic Energy     :       1848.07493405287050 Eh           50288.67558 eV
Virial Ratio       :          2.00341054361637

DFT components:
N(Alpha)           :       95.999961225468 electrons
N(Beta)            :       94.999945466582 electrons
N(Total)           :      190.999906692050 electrons
E(X)               :     -180.980411123914 Eh       
E(C)               :       -6.718869484326 Eh       
E(XC)              :     -187.699280608241 Eh       

CPCM Solvation Model Properties:
Surface-charge          :         -0.00862930152705
Corrected charge        :          0.00000000000000
Outlying charge corr.   :          0.00000409678852 Eh               0.00011 eV
Free-energy (cav+disp)  :          0.00512031308119 Eh               0.13933 eV

---------------
SCF CONVERGENCE
---------------

  Last Energy change         ...   -7.8553e-09  Tolerance :   1.0000e-08
  Last MAX-Density change    ...    6.0336e-06  Tolerance :   1.0000e-07
  Last RMS-Density change    ...    9.0016e-08  Tolerance :   5.0000e-09
  Last DIIS Error            ...    3.6824e-04  Tolerance :   5.0000e-07
  Last Orbital Gradient      ...    3.9412e-06  Tolerance :   1.0000e-05
  Last Orbital Rotation      ...    1.3830e-05  Tolerance :   1.0000e-05


----------------------
UHF SPIN CONTAMINATION
----------------------

Warning: in a DFT calculation there is little theoretical justification to 
         calculate <S**2> as in Hartree-Fock theory. We will do it anyways
         but you should keep in mind that the values have only limited relevance

Expectation value of <S**2>     :     0.755550
Ideal value S*(S+1) for S=0.5   :     0.750000
Deviation                       :     0.005550

----------------
ORBITAL ENERGIES
----------------
                 SPIN UP ORBITALS
  NO   OCC          E(Eh)            E(eV) 
   0   1.0000     -24.674429      -671.4253 
   1   1.0000     -24.662378      -671.0974 
   2   1.0000     -24.661470      -671.0727 
   3   1.0000     -24.661303      -671.0682 
   4   1.0000     -24.661263      -671.0671 
   5   1.0000     -24.661255      -671.0669 
   6   1.0000     -24.660610      -671.0493 
   7   1.0000     -24.660424      -671.0442 
   8   1.0000     -24.660193      -671.0380 
   9   1.0000     -24.659652      -671.0232 
  10   1.0000     -24.655916      -670.9216 
  11   1.0000     -24.653951      -670.8681 
  12   1.0000     -24.642887      -670.5670 
  13   1.0000     -24.638266      -670.4413 
  14   1.0000     -19.132310      -520.6166 
  15   1.0000     -19.078187      -519.1439 
  16   1.0000     -10.397049      -282.9181 
  17   1.0000     -10.346549      -281.5439 
  18   1.0000     -10.345170      -281.5064 
  19   1.0000     -10.343724      -281.4670 
  20   1.0000     -10.342461      -281.4327 
  21   1.0000     -10.329710      -281.0857 
  22   1.0000     -10.279011      -279.7061 
  23   1.0000     -10.265323      -279.3336 
  24   1.0000      -1.323494       -36.0141 
  25   1.0000      -1.300851       -35.3980 
  26   1.0000      -1.285714       -34.9861 
  27   1.0000      -1.278558       -34.7913 
  28   1.0000      -1.275553       -34.7096 
  29   1.0000      -1.266871       -34.4733 
  30   1.0000      -1.261286       -34.3213 
  31   1.0000      -1.239028       -33.7157 
  32   1.0000      -1.233115       -33.5548 
  33   1.0000      -1.232427       -33.5360 
  34   1.0000      -1.226145       -33.3651 
  35   1.0000      -1.222629       -33.2694 
  36   1.0000      -1.218856       -33.1668 
  37   1.0000      -1.203995       -32.7624 
  38   1.0000      -1.117933       -30.4205 
  39   1.0000      -1.033861       -28.1328 
  40   1.0000      -0.834415       -22.7056 
  41   1.0000      -0.818850       -22.2820 
  42   1.0000      -0.787664       -21.4334 
  43   1.0000      -0.754961       -20.5435 
  44   1.0000      -0.711204       -19.3528 
  45   1.0000      -0.673779       -18.3345 
  46   1.0000      -0.657569       -17.8934 
  47   1.0000      -0.634251       -17.2589 
  48   1.0000      -0.624876       -17.0037 
  49   1.0000      -0.620300       -16.8792 
  50   1.0000      -0.611831       -16.6488 
  51   1.0000      -0.603318       -16.4171 
  52   1.0000      -0.600011       -16.3271 
  53   1.0000      -0.598396       -16.2832 
  54   1.0000      -0.587633       -15.9903 
  55   1.0000      -0.580532       -15.7971 
  56   1.0000      -0.578340       -15.7374 
  57   1.0000      -0.573452       -15.6044 
  58   1.0000      -0.567232       -15.4352 
  59   1.0000      -0.560116       -15.2415 
  60   1.0000      -0.551540       -15.0082 
  61   1.0000      -0.541859       -14.7447 
  62   1.0000      -0.506605       -13.7854 
  63   1.0000      -0.496035       -13.4978 
  64   1.0000      -0.488124       -13.2825 
  65   1.0000      -0.483694       -13.1620 
  66   1.0000      -0.478979       -13.0337 
  67   1.0000      -0.474378       -12.9085 
  68   1.0000      -0.471477       -12.8295 
  69   1.0000      -0.470596       -12.8056 
  70   1.0000      -0.464998       -12.6532 
  71   1.0000      -0.459810       -12.5121 
  72   1.0000      -0.457053       -12.4371 
  73   1.0000      -0.455538       -12.3958 
  74   1.0000      -0.450587       -12.2611 
  75   1.0000      -0.446734       -12.1563 
  76   1.0000      -0.440226       -11.9792 
  77   1.0000      -0.436819       -11.8864 
  78   1.0000      -0.435393       -11.8476 
  79   1.0000      -0.432699       -11.7743 
  80   1.0000      -0.430719       -11.7205 
  81   1.0000      -0.426124       -11.5954 
  82   1.0000      -0.424798       -11.5594 
  83   1.0000      -0.421099       -11.4587 
  84   1.0000      -0.420237       -11.4352 
  85   1.0000      -0.415973       -11.3192 
  86   1.0000      -0.414880       -11.2895 
  87   1.0000      -0.413276       -11.2458 
  88   1.0000      -0.408746       -11.1225 
  89   1.0000      -0.404614       -11.0101 
  90   1.0000      -0.384726       -10.4689 
  91   1.0000      -0.367943       -10.0122 
  92   1.0000      -0.339354        -9.2343 
  93   1.0000      -0.335316        -9.1244 
  94   1.0000      -0.296327        -8.0635 
  95   1.0000      -0.258205        -7.0261 
  96   0.0000      -0.060509        -1.6465 
  97   0.0000      -0.010156        -0.2764 
  98   0.0000      -0.007687        -0.2092 
  99   0.0000       0.019834         0.5397 
 100   0.0000       0.036491         0.9930 
 101   0.0000       0.052714         1.4344 
 102   0.0000       0.066938         1.8215 
 103   0.0000       0.080133         2.1805 
 104   0.0000       0.094697         2.5768 
 105   0.0000       0.105720         2.8768 
 106   0.0000       0.112717         3.0672 

                 SPIN DOWN ORBITALS
  NO   OCC          E(Eh)            E(eV) 
   0   1.0000     -24.669966      -671.3039 
   1   1.0000     -24.662379      -671.0974 
   2   1.0000     -24.661473      -671.0728 
   3   1.0000     -24.661302      -671.0681 
   4   1.0000     -24.661263      -671.0671 
   5   1.0000     -24.661254      -671.0668 
   6   1.0000     -24.660598      -671.0490 
   7   1.0000     -24.660416      -671.0440 
   8   1.0000     -24.660191      -671.0379 
   9   1.0000     -24.659633      -671.0227 
  10   1.0000     -24.655655      -670.9145 
  11   1.0000     -24.653212      -670.8480 
  12   1.0000     -24.642164      -670.5474 
  13   1.0000     -24.636705      -670.3988 
  14   1.0000     -19.132288      -520.6160 
  15   1.0000     -19.078159      -519.1431 
  16   1.0000     -10.397030      -282.9176 
  17   1.0000     -10.346416      -281.5403 
  18   1.0000     -10.345118      -281.5050 
  19   1.0000     -10.344682      -281.4931 
  20   1.0000     -10.341788      -281.4144 
  21   1.0000     -10.330494      -281.1070 
  22   1.0000     -10.278971      -279.7050 
  23   1.0000     -10.249610      -278.9061 
  24   1.0000      -1.323479       -36.0137 
  25   1.0000      -1.300542       -35.3895 
  26   1.0000      -1.284924       -34.9646 
  27   1.0000      -1.278410       -34.7873 
  28   1.0000      -1.273831       -34.6627 
  29   1.0000      -1.262776       -34.3619 
  30   1.0000      -1.256486       -34.1907 
  31   1.0000      -1.238993       -33.7147 
  32   1.0000      -1.233018       -33.5521 
  33   1.0000      -1.232357       -33.5341 
  34   1.0000      -1.225963       -33.3601 
  35   1.0000      -1.222560       -33.2675 
  36   1.0000      -1.217909       -33.1410 
  37   1.0000      -1.201402       -32.6918 
  38   1.0000      -1.117845       -30.4181 
  39   1.0000      -1.033797       -28.1310 
  40   1.0000      -0.826989       -22.5035 
  41   1.0000      -0.810933       -22.0666 
  42   1.0000      -0.784039       -21.3348 
  43   1.0000      -0.753594       -20.5063 
  44   1.0000      -0.706415       -19.2225 
  45   1.0000      -0.671126       -18.2623 
  46   1.0000      -0.656354       -17.8603 
  47   1.0000      -0.631364       -17.1803 
  48   1.0000      -0.623812       -16.9748 
  49   1.0000      -0.619464       -16.8565 
  50   1.0000      -0.611516       -16.6402 
  51   1.0000      -0.601428       -16.3657 
  52   1.0000      -0.598644       -16.2899 
  53   1.0000      -0.596725       -16.2377 
  54   1.0000      -0.586169       -15.9505 
  55   1.0000      -0.577721       -15.7206 
  56   1.0000      -0.577118       -15.7042 
  57   1.0000      -0.572524       -15.5792 
  58   1.0000      -0.562981       -15.3195 
  59   1.0000      -0.559450       -15.2234 
  60   1.0000      -0.550475       -14.9792 
  61   1.0000      -0.540357       -14.7039 
  62   1.0000      -0.495814       -13.4918 
  63   1.0000      -0.488102       -13.2819 
  64   1.0000      -0.484157       -13.1746 
  65   1.0000      -0.480565       -13.0768 
  66   1.0000      -0.476567       -12.9681 
  67   1.0000      -0.472751       -12.8642 
  68   1.0000      -0.471291       -12.8245 
  69   1.0000      -0.469443       -12.7742 
  70   1.0000      -0.463733       -12.6188 
  71   1.0000      -0.459628       -12.5071 
  72   1.0000      -0.456326       -12.4173 
  73   1.0000      -0.454293       -12.3619 
  74   1.0000      -0.449530       -12.2323 
  75   1.0000      -0.445923       -12.1342 
  76   1.0000      -0.439385       -11.9563 
  77   1.0000      -0.435787       -11.8584 
  78   1.0000      -0.433326       -11.7914 
  79   1.0000      -0.431099       -11.7308 
  80   1.0000      -0.428690       -11.6653 
  81   1.0000      -0.425926       -11.5900 
  82   1.0000      -0.424666       -11.5558 
  83   1.0000      -0.420641       -11.4462 
  84   1.0000      -0.419500       -11.4152 
  85   1.0000      -0.415460       -11.3052 
  86   1.0000      -0.413601       -11.2547 
  87   1.0000      -0.412881       -11.2351 
  88   1.0000      -0.407167       -11.0796 
  89   1.0000      -0.403502       -10.9799 
  90   1.0000      -0.382688       -10.4135 
  91   1.0000      -0.366133        -9.9630 
  92   1.0000      -0.339119        -9.2279 
  93   1.0000      -0.333459        -9.0739 
  94   1.0000      -0.295847        -8.0504 
  95   0.0000      -0.135281        -3.6812 
  96   0.0000      -0.058249        -1.5850 
  97   0.0000      -0.007687        -0.2092 
  98   0.0000      -0.003922        -0.1067 
  99   0.0000       0.024785         0.6744 
 100   0.0000       0.037547         1.0217 
 101   0.0000       0.062601         1.7035 
 102   0.0000       0.072317         1.9678 
 103   0.0000       0.086232         2.3465 
 104   0.0000       0.096991         2.6393 
 105   0.0000       0.110597         3.0095 
*Only the first 10 virtual orbitals were printed.

                    ********************************
                    * MULLIKEN POPULATION ANALYSIS *
                    ********************************

--------------------------------------------
MULLIKEN ATOMIC CHARGES AND SPIN POPULATIONS
--------------------------------------------
   0 C :    0.227554   -0.005855
   1 O :   -0.342294   -0.000124
   2 O :   -0.291753    0.000837
   3 C :    0.409845   -0.004084
   4 C :    0.101231    0.851025
   5 C :    0.335546   -0.022883
   6 C :    0.275908    0.029262
   7 C :    0.272711    0.005662
   8 C :    0.296978    0.002198
   9 C :    0.408436    0.000718
  10 F :   -0.173008    0.028871
  11 F :   -0.166126    0.012172
  12 F :   -0.130519    0.084529
  13 F :   -0.156380    0.013616
  14 F :   -0.152511    0.003813
  15 F :   -0.153577   -0.000384
  16 F :   -0.153226   -0.000127
  17 F :   -0.149004   -0.000179
  18 F :   -0.149302    0.000155
  19 F :   -0.146811   -0.000024
  20 F :   -0.143915    0.000067
  21 F :   -0.135660   -0.000025
  22 F :   -0.132459    0.000231
  23 F :   -0.133039    0.000012
  24 H :    0.381373    0.000518
Sum of atomic charges         :    0.0000000
Sum of atomic spin populations:    1.0000000

-----------------------------------------------------
MULLIKEN REDUCED ORBITAL CHARGES AND SPIN POPULATIONS
-----------------------------------------------------
CHARGE
  0 C s       :     3.094541  s :     3.094541
      pz      :     0.791879  p :     2.383514
      px      :     0.800291
      py      :     0.791344
      dz2     :     0.023626  d :     0.270301
      dxz     :     0.018846
      dyz     :     0.071430
      dx2y2   :     0.051964
      dxy     :     0.104435
      f0      :     0.002187  f :     0.024089
      f+1     :     0.002472
      f-1     :     0.002165
      f+2     :     0.004455
      f-2     :     0.001857
      f+3     :     0.007286
      f-3     :     0.003667

  1 O s       :     3.773429  s :     3.773429
      pz      :     1.592349  p :     4.535571
      px      :     1.372922
      py      :     1.570300
      dz2     :     0.003073  d :     0.031477
      dxz     :     0.003906
      dyz     :     0.007295
      dx2y2   :     0.004765
      dxy     :     0.012438
      f0      :     0.000318  f :     0.001817
      f+1     :     0.000299
      f-1     :     0.000085
      f+2     :     0.000155
      f-2     :     0.000521
      f+3     :     0.000183
      f-3     :     0.000258

  2 O s       :     3.805380  s :     3.805380
      pz      :     1.473643  p :     4.454135
      px      :     1.658015
      py      :     1.322477
      dz2     :     0.002638  d :     0.030265
      dxz     :     0.000195
      dyz     :     0.010399
      dx2y2   :     0.008113
      dxy     :     0.008919
      f0      :     0.000248  f :     0.001974
      f+1     :     0.000030
      f-1     :     0.000204
      f+2     :     0.000445
      f-2     :     0.000021
      f+3     :     0.000599
      f-3     :     0.000426

  3 C s       :     2.980535  s :     2.980535
      pz      :     0.720359  p :     2.289525
      px      :     0.888736
      py      :     0.680429
      dz2     :     0.053766  d :     0.292632
      dxz     :     0.054723
      dyz     :     0.064631
      dx2y2   :     0.057110
      dxy     :     0.062402
      f0      :     0.004487  f :     0.027463
      f+1     :     0.002886
      f-1     :     0.004560
      f+2     :     0.004547
      f-2     :     0.004052
      f+3     :     0.002650
      f-3     :     0.004281

  4 C s       :     3.230579  s :     3.230579
      pz      :     0.602404  p :     2.487662
      px      :     0.888945
      py      :     0.996313
      dz2     :     0.034700  d :     0.162534
      dxz     :     0.061198
      dyz     :     0.037676
      dx2y2   :     0.014392
      dxy     :     0.014567
      f0      :     0.003585  f :     0.017994
      f+1     :     0.004748
      f-1     :     0.004288
      f+2     :     0.001462
      f-2     :     0.001300
      f+3     :     0.001252
      f-3     :     0.001359

  5 C s       :     3.059178  s :     3.059178
      pz      :     0.604410  p :     2.264987
      px      :     0.902331
      py      :     0.758246
      dz2     :     0.077301  d :     0.312297
      dxz     :     0.067196
      dyz     :     0.058609
      dx2y2   :     0.047570
      dxy     :     0.061622
      f0      :     0.005180  f :     0.027992
      f+1     :     0.004274
      f-1     :     0.005491
      f+2     :     0.004110
      f-2     :     0.003949
      f+3     :     0.002442
      f-3     :     0.002544

  6 C s       :     3.139803  s :     3.139803
      pz      :     0.581657  p :     2.250067
      px      :     0.918944
      py      :     0.749466
      dz2     :     0.083095  d :     0.305714
      dxz     :     0.064930
      dyz     :     0.056980
      dx2y2   :     0.045164
      dxy     :     0.055546
      f0      :     0.006308  f :     0.028508
      f+1     :     0.004128
      f-1     :     0.004352
      f+2     :     0.004502
      f-2     :     0.005020
      f+3     :     0.002090
      f-3     :     0.002109

  7 C s       :     3.131093  s :     3.131093
      pz      :     0.605603  p :     2.265094
      px      :     0.922688
      py      :     0.736804
      dz2     :     0.078451  d :     0.302661
      dxz     :     0.060280
      dyz     :     0.063884
      dx2y2   :     0.042766
      dxy     :     0.057280
      f0      :     0.005233  f :     0.028441
      f+1     :     0.003805
      f-1     :     0.006226
      f+2     :     0.003574
      f-2     :     0.004713
      f+3     :     0.002558
      f-3     :     0.002333

  8 C s       :     3.104452  s :     3.104452
      pz      :     0.624646  p :     2.272511
      px      :     0.919502
      py      :     0.728363
      dz2     :     0.061728  d :     0.297528
      dxz     :     0.064954
      dyz     :     0.072351
      dx2y2   :     0.047543
      dxy     :     0.050951
      f0      :     0.003546  f :     0.028533
      f+1     :     0.005513
      f-1     :     0.008253
      f+2     :     0.002512
      f-2     :     0.002377
      f+3     :     0.003082
      f-3     :     0.003250

  9 C s       :     3.020833  s :     3.020833
      pz      :     0.652991  p :     2.167084
      px      :     0.869913
      py      :     0.644180
      dz2     :     0.071936  d :     0.363209
      dxz     :     0.066352
      dyz     :     0.091020
      dx2y2   :     0.071189
      dxy     :     0.062713
      f0      :     0.004469  f :     0.040438
      f+1     :     0.006963
      f-1     :     0.010138
      f+2     :     0.004458
      f-2     :     0.003982
      f+3     :     0.004625
      f-3     :     0.005802

 10 F s       :     3.917348  s :     3.917348
      pz      :     1.837357  p :     5.240371
      px      :     1.838040
      py      :     1.564974
      dz2     :     0.001769  d :     0.014633
      dxz     :     0.001250
      dyz     :     0.003522
      dx2y2   :     0.003936
      dxy     :     0.004156
      f0      :     0.000068  f :     0.000655
      f+1     :     0.000021
      f-1     :     0.000087
      f+2     :     0.000091
      f-2     :     0.000105
      f+3     :     0.000170
      f-3     :     0.000111

 11 F s       :     3.918307  s :     3.918307
      pz      :     1.587595  p :     5.231943
      px      :     1.850911
      py      :     1.793438
      dz2     :     0.004006  d :     0.015190
      dxz     :     0.003659
      dyz     :     0.004693
      dx2y2   :     0.001311
      dxy     :     0.001521
      f0      :     0.000098  f :     0.000686
      f+1     :     0.000123
      f-1     :     0.000192
      f+2     :     0.000094
      f-2     :     0.000137
      f+3     :     0.000025
      f-3     :     0.000017

 12 F s       :     3.921670  s :     3.921670
      pz      :     1.468941  p :     5.190694
      px      :     1.881036
      py      :     1.840718
      dz2     :     0.007709  d :     0.017408
      dxz     :     0.004302
      dyz     :     0.004826
      dx2y2   :     0.000269
      dxy     :     0.000301
      f0      :     0.000314  f :     0.000746
      f+1     :     0.000194
      f-1     :     0.000189
      f+2     :     0.000022
      f-2     :     0.000024
      f+3     :     0.000001
      f-3     :     0.000001

 13 F s       :     3.918828  s :     3.918828
      pz      :     1.700475  p :     5.221623
      px      :     1.859536
      py      :     1.661612
      dz2     :     0.002488  d :     0.015253
      dxz     :     0.002170
      dyz     :     0.005452
      dx2y2   :     0.002525
      dxy     :     0.002618
      f0      :     0.000074  f :     0.000676
      f+1     :     0.000040
      f-1     :     0.000157
      f+2     :     0.000140
      f-2     :     0.000149
      f+3     :     0.000063
      f-3     :     0.000053

 14 F s       :     3.920006  s :     3.920006
      pz      :     1.504147  p :     5.216103
      px      :     1.901668
      py      :     1.810288
      dz2     :     0.006165  d :     0.015703
      dxz     :     0.002988
      dyz     :     0.004981
      dx2y2   :     0.000762
      dxy     :     0.000807
      f0      :     0.000214  f :     0.000699
      f+1     :     0.000097
      f-1     :     0.000252
      f+2     :     0.000065
      f-2     :     0.000060
      f+3     :     0.000006
      f-3     :     0.000005

 15 F s       :     3.921011  s :     3.921011
      pz      :     1.611439  p :     5.215892
      px      :     1.884118
      py      :     1.720335
      dz2     :     0.003847  d :     0.015969
      dxz     :     0.002593
      dyz     :     0.005941
      dx2y2   :     0.001834
      dxy     :     0.001754
      f0      :     0.000103  f :     0.000705
      f+1     :     0.000058
      f-1     :     0.000238
      f+2     :     0.000136
      f-2     :     0.000116
      f+3     :     0.000027
      f-3     :     0.000027

 16 F s       :     3.919011  s :     3.919011
      pz      :     1.571630  p :     5.217536
      px      :     1.890486
      py      :     1.755420
      dz2     :     0.004663  d :     0.015970
      dxz     :     0.002846
      dyz     :     0.005700
      dx2y2   :     0.001400
      dxy     :     0.001361
      f0      :     0.000133  f :     0.000710
      f+1     :     0.000075
      f-1     :     0.000256
      f+2     :     0.000112
      f-2     :     0.000100
      f+3     :     0.000015
      f-3     :     0.000017

 17 F s       :     3.918786  s :     3.918786
      pz      :     1.704309  p :     5.213425
      px      :     1.895247
      py      :     1.613869
      dz2     :     0.002604  d :     0.016080
      dxz     :     0.001603
      dyz     :     0.006276
      dx2y2   :     0.003147
      dxy     :     0.002451
      f0      :     0.000079  f :     0.000713
      f+1     :     0.000014
      f-1     :     0.000189
      f+2     :     0.000200
      f-2     :     0.000104
      f+3     :     0.000058
      f-3     :     0.000068

 18 F s       :     3.918884  s :     3.918884
      pz      :     1.509862  p :     5.213651
      px      :     1.868004
      py      :     1.835785
      dz2     :     0.006181  d :     0.016056
      dxz     :     0.003984
      dyz     :     0.004280
      dx2y2   :     0.000762
      dxy     :     0.000849
      f0      :     0.000210  f :     0.000711
      f+1     :     0.000160
      f-1     :     0.000197
      f+2     :     0.000059
      f-2     :     0.000074
      f+3     :     0.000005
      f-3     :     0.000007

 19 F s       :     3.918018  s :     3.918018
      pz      :     1.807060  p :     5.212087
      px      :     1.862853
      py      :     1.542175
      dz2     :     0.002032  d :     0.015995
      dxz     :     0.001070
      dyz     :     0.004701
      dx2y2   :     0.004367
      dxy     :     0.003825
      f0      :     0.000081  f :     0.000711
      f+1     :     0.000014
      f-1     :     0.000113
      f+2     :     0.000148
      f-2     :     0.000100
      f+3     :     0.000132
      f-3     :     0.000124

 20 F s       :     3.915680  s :     3.915680
      pz      :     1.434620  p :     5.211387
      px      :     1.896680
      py      :     1.880087
      dz2     :     0.008443  d :     0.016124
      dxz     :     0.003770
      dyz     :     0.003515
      dx2y2   :     0.000199
      dxy     :     0.000197
      f0      :     0.000372  f :     0.000724
      f+1     :     0.000163
      f-1     :     0.000167
      f+2     :     0.000009
      f-2     :     0.000011
      f+3     :     0.000001
      f-3     :     0.000001

 21 F s       :     3.912852  s :     3.912852
      pz      :     1.846164  p :     5.205868
      px      :     1.850552
      py      :     1.509153
      dz2     :     0.002166  d :     0.016180
      dxz     :     0.000740
      dyz     :     0.004037
      dx2y2   :     0.005062
      dxy     :     0.004175
      f0      :     0.000080  f :     0.000759
      f+1     :     0.000017
      f-1     :     0.000125
      f+2     :     0.000124
      f-2     :     0.000072
      f+3     :     0.000173
      f-3     :     0.000169

 22 F s       :     3.911270  s :     3.911270
      pz      :     1.794951  p :     5.204184
      px      :     1.729031
      py      :     1.680203
      dz2     :     0.002152  d :     0.016235
      dxz     :     0.002767
      dyz     :     0.003587
      dx2y2   :     0.003019
      dxy     :     0.004710
      f0      :     0.000089  f :     0.000769
      f+1     :     0.000060
      f-1     :     0.000084
      f+2     :     0.000074
      f-2     :     0.000207
      f+3     :     0.000138
      f-3     :     0.000116

 23 F s       :     3.911462  s :     3.911462
      pz      :     1.445191  p :     5.204471
      px      :     1.878334
      py      :     1.880945
      dz2     :     0.008532  d :     0.016333
      dxz     :     0.003934
      dyz     :     0.003368
      dx2y2   :     0.000263
      dxy     :     0.000237
      f0      :     0.000381  f :     0.000773
      f+1     :     0.000185
      f-1     :     0.000169
      f+2     :     0.000021
      f-2     :     0.000014
      f+3     :     0.000001
      f-3     :     0.000001

 24 H s       :     0.576953  s :     0.576953
      pz      :     0.013741  p :     0.041674
      px      :     0.015146
      py      :     0.012787


SPIN
  0 C s       :    -0.001091  s :    -0.001091
      pz      :     0.000096  p :    -0.004343
      px      :    -0.004769
      py      :     0.000330
      dz2     :    -0.000064  d :    -0.000468
      dxz     :    -0.000035
      dyz     :    -0.000238
      dx2y2   :    -0.000083
      dxy     :    -0.000049
      f0      :     0.000002  f :     0.000047
      f+1     :    -0.000002
      f-1     :    -0.000001
      f+2     :    -0.000004
      f-2     :    -0.000006
      f+3     :     0.000063
      f-3     :    -0.000005

  1 O s       :     0.000098  s :     0.000098
      pz      :    -0.000379  p :    -0.000256
      px      :     0.000172
      py      :    -0.000049
      dz2     :    -0.000000  d :     0.000032
      dxz     :     0.000006
      dyz     :     0.000007
      dx2y2   :     0.000003
      dxy     :     0.000017
      f0      :     0.000000  f :     0.000002
      f+1     :     0.000000
      f-1     :    -0.000000
      f+2     :     0.000000
      f-2     :     0.000000
      f+3     :     0.000001
      f-3     :     0.000000

  2 O s       :     0.000153  s :     0.000153
      pz      :    -0.000504  p :     0.000682
      px      :     0.001341
      py      :    -0.000156
      dz2     :     0.000001  d :     0.000003
      dxz     :    -0.000000
      dyz     :     0.000000
      dx2y2   :     0.000010
      dxy     :    -0.000008
      f0      :     0.000000  f :    -0.000001
      f+1     :     0.000000
      f-1     :     0.000000
      f+2     :    -0.000000
      f-2     :     0.000000
      f+3     :    -0.000000
      f-3     :    -0.000000

  3 C s       :    -0.008453  s :    -0.008453
      pz      :    -0.010124  p :    -0.010219
      px      :    -0.017062
      py      :     0.016967
      dz2     :    -0.000034  d :     0.013004
      dxz     :     0.000060
      dyz     :     0.006906
      dx2y2   :    -0.000526
      dxy     :     0.006599
      f0      :     0.000012  f :     0.001584
      f+1     :    -0.000004
      f-1     :     0.000092
      f+2     :     0.000156
      f-2     :     0.000731
      f+3     :     0.000340
      f-3     :     0.000257

  4 C s       :     0.054575  s :     0.054575
      pz      :     0.018100  p :     0.795514
      px      :     0.082829
      py      :     0.694585
      dz2     :     0.000368  d :     0.003125
      dxz     :     0.000893
      dyz     :     0.003075
      dx2y2   :    -0.001790
      dxy     :     0.000579
      f0      :    -0.000389  f :    -0.002190
      f+1     :    -0.000139
      f-1     :    -0.000346
      f+2     :    -0.000360
      f-2     :    -0.000072
      f+3     :    -0.000412
      f-3     :    -0.000472

  5 C s       :    -0.012149  s :    -0.012149
      pz      :    -0.004474  p :    -0.032699
      px      :    -0.029291
      py      :     0.001067
      dz2     :     0.000864  d :     0.020816
      dxz     :     0.000055
      dyz     :    -0.000032
      dx2y2   :     0.006401
      dxy     :     0.013528
      f0      :    -0.000005  f :     0.001148
      f+1     :     0.000022
      f-1     :     0.000122
      f+2     :     0.000075
      f-2     :     0.000093
      f+3     :     0.000600
      f-3     :     0.000241

  6 C s       :    -0.001886  s :    -0.001886
      pz      :     0.000897  p :     0.026377
      px      :     0.010082
      py      :     0.015398
      dz2     :     0.000721  d :     0.004776
      dxz     :     0.000163
      dyz     :     0.000032
      dx2y2   :     0.003693
      dxy     :     0.000167
      f0      :    -0.000010  f :    -0.000004
      f+1     :     0.000005
      f-1     :    -0.000010
      f+2     :    -0.000004
      f-2     :    -0.000003
      f+3     :     0.000044
      f-3     :    -0.000026

  7 C s       :    -0.000801  s :    -0.000801
      pz      :     0.000161  p :     0.005633
      px      :     0.002980
      py      :     0.002492
      dz2     :     0.000114  d :     0.000810
      dxz     :    -0.000006
      dyz     :     0.000025
      dx2y2   :     0.000415
      dxy     :     0.000262
      f0      :    -0.000002  f :     0.000020
      f+1     :     0.000000
      f-1     :    -0.000001
      f+2     :    -0.000001
      f-2     :    -0.000001
      f+3     :     0.000010
      f-3     :     0.000014

  8 C s       :     0.000039  s :     0.000039
      pz      :     0.000092  p :     0.001796
      px      :     0.000377
      py      :     0.001327
      dz2     :     0.000037  d :     0.000355
      dxz     :    -0.000011
      dyz     :     0.000005
      dx2y2   :     0.000319
      dxy     :     0.000004
      f0      :    -0.000002  f :     0.000008
      f+1     :     0.000000
      f-1     :    -0.000000
      f+2     :     0.000003
      f-2     :     0.000000
      f+3     :     0.000004
      f-3     :     0.000002

  9 C s       :     0.000314  s :     0.000314
      pz      :     0.000056  p :     0.000352
      px      :     0.000244
      py      :     0.000052
      dz2     :     0.000000  d :     0.000048
      dxz     :     0.000004
      dyz     :    -0.000003
      dx2y2   :     0.000005
      dxy     :     0.000043
      f0      :    -0.000000  f :     0.000004
      f+1     :    -0.000000
      f-1     :     0.000000
      f+2     :    -0.000000
      f-2     :     0.000001
      f+3     :     0.000000
      f-3     :     0.000003

 10 F s       :    -0.000477  s :    -0.000477
      pz      :     0.015088  p :     0.029323
      px      :     0.009985
      py      :     0.004250
      dz2     :     0.000011  d :     0.000020
      dxz     :     0.000050
      dyz     :    -0.000030
      dx2y2   :     0.000006
      dxy     :    -0.000017
      f0      :     0.000000  f :     0.000004
      f+1     :     0.000001
      f-1     :    -0.000000
      f+2     :     0.000001
      f-2     :     0.000001
      f+3     :     0.000002
      f-3     :    -0.000001

 11 F s       :    -0.000450  s :    -0.000450
      pz      :     0.012545  p :     0.012587
      px      :     0.000530
      py      :    -0.000488
      dz2     :    -0.000009  d :     0.000036
      dxz     :     0.000028
      dyz     :     0.000023
      dx2y2   :     0.000002
      dxy     :    -0.000010
      f0      :     0.000000  f :    -0.000001
      f+1     :     0.000001
      f-1     :     0.000001
      f+2     :    -0.000000
      f-2     :    -0.000001
      f+3     :     0.000000
      f-3     :    -0.000000

 12 F s       :     0.004700  s :     0.004700
      pz      :    -0.013186  p :     0.078173
      px      :     0.006119
      py      :     0.085240
      dz2     :     0.000142  d :     0.001632
      dxz     :     0.000156
      dyz     :     0.001259
      dx2y2   :     0.000030
      dxy     :     0.000045
      f0      :    -0.000010  f :     0.000024
      f+1     :     0.000002
      f-1     :     0.000028
      f+2     :     0.000002
      f-2     :     0.000003
      f+3     :    -0.000000
      f-3     :    -0.000000

 13 F s       :     0.000070  s :     0.000070
      pz      :     0.004848  p :     0.013552
      px      :     0.004330
      py      :     0.004375
      dz2     :     0.000018  d :    -0.000012
      dxz     :    -0.000020
      dyz     :    -0.000018
      dx2y2   :     0.000027
      dxy     :    -0.000019
      f0      :     0.000001  f :     0.000006
      f+1     :     0.000001
      f-1     :     0.000000
      f+2     :     0.000001
      f-2     :     0.000001
      f+3     :     0.000002
      f-3     :     0.000000

 14 F s       :    -0.000175  s :    -0.000175
      pz      :     0.006212  p :     0.003950
      px      :    -0.001258
      py      :    -0.001004
      dz2     :    -0.000018  d :     0.000034
      dxz     :    -0.000015
      dyz     :     0.000014
      dx2y2   :     0.000040
[...]
 11:     46.76   0.000017    0.09  0.000114  (-0.005803  0.008766 -0.001738)
 12:     60.71   0.000003    0.02  0.000017  ( 0.002739 -0.001241  0.002905)
 13:     75.37   0.000031    0.16  0.000127  (-0.002204 -0.010917  0.001795)
 14:    100.36   0.000067    0.34  0.000209  (-0.010305 -0.008647  0.005332)
 15:    118.02   0.000169    0.86  0.000448  ( 0.016702  0.005057 -0.011972)
 16:    149.85   0.000131    0.66  0.000272  (-0.015698  0.000375 -0.005022)
 17:    158.29   0.000258    1.30  0.000509  ( 0.009246 -0.008914 -0.018549)
 18:    179.19   0.000962    4.86  0.001676  (-0.015747  0.004485 -0.037516)
 19:    189.45   0.001550    7.83  0.002552  ( 0.010326  0.013906 -0.047460)
 20:    200.74   0.000158    0.80  0.000245  (-0.006722  0.013273 -0.004864)
 21:    217.28   0.000134    0.68  0.000192  (-0.009232 -0.010165  0.001973)
 22:    234.69   0.000020    0.10  0.000027  (-0.004279  0.001877 -0.002197)
 23:    239.04   0.000118    0.60  0.000154  ( 0.010949  0.001956 -0.005517)
 24:    242.58   0.000533    2.69  0.000685  (-0.022479 -0.008511  0.010368)
 25:    269.37   0.000276    1.39  0.000320  ( 0.013622  0.008166  0.008202)
 26:    276.38   0.001514    7.65  0.001710  ( 0.035894 -0.019774 -0.005500)
 27:    302.66   0.000007    0.04  0.000008  (-0.001389  0.002361 -0.000195)
 28:    312.93   0.000076    0.38  0.000075  (-0.005950 -0.006296  0.000675)
 29:    339.69   0.000363    1.83  0.000333  (-0.002709 -0.010826 -0.014455)
 30:    343.57   0.000078    0.39  0.000071  (-0.007399 -0.001731 -0.003610)
 31:    355.08   0.000091    0.46  0.000080  ( 0.004291 -0.007818  0.000495)
 32:    364.02   0.000544    2.75  0.000467  ( 0.006936  0.018233 -0.009283)
 33:    368.58   0.000113    0.57  0.000096  ( 0.009584 -0.001603 -0.001239)
 34:    398.66   0.000854    4.32  0.000668  (-0.025407  0.002259 -0.004225)
 35:    413.48   0.001352    6.83  0.001020  (-0.031240 -0.006484 -0.001510)
 36:    461.78   0.002074   10.48  0.001402  (-0.024714 -0.007648  0.027066)
 37:    492.09   0.005242   26.49  0.003324  (-0.054869 -0.000125  0.017702)
 38:    511.86   0.007015   35.45  0.004277  ( 0.056445 -0.026590 -0.019588)
 39:    525.07   0.002031   10.27  0.001207  ( 0.018498  0.028797 -0.005982)
 40:    540.41   0.000205    1.04  0.000119  ( 0.003275 -0.009051  0.005097)
 41:    556.02   0.007222   36.50  0.004053  ( 0.052934  0.025044  0.024978)
 42:    561.34   0.002680   13.54  0.001490  (-0.017328  0.030468  0.016162)
 43:    586.22   0.007867   39.76  0.004188  ( 0.061599 -0.018466  0.007249)
 44:    602.19   0.002467   12.47  0.001278  (-0.003156 -0.002337 -0.035540)
 45:    625.13   0.036371  183.81  0.018157  ( 0.099397 -0.007112  0.090699)
 46:    641.93   0.042108  212.79  0.020470  ( 0.142129  0.006326 -0.015137)
 47:    658.77   0.002913   14.72  0.001380  (-0.027907  0.001986 -0.024433)
 48:    687.92   0.016153   81.63  0.007327  (-0.077511  0.033924  0.012986)
 49:    710.63   0.004185   21.15  0.001838  (-0.035303  0.020474  0.013127)
 50:    749.63   0.001245    6.29  0.000518  (-0.006339  0.010664 -0.019085)
 51:    761.46   0.010684   53.99  0.004378  (-0.011932  0.010069  0.064302)
 52:    863.75   0.003919   19.80  0.001416  ( 0.018652 -0.029729 -0.013572)
 53:    978.43   0.015541   78.54  0.004957  ( 0.060009  0.022198  0.029372)
 54:   1036.19   0.058450  295.38  0.017603  ( 0.065606 -0.114132  0.016519)
 55:   1076.96   0.019994  101.04  0.005793  (-0.035825  0.067151  0.000793)
 56:   1096.96   0.013076   66.08  0.003720  (-0.009436  0.057892  0.016714)
 57:   1104.98   0.023690  119.72  0.006690  (-0.056964  0.036198  0.046208)
 58:   1118.31   0.101366  512.26  0.028286  ( 0.060981  0.148213  0.050995)
 59:   1128.12   0.048767  246.45  0.013490  ( 0.034151 -0.037752 -0.104397)
 60:   1136.48   0.030541  154.34  0.008386  (-0.008876 -0.007150 -0.090865)
 61:   1145.89   0.102806  519.54  0.027998  ( 0.017128  0.080262 -0.145816)
 62:   1149.42   0.034394  173.81  0.009338  (-0.008986 -0.087782  0.039388)
 63:   1154.61   0.108017  545.88  0.029195  ( 0.001811 -0.041340 -0.165778)
 64:   1172.03   0.079814  403.35  0.021251  ( 0.026091 -0.095890  0.106656)
 65:   1176.03   0.038089  192.49  0.010107  (-0.075686  0.008776  0.065589)
 66:   1192.78   0.026203  132.42  0.006855  ( 0.024412  0.019764  0.076608)
 67:   1228.72   0.010987   55.52  0.002790  ( 0.039512 -0.032695 -0.012660)
 68:   1262.64   0.004979   25.16  0.001231  ( 0.018443 -0.023930  0.017827)
 69:   1308.49   0.022159  111.98  0.005285  ( 0.064234  0.033605  0.005430)
 70:   1321.47   0.022896  115.71  0.005407  ( 0.070063 -0.014842 -0.016667)
 71:   1356.39   0.008192   41.40  0.001885  ( 0.032238  0.012942  0.026035)
 72:   1398.96   0.015137   76.49  0.003377  (-0.041841  0.024540  0.031995)
 73:   1808.10   0.087591  442.65  0.015118  ( 0.027291 -0.118201 -0.020030)
 74:   3604.32   0.046726  236.13  0.004046  (-0.052904 -0.016755  0.031081)

* The epsilon (eps) is given for a Dirac delta lineshape.
** The dipole moment derivative (T) already includes vibrational overlap.

The first frequency considered to be a vibration is 6
The total number of vibrations considered is 69


--------------------------
THERMOCHEMISTRY AT 298.15K
--------------------------

Temperature         ...   298.15 K
Pressure            ...     1.00 atm
Total Mass          ...   395.07 AMU
Quasi RRHO          ...     True
Cut-Off Frequency   ...     1.00 cm^-1

Throughout the following assumptions are being made:
  (1) The electronic state is orbitally nondegenerate
      but the spin degeneracy is treated
  (2) There are no thermally accessible electronically excited states
  (3) Hindered rotations indicated by low frequency modes are not
      treated as such but are treated as vibrations and this may
      cause some error
  (4) All equations used are the standard statistical mechanics
      equations for an ideal gas
  (5) All vibrations are strictly harmonic

freq.      12.76  E(vib)   ...       0.57 
freq.      26.31  E(vib)   ...       0.56 
freq.      31.34  E(vib)   ...       0.55 
freq.      41.27  E(vib)   ...       0.54 
freq.      41.65  E(vib)   ...       0.53 
freq.      46.76  E(vib)   ...       0.53 
freq.      60.71  E(vib)   ...       0.51 
freq.      75.37  E(vib)   ...       0.49 
freq.     100.36  E(vib)   ...       0.46 
freq.     118.02  E(vib)   ...       0.44 
freq.     149.85  E(vib)   ...       0.40 
freq.     158.29  E(vib)   ...       0.39 
freq.     179.19  E(vib)   ...       0.37 
freq.     189.45  E(vib)   ...       0.36 
freq.     200.74  E(vib)   ...       0.35 
freq.     217.28  E(vib)   ...       0.34 
freq.     234.69  E(vib)   ...       0.32 
freq.     239.04  E(vib)   ...       0.32 
freq.     242.58  E(vib)   ...       0.31 
freq.     269.37  E(vib)   ...       0.29 
freq.     276.38  E(vib)   ...       0.28 
freq.     302.66  E(vib)   ...       0.26 
freq.     312.93  E(vib)   ...       0.25 
freq.     339.69  E(vib)   ...       0.23 
freq.     343.57  E(vib)   ...       0.23 
freq.     355.08  E(vib)   ...       0.22 
freq.     364.02  E(vib)   ...       0.22 
freq.     368.58  E(vib)   ...       0.21 
freq.     398.66  E(vib)   ...       0.19 
freq.     413.48  E(vib)   ...       0.19 
freq.     461.78  E(vib)   ...       0.16 
freq.     492.09  E(vib)   ...       0.14 
freq.     511.86  E(vib)   ...       0.14 
freq.     525.07  E(vib)   ...       0.13 
freq.     540.41  E(vib)   ...       0.12 
freq.     556.02  E(vib)   ...       0.12 
freq.     561.34  E(vib)   ...       0.11 
freq.     586.22  E(vib)   ...       0.11 
freq.     602.19  E(vib)   ...       0.10 
freq.     625.13  E(vib)   ...       0.09 
freq.     641.93  E(vib)   ...       0.09 
freq.     658.77  E(vib)   ...       0.08 
freq.     687.92  E(vib)   ...       0.07 
freq.     710.63  E(vib)   ...       0.07 
freq.     749.63  E(vib)   ...       0.06 
freq.     761.46  E(vib)   ...       0.06 
freq.     863.75  E(vib)   ...       0.04 
freq.     978.43  E(vib)   ...       0.03 
freq.    1036.19  E(vib)   ...       0.02 
freq.    1076.96  E(vib)   ...       0.02 
freq.    1096.96  E(vib)   ...       0.02 
freq.    1104.98  E(vib)   ...       0.02 
freq.    1118.31  E(vib)   ...       0.01 
freq.    1128.12  E(vib)   ...       0.01 
freq.    1136.48  E(vib)   ...       0.01 
freq.    1145.89  E(vib)   ...       0.01 
freq.    1149.42  E(vib)   ...       0.01 
freq.    1154.61  E(vib)   ...       0.01 
freq.    1172.03  E(vib)   ...       0.01 
freq.    1176.03  E(vib)   ...       0.01 
freq.    1192.78  E(vib)   ...       0.01 
freq.    1228.72  E(vib)   ...       0.01 
freq.    1262.64  E(vib)   ...       0.01 
freq.    1308.49  E(vib)   ...       0.01 
freq.    1321.47  E(vib)   ...       0.01 
freq.    1356.39  E(vib)   ...       0.01 
freq.    1398.96  E(vib)   ...       0.00 
freq.    1808.10  E(vib)   ...       0.00 
freq.    3604.32  E(vib)   ...       0.00 

------------
INNER ENERGY
------------

The inner energy is: U= E(el) + E(ZPE) + E(vib) + E(rot) + E(trans)
    E(el)   - is the total energy from the electronic structure calculation
              = E(kin-el) + E(nuc-el) + E(el-el) + E(nuc-nuc)
    E(ZPE)  - the the zero temperature vibrational energy from the frequency calculation
    E(vib)  - the the finite temperature correction to E(ZPE) due to population
              of excited vibrational states
    E(rot)  - is the rotational thermal energy
    E(trans)- is the translational thermal energy

Summary of contributions to the inner energy U:
Electronic energy                ...  -1854.40754601 Eh
Zero point energy                ...      0.10389036 Eh      65.19 kcal/mol
Thermal vibrational correction   ...      0.02050490 Eh      12.87 kcal/mol
Thermal rotational correction    ...      0.00141627 Eh       0.89 kcal/mol
Thermal translational correction ...      0.00141627 Eh       0.89 kcal/mol
-----------------------------------------------------------------------
Total thermal energy                  -1854.28031821 Eh


Summary of corrections to the electronic energy:
(perhaps to be used in another calculation)
Total thermal correction                  0.02333744 Eh      14.64 kcal/mol
Non-thermal (ZPE) correction              0.10389036 Eh      65.19 kcal/mol
-----------------------------------------------------------------------
Total correction                          0.12722780 Eh      79.84 kcal/mol


--------
ENTHALPY
--------

The enthalpy is H = U + kB*T
                kB is Boltzmann's constant
Total thermal energy              ...  -1854.28031821 Eh 
Thermal Enthalpy correction       ...      0.00094421 Eh       0.59 kcal/mol
-----------------------------------------------------------------------
Total Enthalpy                    ...  -1854.27937400 Eh


Note: Only C1 symmetry has been detected, increase convergence thresholds 
      if your molecule has a higher symmetry. Symmetry factor of 1.0 is   
      used for the rotational entropy correction. 
 

Note: Rotational entropy computed according to Herzberg 
Infrared and Raman Spectra, Chapter V,1, Van Nostrand Reinhold, 1945 
Point Group:  C1, Symmetry Number:   1  
Rotational constants in cm-1:     0.020422     0.004047     0.003969 

Vibrational entropy computed according to the QRRHO of S. Grimme
Chem.Eur.J. 2012 18 9955 using a reference frequency of 100.0 cm-1


-------
ENTROPY
-------

The entropy contributions are T*S = T*(S(el)+S(vib)+S(rot)+S(trans))
     S(el)   - electronic entropy
     S(vib)  - vibrational entropy
     S(rot)  - rotational entropy
     S(trans)- translational entropy
The entropies will be listed as multiplied by the temperature to get
units of energy

Electronic entropy                ...      0.00065446 Eh      0.41 kcal/mol
Vibrational entropy               ...      0.03744130 Eh     23.49 kcal/mol
Rotational entropy                ...      0.01655921 Eh     10.39 kcal/mol
Translational entropy             ...      0.02081703 Eh     13.06 kcal/mol
-----------------------------------------------------------------------
Final entropy term                ...      0.07547200 Eh     47.36 kcal/mol

In case the symmetry of your molecule has not been determined correctly
or in case you have a reason to use a different symmetry number we print 
out the resulting rotational entropy values for sn=1,12:

 non-linear molecules -----------------------------------
|  sn= 1 | S(rot)=       0.01655921 Eh     10.39 kcal/mol|
|  sn= 2 | S(rot)=       0.01590475 Eh      9.98 kcal/mol|
|  sn= 3 | S(rot)=       0.01552192 Eh      9.74 kcal/mol|
|  sn= 4 | S(rot)=       0.01525030 Eh      9.57 kcal/mol|
|  sn= 5 | S(rot)=       0.01503961 Eh      9.44 kcal/mol|
|  sn= 6 | S(rot)=       0.01486746 Eh      9.33 kcal/mol|
|  sn= 7 | S(rot)=       0.01472192 Eh      9.24 kcal/mol|
|  sn= 8 | S(rot)=       0.01459584 Eh      9.16 kcal/mol|
|  sn= 9 | S(rot)=       0.01448463 Eh      9.09 kcal/mol|
|  sn=10 | S(rot)=       0.01438515 Eh      9.03 kcal/mol|
|  sn=11 | S(rot)=       0.01429516 Eh      8.97 kcal/mol|
|  sn=12 | S(rot)=       0.01421301 Eh      8.92 kcal/mol|
 linear molecules ---------------------------------------
|  Dinfh | S(rot)=       0.01054649 Eh      6.62 kcal/mol|
|  Cinfv | S(rot)=       0.01120095 Eh      7.03 kcal/mol|
 --------------------------------------------------------


-------------------
GIBBS FREE ENERGY
-------------------

The Gibbs free energy is G = H - T*S

Total enthalpy                    ...  -1854.27937400 Eh 
Total entropy correction          ...     -0.07547200 Eh    -47.36 kcal/mol
-----------------------------------------------------------------------
Final Gibbs free energy         ...  -1854.35484600 Eh

For completeness - the Gibbs free energy minus the electronic energy
G-E(el)                           ...      0.05270001 Eh     33.07 kcal/mol


Maximum memory used throughout the entire PROP-calculation: 545.2 MB

--------------------------------
SUGGESTED CITATIONS FOR THIS RUN
--------------------------------

Below you find a list of papers that are relevant to this ORCA run
We neither can nor want to force you to cite these papers, but we appreciate if you do
You receive ORCA, which is the product of decades of hard work by many enthusiastic individuals, for free
The only thing we kindly ask in return is that you cite our papers,
We deeply appreciate it, if you show your appreciation for ORCA by not just citing the generic ORCA reference.

Please note that relegating all ORCA citations to the supporting information does *not* help us.
SI sections are not indexed - citations you put there will not count into any citation statistics
But we need these citations in order to attract the funding resources that allow us to do what we are doing

Therefore, if you are a happy ORCA user, please consider citing a few of the papers listed below in the main body of your paper

In addition to the list printed below, the program has created the file rf_mecn_freq_TP_C3_P_B.bibtex that contains the list in bibtex format
You can import this file easily into all common literature databanks and citation aid programs


List of essential papers. We consider these as the minimum necessary citations

  1. Neese,F.
     Software update: the ORCA program system, version 5.0
     WIRES Comput. Molec. Sci., 2022 12(1)e1606
     doi.org/10.1002/wcms.1606

List of papers to cite with high priority. The work reported in these papers was absolutely
necessary for this run to complete.
Our perspective: the developers of density functionals and basis sets usually get cited in chemistry papers
Good! But without the algorithms to do something with them, the functionals or basis sets would not do anything.
Hence, in our opinion, the algorithm design and method developments papers are equally worthy of getting cited

  1. Neese,F.
     An improvement of the resolution of the identity approximation for the formation of the Coulomb matrix
     J. Comp. Chem., 2003 24(14)1740-1747
     doi.org/10.1002/jcc.10318
  2. Neese,F.; Wennmohs,F.; Hansen,A.; Becker,U.
     Efficient, approximate and parallel Hartree-Fock and hybrid DFT calculations. A 'chain-of-spheres' algorithm for the Hartree-Fock exchange
     Chem. Phys., 2009 356(1-3)98-109
     doi.org/10.1016/j.chemphys.2008.10.036
  3. Bykov,D.; Petrenko,T.; Izsak,R.; Kossmann,S.; Becker,U.; Valeev,E.; Neese,F.
     Efficient implementation of the analytic second derivatives of Hartree-Fock and hybrid DFT energies: a detailed analysis of different approximations
     Molec. Phys., 2015 113 1961-1977
     doi.org/10.1080/00268976.2015.1025114
  4. Garcia-Rates,M.; Neese,F.
     Efficient implementation of the analytical second derivatives of hartree-fock and hybrid DFT energies within the framework of the conductor-like polarizable continuum model
     J. Comput. Chem., 2019 40 1816-1828
     doi.org/10.1002/jcc.25833
  5. Garcia-Rates,M.; Neese,F.
     Effect of the Solute Cavity on the Solvation Energy and its Derivatives within the Framework of the Gaussian Charge Scheme
     J. Comput. Chem., 2020 41 922-939
     doi.org/10.1002/jcc.26139
  6. Helmich-Paris,B.; de Souza,B.; Neese,F.; Izsák,R.
     An improved chain of spheres for exchange algorithm
     J. Chem. Phys., 2021 155 104109
     doi.org/doi: 10.1063/5.0058766.
  7. Neese,F.
     The SHARK Integral Generation and Digestion System
     J. Comp. Chem., 2022  1-16
     doi.org/10.1002/jcc.26942
  8. Grimme,S.; Antony,J.; Ehrlich,S.; Krieg,H.
     A consistent and accurate ab initio parametrization of density functional dispersion correction (DFT-D) for the 94 elements H-Pu
     J. Chem. Phys., 2010 132 154104
     doi.org/10.1063/1.3382344
  9. Grimme,S.; Ehrlich,S.; Goerigk,L.
     Effect of the damping function in dispersion corrected density functional theory
     J. Comput. Chem., 2011 32(7)1456-1465
     doi.org/10.1002/jcc.21759

List of suggested additional citations. These are papers that are important in the 'surrounding' of 
of this run, or papers that preceded the highly important papers. If you like your results we are grateful for a citation.

  1. Izsak,R.; Neese,F.
     An overlap fitted chain of spheres exchange method
     J. Chem. Phys., 2011 135 144105
     doi.org/10.1063/1.3646921
  2. Izsak,R.; Hansen,A.; Neese,F.
     The resolution of identity and chain of spheres approximations for the LPNO-CCSD singles Fock term
     Molec. Phys., 2012 110 2413-2417
     doi.org/10.1080/00268976.2012.687466
  3. Neese,F.
     The ORCA program system
     WIRES Comput. Molec. Sci., 2012 2(1)73-78
     doi.org/10.1002/wcms.81
  4. Izsak,R.; Neese,F.; Klopper,W.
     Robust fitting techniques in the chain of spheres approximation to the Fock exchange: The role of the complementary space
     J. Chem. Phys., 2013 139 
     doi.org/10.1063/1.4819264
  5. Neese,F.
     Software update: the ORCA program system, version 4.0
     WIRES Comput. Molec. Sci., 2018 8(1)1-6
     doi.org/10.1002/wcms.1327
  6. Neese,F.; Wennmohs,F.; Becker,U.; Riplinger,C.
     The ORCA quantum chemistry program package
     J. Chem. Phys., 2020 152 Art. No. L224108
     doi.org/10.1063/5.0004608

List of optional additional citations

  1. Neese,F.
     Approximate second-order SCF convergence for spin unrestricted wavefunctions
     Chem. Phys. Lett., 2000 325(1-3)93-98
     doi.org/10.1016/s0009-2614(00)00662-x

Timings for individual modules:

Sum of individual times          ...     1436.682 sec (=  23.945 min)
Startup calculation              ...        4.423 sec (=   0.074 min)   0.3 %
SCF iterations                   ...       98.917 sec (=   1.649 min)   6.9 %
Property integrals               ...      447.641 sec (=   7.461 min)  31.2 %
SCF Response                     ...      615.762 sec (=  10.263 min)  42.9 %
Property calculations            ...      269.939 sec (=   4.499 min)  18.8 %
                             ****ORCA TERMINATED NORMALLY****
TOTAL RUN TIME: 0 days 0 hours 23 minutes 57 seconds 551 msec
