
                                 *****************
                                 * O   R   C   A *
                                 *****************

                                            #,                                       
                                            ###                                      
                                            ####                                     
                                            #####                                    
                                            ######                                   
                                           ########,                                 
                                     ,,################,,,,,                         
                               ,,#################################,,                 
                          ,,##########################################,,             
                       ,#########################################, ''#####,          
                    ,#############################################,,   '####,        
                  ,##################################################,,,,####,       
                ,###########''''           ''''###############################       
              ,#####''   ,,,,##########,,,,          '''####'''          '####       
            ,##' ,,,,###########################,,,                        '##       
           ' ,,###''''                  '''############,,,                           
         ,,##''                                '''############,,,,        ,,,,,,###''
      ,#''                                            '''#######################'''  
     '                                                          ''''####''''         
             ,#######,   #######,   ,#######,      ##                                
            ,#'     '#,  ##    ##  ,#'     '#,    #''#        ,####,   ,####,        
            ##       ##  ##   ,#'  ##            #'  '#       #'       #'  '#        
            ##       ##  #######   ##           ,######,      #####,   #    #        
            '#,     ,#'  ##    ##  '#,     ,#' ,#      #,     #,   #   #,  ,#        
             '#######'   ##     ##  '#######'  #'      '#     '####' # '####'        



                #########################################################
                #                        -***-                          #
                #          Department of theory and spectroscopy        #
                #                                                       #
                #                      Frank Neese                      #
                #                                                       #
                #     Directorship, Architecture, Infrastructure        #
                #                    SHARK, DRIVERS                     #
                #        Core code/Algorithms in most modules           #
                #                                                       #
                #        Max Planck Institute fuer Kohlenforschung      #
                #                Kaiser Wilhelm Platz 1                 #
                #                 D-45470 Muelheim/Ruhr                 #
                #                      Germany                          #
                #                                                       #
                #                  All rights reserved                  #
                #                        -***-                          #
                #########################################################


                         Program Version 6.0.1  -  RELEASE   -


 With contributions from (in alphabetic order):
[Max-Planck-Institut fuer Kohlenforschung]                               
  Daniel Aravena         : Magnetic Suceptibility                        
  Michael Atanasov       : Ab Initio Ligand Field Theory (pilot matlab implementation)
  Alexander A. Auer      : GIAO ZORA, VPT2 properties, NMR spectrum      
  Ute Becker             : All parallelization in ORCA, NUMFREQ, NUMCALC 
  Giovanni Bistoni       : ED, misc. LED, open-shell LED, HFLD           
  Martin Brehm           : Molecular dynamics                            
  Dmytro Bykov           : pre 5.0 version of the SCF Hessian            
  Marcos Casanova-Páez   : Triplet and SCS-CIS(D). UHF-(DLPNO)-IP/EA/STEOM-CCSD. UHF-CVS-IP/STEOM-CCSD   
  Vijay G. Chilkuri      : MRCI spin determinant printing, contributions to CSF-ICE 
  Pauline Colinet        : FMM embedding                                 
  Dipayan Datta          : RHF DLPNO-CCSD density                        
  Achintya Kumar Dutta   : EOM-CC, STEOM-CC                              
  Nicolas Foglia         : Exact transition moments, OPA infrastructure, MCD improvements    
  Dmitry Ganyushin       : Spin-Orbit,Spin-Spin,Magnetic field MRCI      
  Miquel Garcia-Rates    : C-PCM and meta-GGA Hessian, CCSD/C-PCM, Gaussian charge scheme 
  Tiago L. C. Gouveia    : GS-ROHF, GS-ROCIS                             
  Yang Guo               : DLPNO-NEVPT2, F12-NEVPT2, CIM, IAO-localization        
  Andreas Hansen         : Spin unrestricted coupled pair/coupled cluster methods 
  Ingolf Harden          : AUTO-CI MPn and infrastructure                
  Benjamin Helmich-Paris : MC-RPA, TRAH-(SCF,CASSCF), AVAS, COSX integrals, SCF dyn. polar. 
  Lee Huntington         : MR-EOM, pCC                                   
  Robert Izsak           : Overlap fitted RIJCOSX, COSX-SCS-MP3, EOM     
  Riya Kayal             : Wick's Theorem for AUTO-CI, AUTO-CI UHF-CCSDT 
  Emily Kempfer          : AUTO-CI, RHF CISDT and CCSDT                  
  Christian Kollmar      : KDIIS, OOCD, Brueckner-CCSD(T), CCSD density, CASPT2, CASPT2-K, improved NEVPT2 
  Axel Koslowski         : Symmetry handling                             
  Simone Kossmann        : meta-GGA functionals, TD-DFT gradient, OOMP2, (MP2 Hessian; deprecated post 5.0) 
  Lucas Lang             : DCDCAS                                        
  Marvin Lechner         : AUTO-CI (C++ implementation), FIC-MRCC        
  Spencer Leger          : CASSCF response                               
  Dagmar Lenk            : GEPOL surface, SMD, ORCA-2-JSON               
  Dimitrios Liakos       : Extrapolation schemes; Compound Job, initial MDCI parallelization 
  Dimitrios Manganas     : Further ROCIS development; embedding schemes. LFT, Crystal Embedding 
  Dimitrios Pantazis     : SARC Basis sets                               
  Anastasios Papadopoulos: AUTO-CI, single reference methods and gradients 
  Taras Petrenko         : pre 6.0 DFT Hessian and TD-DFT gradient, (ASA, deprecated), ECA, 1-Electron XAS/XES, NRVS 
  Peter Pinski           : DLPNO-MP2, DLPNO-MP2 Gradient                 
  Christoph Reimann      : Effective Core Potentials                     
  Marius Retegan         : Local ZFS, SOC                                
  Christoph Riplinger    : Optimizer, TS searches, QM/MM, DLPNO-CCSD(T), (RO)-DLPNO pert. Triples 
  Michael Roemelt        : Original ROCIS implementation                 
  Masaaki Saitow         : Open-shell DLPNO-CCSD energy and density      
  Barbara Sandhoefer     : DKH picture change effects                    
  Kantharuban Sivalingam : CASSCF convergence/infrastructure, NEVPT2 and variants, FIC-MRCI 
  Bernardo de Souza      : ESD, SOC TD-DFT                               
  Georgi L. Stoychev     : AutoAux, RI-MP2 NMR, DLPNO-MP2 response, X2C  
  Van Anh Tran           : RI-MP2 g-tensors                              
  Willem Van den Heuvel  : Paramagnetic NMR                              
  Zikuan Wang            : NOTCH, Electric field optimization            
  Frank Wennmohs         : Technical directorship and infrastructure     
  Hang Xu                : AUTO-CI-Response properties                   
                                                                         
[FACCTs GmbH]                                                            
  Markus Bursch, Miquel Garcia-Rates, Christoph Riplinger, Bernardo de Souza, Georgi L. Stoychev 
                                                                 
  APM, Basis sets (HGBS, AHGBS, def-TZVP (Ac-Lr), def2-XVPD (La-Lu)), CI-OPT, improved COSX, DLPNO-Multilevel,           
  DOCKER, DRACO, updates on ESD, GOAT, IRC, LR-CPCM, MBIS, meta-GGA TD-DFT gradient, ML-optimized integration grids, 
  MM, NACMEs, nearIR, NEB, NEB-TS, NL-DFT gradient (VV10), 2- and 3-layer-ONIOM, interface openCOSMO-RS, QMMM,   
  Crystal-QMMM, SF, symmetry and pop. for TD-DFT, r2SCAN hybrids, SOLVATOR                                   
                                                                         
[Other institutions]                                                     
  V. Asgeirsson          : NEB                                           
  Christoph Bannwarth    : sTDA-DFT, sTD-DFT, PBEh-3c, B97-3c, D3        
  Sebastian Ehlert       : rSCAN, r2SCAN, r2SCAN-3c, D4, dhf basis sets  
  Marvin Friede          : D4 for Fr, Ra, Ac-Lr                          
  Lars Goerigk           : TD-DFT with DH, B97 family of functionals     
  Stefan Grimme          : VdW corrections, initial TS optimization, DFT functionals, gCP, sTDA/sTD-DF 
  Waldemar Hujo          : DFT-NL                                        
  H. Jonsson             : NEB                                           
  Holger Kruse           : gCP                                           
  Marcel Mueller         : wB97X-3c, vDZP basis set                      
  Hagen Neugebauer       : wr2SCAN                                       
  Tobias Risthaus        : range-separated hybrid DFT                    
  Lukas Wittmann         : regularized MP2, r2SCAN double-hybrids, wr2SCAN        
                                                                         
We gratefully acknowledge several colleagues who have allowed us to      
interface, adapt or use parts of their codes:                            
  Ed Valeev, F. Pavosevic, A. Kumar             : LibInt (2-el integral package), F12 methods 
  Garnet Chan, S. Sharma, J. Yang, R. Olivares  : DMRG                   
  Ulf Ekstrom                                   : XCFun DFT Library      
  Mihaly Kallay                                 : mrcc  (arbitrary order and MRCC methods)
  Frank Weinhold                                : gennbo (NPA and NBO analysis)           
  Simon Mueller                                 : openCOSMO-RS                            
  Christopher J. Cramer and Donald G. Truhlar   : smd solvation model                     
  S Lehtola, MJT Oliveira, MAL Marques          : LibXC Library                           
  Liviu Ungur et al                             : ANISO software                          


 Your calculation uses the libint2 library for the computation of 2-el integrals
 For citations please refer to: http://libint.valeyev.net

 Your ORCA version has been built with support for libXC version: 6.2.2
 For citations please refer to: https://libxc.gitlab.io

 This ORCA versions uses:
   CBLAS   interface :  Fast vector & matrix operations
   LAPACKE interface :  Fast linear algebra routines
   SCALAPACK package :  Parallel linear algebra routines
   Shared memory     :  Shared parallel matrices
   BLAS/LAPACK       :  OpenBLAS 0.3.27  USE64BITINT DYNAMIC_ARCH NO_AFFINITY SkylakeX SINGLE_THREADED
        Core in use  :  SkylakeX
   Copyright (c) 2011-2014, The OpenBLAS Project


NOTE: MaxCore=8000 MB was set to SCF,MP2,MDCI,CIPSI,MRCI and CIS
      => If you want to overwrite this, your respective input block should be placed after the MaxCore statement
Your calculation utilizes the atom-pairwise dispersion correction
with the Becke-Johnson damping scheme (D3BJ)


Your calculation utilizes the SMD solvation module
Please cite in your paper:
A.V. Marenich, C.J. Cramer, D.G. Truhlar J. Phys. Chem. B, 113, (2009), 6378 

Warning: RI is on but no J-basis has been assigned. Assigning Def2/J (nothing to worry about!)
================================================================================

----- Orbital basis set information -----
Your calculation utilizes the basis: def2-TZVP
   F. Weigend and R. Ahlrichs, Phys. Chem. Chem. Phys. 7, 3297 (2005).

----- AuxJ basis set information -----
Your calculation utilizes the auxiliary basis: def2/J
   F. Weigend, Phys. Chem. Chem. Phys. 8, 1057 (2006).

================================================================================
                                        WARNINGS
                       Please study these warnings very carefully!
================================================================================


WARNING: your system is open-shell and RHF/RKS was chosen
  ===> : WILL SWITCH to UHF/UKS


WARNING: Geometry Optimization
  ===> : Switching off AutoStart
         For restart on a previous wavefunction, please use MOREAD

================================================================================
                                       INPUT FILE
================================================================================
NAME = rf_mecn_opt_B3L_C7_P_B.inp
|  1> !B3LYP def2-TZVP opt d3 TightSCF SlowConv defgrid2
|  2>  
|  3> %pal
|  4> nprocs 20
|  5> end
|  6>  
|  7> %scf
|  8> MaxIter 1500
|  9> end
| 10>  
| 11> %maxcore 8000
| 12>  
| 13> !CPCM
| 14> %cpcm smd true
| 15> SMDsolvent "ACETONITRILE"
| 16> end
| 17>  
| 18> * xyz 0 2
| 19> 6        4.790427000     -0.033865800     -0.529943200
| 20> 8        5.449345000     -1.206924000     -0.894594600
| 21> 8        4.978223000      1.323071000     -0.737377200
| 22> 6        3.506687600     -0.338741600      0.376153800
| 23> 6        2.222300000      0.400524800     -0.110681600
| 24> 6        0.900506800     -0.386389800      0.175703000
| 25> 6       -0.395261200      0.487294000      0.065549000
| 26> 6       -1.705693600     -0.364773800     -0.068373600
| 27> 6       -3.005136200      0.445344800      0.258164000
| 28> 6       -4.319880200     -0.214526000     -0.270540800
| 29> 9        3.211587400     -1.692050400      0.412735200
| 30> 9        3.741061800      0.055285800      1.689948800
| 31> 9        2.125696800      1.616867800      0.483236600
| 32> 9        2.314152400      0.589704000     -1.455769200
| 33> 9        0.794028800     -1.413561400     -0.700839000
| 34> 9        0.958350600     -0.884509000      1.435093400
| 35> 9       -0.498373400      1.260265600      1.173340200
| 36> 9       -0.299075000      1.289512600     -1.020910800
| 37> 9       -1.641790400     -1.418189000      0.779523800
| 38> 9       -1.792381400     -0.831391600     -1.336863600
| 39> 9       -3.119771000      0.573779800      1.598579800
| 40> 9       -4.383115600     -1.504377600      0.089127600
| 41> 9       -5.365669800      0.430528600      0.260394200
| 42> 9       -4.396020400     -0.128550600     -1.602941800
| 43> 1        5.903122371     -2.014774547     -1.145719253
| 44> *
| 45> 
| 46>                          ****END OF INPUT****
================================================================================

                       *****************************
                       * Geometry Optimization Run *
                       *****************************

Geometry optimization settings:
Update method            Update   .... BFGS
Choice of coordinates    CoordSys .... (2022) Redundant Internals
Initial Hessian          InHess   .... Almloef's Model
Max. no of cycles        MaxIter  .... 75

Convergence Tolerances:
Energy Change            TolE     ....  5.0000e-06 Eh
Max. Gradient            TolMAXG  ....  3.0000e-04 Eh/bohr
RMS Gradient             TolRMSG  ....  1.0000e-04 Eh/bohr
Max. Displacement        TolMAXD  ....  4.0000e-03 bohr
RMS Displacement         TolRMSD  ....  2.0000e-03 bohr
Strict Convergence                .... False

------------------------------------------------------------------------------
                        ORCA OPTIMIZATION COORDINATE SETUP
------------------------------------------------------------------------------

The optimization will be done in redundant internal coordinates (2022)
Making redundant internal coordinates   ...  (2022 redundants) done
Evaluating the initial hessian          ...  (Almloef) done
Evaluating the coordinates              ...  done
Calculating the B-matrix                .... done
Calculating the G-matrix                .... done
Diagonalizing the G-matrix              .... done
Small eigenvalue found = 4.821e-03
Small eigenvalue found = 1.275e-02
The first mode is                       ....   39
The number of degrees of freedom        ....   69

    -----------------------------------------------------------------
                    Redundant Internal Coordinates


    -----------------------------------------------------------------
         Definition                    Initial Value    Approx d2E/dq
    -----------------------------------------------------------------
      1. B(O   1,C   0)                  1.3940         0.551454   
      2. B(O   2,C   0)                  1.3855         0.568952   
      3. B(C   3,C   0)                  1.6006         0.288221   
      4. B(C   4,C   3)                  1.5599         0.334759   
      5. B(C   5,C   4)                  1.5647         0.328824   
      6. B(C   6,C   5)                  1.5667         0.326486   
      7. B(C   7,C   6)                  1.5688         0.323927   
      8. B(C   8,C   7)                  1.5657         0.327637   
      9. B(C   9,C   8)                  1.5632         0.330714   
     10. B(F  10,C   3)                  1.3856         0.528443   
     11. B(F  11,C   3)                  1.3915         0.517117   
     12. B(F  12,C   4)                  1.3570         0.586881   
     13. B(F  13,C   4)                  1.3614         0.577499   
     14. B(F  14,C   5)                  1.3545         0.592326   
     15. B(F  15,C   5)                  1.3556         0.590092   
     16. B(F  16,C   6)                  1.3547         0.591865   
     17. B(F  17,C   6)                  1.3540         0.593567   
     18. B(F  18,C   7)                  1.3538         0.593973   
     19. B(F  19,C   7)                  1.3544         0.592672   
     20. B(F  20,C   8)                  1.3514         0.599114   
     21. B(F  21,C   9)                  1.3406         0.623533   
     22. B(F  22,C   9)                  1.3385         0.628179   
     23. B(F  23,C   9)                  1.3373         0.630929   
     24. B(H  24,O   1)                  0.9600         0.519956   
     25. A(O   1,C   0,O   2)          136.1318         0.413163   
     26. A(O   2,C   0,C   3)          112.3347         0.371210   
     27. A(O   1,C   0,C   3)          111.5249         0.369222   
     28. L(C   0,O   1,H  24,C   3, 1) 180.0000         0.362759   
     29. L(C   0,O   1,H  24,C   3, 2) 180.0000         0.362759   
     30. A(C   4,C   3,F  11)          107.4072         0.373095   
     31. A(C   0,C   3,F  11)          110.2099         0.363632   
     32. A(F  10,C   3,F  11)          106.7094         0.399684   
     33. A(C   4,C   3,F  10)          107.2033         0.374492   
     34. A(C   0,C   3,F  10)          111.8265         0.364982   
     35. A(C   0,C   3,C   4)          113.1687         0.341363   
     36. A(C   3,C   4,F  12)          110.2926         0.381351   
     37. A(F  12,C   4,F  13)          108.2194         0.415201   
     38. A(C   3,C   4,C   5)          113.5839         0.349005   
     39. A(C   5,C   4,F  13)          107.9208         0.379109   
     40. A(C   3,C   4,F  13)          108.5818         0.380286   
     41. A(C   5,C   4,F  12)          108.0911         0.380169   
     42. A(F  14,C   5,F  15)          109.0206         0.417483   
     43. A(C   4,C   5,C   6)          113.9128         0.347536   
     44. A(C   6,C   5,F  15)          107.7906         0.380059   
     45. A(C   4,C   5,F  15)          108.5900         0.380529   
     46. A(C   6,C   5,F  14)          108.2026         0.380308   
     47. A(C   4,C   5,F  14)          109.2282         0.380779   
     48. A(C   5,C   6,C   7)          113.2023         0.346660   
     49. A(F  16,C   6,F  17)          108.8752         0.417862   
     50. A(C   7,C   6,F  17)          108.2186         0.379927   
     51. A(C   5,C   6,F  17)          109.1523         0.380446   
     52. A(C   7,C   6,F  16)          108.4284         0.379738   
     53. A(C   5,C   6,F  16)          108.8835         0.380256   
     54. A(C   8,C   7,F  18)          108.1296         0.380723   
     55. A(C   6,C   7,F  18)          109.2524         0.379972   
     56. A(F  18,C   7,F  19)          108.7561         0.418014   
     57. A(C   6,C   7,C   8)          113.2298         0.346865   
     58. A(C   8,C   7,F  19)          108.6915         0.380579   
     59. A(C   6,C   7,F  19)          108.6955         0.379828   
     60. A(C   9,C   8,F  20)          107.7127         0.381912   
     61. A(C   7,C   8,C   9)          114.1471         0.348078   
     62. A(C   7,C   8,F  20)          109.0521         0.381293   
     63. A(F  22,C   9,F  23)          108.6464         0.426961   
     64. A(F  21,C   9,F  23)          109.0552         0.426394   
     65. A(C   8,C   9,F  23)          110.9604         0.385362   
     66. A(F  21,C   9,F  22)          108.6877         0.426061   
     67. A(C   8,C   9,F  22)          108.6349         0.385069   
     68. A(C   8,C   9,F  21)          110.7995         0.384572   
     69. D(F  11,C   3,C   0,O   1)    108.6317         0.006601   
     70. D(F  10,C   3,C   0,O   2)    171.0025         0.006601   
     71. D(F  11,C   3,C   0,O   2)    -70.4768         0.006601   
     72. D(C   4,C   3,C   0,O   1)   -131.0839         0.006601   
     73. D(C   4,C   3,C   0,O   2)     49.8076         0.006601   
     74. D(F  10,C   3,C   0,O   1)     -9.8890         0.006601   
     75. D(C   5,C   4,C   3,C   0)    148.6429         0.009100   
     76. D(F  12,C   4,C   3,C   0)    -89.8453         0.009100   
     77. D(F  12,C   4,C   3,F  11)     32.0233         0.009100   
     78. D(F  12,C   4,C   3,F  10)    146.3851         0.009100   
     79. D(C   5,C   4,C   3,F  10)     24.8733         0.009100   
     80. D(C   5,C   4,C   3,F  11)    -89.4885         0.009100   
     81. D(C   6,C   5,C   4,F  12)     41.2001         0.008811   
     82. D(C   6,C   5,C   4,F  13)    -75.6292         0.008811   
     83. D(C   6,C   5,C   4,C   3)    163.9326         0.008811   
     84. D(F  14,C   5,C   4,F  13)     45.4721         0.008811   
     85. D(F  14,C   5,C   4,F  12)    162.3014         0.008811   
     86. D(F  14,C   5,C   4,C   3)    -74.9661         0.008811   
     87. D(F  16,C   6,C   5,F  15)     44.2190         0.008700   
     88. D(F  16,C   6,C   5,F  14)    161.9826         0.008700   
     89. D(F  16,C   6,C   5,C   4)    -76.3465         0.008700   
     90. D(C   7,C   6,C   5,F  15)    -76.4529         0.008700   
     91. D(C   7,C   6,C   5,F  14)     41.3107         0.008700   
     92. D(C   7,C   6,C   5,C   4)    162.9815         0.008700   
     93. D(F  18,C   7,C   6,F  17)    162.9167         0.008578   
     94. D(F  18,C   7,C   6,F  16)    -79.1358         0.008578   
     95. D(F  18,C   7,C   6,C   5)     41.7939         0.008578   
     96. D(C   8,C   7,C   6,F  17)    -76.5134         0.008578   
     97. D(C   8,C   7,C   6,F  16)     41.4341         0.008578   
     98. D(C   8,C   7,C   6,C   5)    162.3638         0.008578   
     99. D(C   9,C   8,C   7,C   6)    162.4166         0.008223   
    100. D(F  20,C   8,C   7,F  18)     44.1231         0.008223   
    101. D(F  20,C   8,C   7,C   6)    -77.0818         0.008223   
    102. D(C   9,C   8,C   7,F  19)     41.5227         0.008223   
    103. D(C   9,C   8,C   7,F  18)    -76.3785         0.008223   
    104. D(F  23,C   9,C   8,C   7)    -71.2711         0.008360   
    105. D(F  22,C   9,C   8,F  20)     48.1091         0.008360   
    106. D(F  22,C   9,C   8,C   7)    169.3552         0.008360   
    107. D(F  21,C   9,C   8,F  20)    -71.2185         0.008360   
    108. D(F  21,C   9,C   8,C   7)     50.0276         0.008360   
    -----------------------------------------------------------------

Number of atoms                         .... 25
Number of degrees of freedom            .... 108


         *************************************************************
         *                GEOMETRY OPTIMIZATION CYCLE   1            *
         *************************************************************
---------------------------------
CARTESIAN COORDINATES (ANGSTROEM)
---------------------------------
  C      4.790427   -0.033866   -0.529943
  O      5.449345   -1.206924   -0.894595
  O      4.978223    1.323071   -0.737377
  C      3.506688   -0.338742    0.376154
  C      2.222300    0.400525   -0.110682
  C      0.900507   -0.386390    0.175703
  C     -0.395261    0.487294    0.065549
  C     -1.705694   -0.364774   -0.068374
  C     -3.005136    0.445345    0.258164
  C     -4.319880   -0.214526   -0.270541
  F      3.211587   -1.692050    0.412735
  F      3.741062    0.055286    1.689949
  F      2.125697    1.616868    0.483237
  F      2.314152    0.589704   -1.455769
  F      0.794029   -1.413561   -0.700839
  F      0.958351   -0.884509    1.435093
  F     -0.498373    1.260266    1.173340
  F     -0.299075    1.289513   -1.020911
  F     -1.641790   -1.418189    0.779524
  F     -1.792381   -0.831392   -1.336864
  F     -3.119771    0.573780    1.598580
  F     -4.383116   -1.504378    0.089128
  F     -5.365670    0.430529    0.260394
  F     -4.396020   -0.128551   -1.602942
  H      5.903122   -2.014775   -1.145719

----------------------------
CARTESIAN COORDINATES (A.U.)
----------------------------
  NO LB      ZA    FRAG     MASS         X           Y           Z
   0 C     6.0000    0    12.011    9.052595   -0.063997   -1.001448
   1 O     8.0000    0    15.999   10.297770   -2.280756   -1.690539
   2 O     8.0000    0    15.999    9.407478    2.500242   -1.393441
   3 C     6.0000    0    12.011    6.626679   -0.640129    0.710828
   4 C     6.0000    0    12.011    4.199538    0.756882   -0.209158
   5 C     6.0000    0    12.011    1.701711   -0.730171    0.332031
   6 C     6.0000    0    12.011   -0.746935    0.920852    0.123870
   7 C     6.0000    0    12.011   -3.223294   -0.689323   -0.129207
   8 C     6.0000    0    12.011   -5.678884    0.841580    0.487859
   9 C     6.0000    0    12.011   -8.163391   -0.405395   -0.511248
  10 F     9.0000    0    18.998    6.069021   -3.197512    0.779956
  11 F     9.0000    0    18.998    7.069582    0.104475    3.193540
  12 F     9.0000    0    18.998    4.016985    3.055437    0.913185
  13 F     9.0000    0    18.998    4.373114    1.114379   -2.751005
  14 F     9.0000    0    18.998    1.500497   -2.671244   -1.324394
  15 F     9.0000    0    18.998    1.811020   -1.671480    2.711934
  16 F     9.0000    0    18.998   -0.941789    2.381557    2.217292
  17 F     9.0000    0    18.998   -0.565170    2.436826   -1.929242
  18 F     9.0000    0    18.998   -3.102534   -2.679989    1.473086
  19 F     9.0000    0    18.998   -3.387110   -1.571102   -2.526306
  20 F     9.0000    0    18.998   -5.895513    1.084287    3.020878
  21 F     9.0000    0    18.998   -8.282888   -2.842862    0.168427
  22 F     9.0000    0    18.998  -10.139646    0.813581    0.492074
  23 F     9.0000    0    18.998   -8.307275   -0.242925   -3.029121
  24 H     1.0000    0     1.008   11.155285   -3.807372   -2.165096

--------------------------------
INTERNAL COORDINATES (ANGSTROEM)
--------------------------------
 C      0   0   0     0.000000000000     0.00000000     0.00000000
 O      1   0   0     1.393990356793     0.00000000     0.00000000
 O      1   2   0     1.385486802956   136.13177198     0.00000000
 C      1   2   3     1.600608594862   111.52489317   181.18992567
 C      4   1   2     1.559863783763   113.16872737   228.91614990
 C      5   4   1     1.564732561934   113.58394786   148.64287440
 C      6   5   4     1.566675459667   113.91280616   163.93256239
 C      7   6   5     1.568817348692   113.20226571   162.98152714
 C      8   7   6     1.565717094808   113.22984595   162.36375422
 C      9   8   7     1.563173062643   114.14707705   162.41661495
 F      4   1   2     1.385592665621   111.82651119   350.11101305
 F      4   1   2     1.391490625050   110.20991618   108.63170802
 F      5   4   1     1.357041377479   110.29260564   270.15468021
 F      5   4   1     1.361428031433   108.58179722    28.57841973
 F      6   5   4     1.354527570075   109.22822656   285.03385927
 F      6   5   4     1.355556277776   108.59004089    43.81583148
 F      7   6   5     1.354739297058   108.88346185   283.65347401
 F      7   6   5     1.353957667090   109.15230848    42.38718856
 F      8   7   6     1.353771473879   109.25240264    41.79387651
 F      8   7   6     1.354368423305   108.69554158   283.25540020
 F      9   8   7     1.351425618925   109.05210362   282.91820052
 F     10   9   8     1.340551089588   110.79953142    50.02756898
 F     10   9   8     1.338530275591   108.63493714   169.35523750
 F     10   9   8     1.337341214598   110.96044107   288.72891896
 H      2   1   3     0.960000000033   180.00000000     0.00000000

---------------------------
INTERNAL COORDINATES (A.U.)
---------------------------
 C      0   0   0     0.000000000000     0.00000000     0.00000000
 O      1   0   0     2.634260007667     0.00000000     0.00000000
 O      1   2   0     2.618190619750   136.13177198     0.00000000
 C      1   2   3     3.024711891890   111.52489317   181.18992567
 C      4   1   2     2.947715357535   113.16872737   228.91614990
 C      5   4   1     2.956916014884   113.58394786   148.64287440
 C      6   5   4     2.960587559506   113.91280616   163.93256239
 C      7   6   5     2.964635143173   113.20226571   162.98152714
 C      8   7   6     2.958776512386   113.22984595   162.36375422
 C      9   8   7     2.953968988318   114.14707705   162.41661495
 F      4   1   2     2.618390671194   111.82651119   350.11101305
 F      4   1   2     2.629536199263   110.20991618   108.63170802
 F      5   4   1     2.564436555835   110.29260564   270.15468021
 F      5   4   1     2.572726130452   108.58179722    28.57841973
 F      6   5   4     2.559686148288   109.22822656   285.03385927
 F      6   5   4     2.561630124115   108.59004089    43.81583148
 F      7   6   5     2.560086254300   108.88346185   283.65347401
 F      7   6   5     2.558609187723   109.15230848    42.38718856
 F      8   7   6     2.558257333546   109.25240264    41.79387651
 F      8   7   6     2.559385404477   108.69554158   283.25540020
 F      9   8   7     2.553824310132   109.05210362   282.91820052
 F     10   9   8     2.533274427850   110.79953142    50.02756898
 F     10   9   8     2.529455642830   108.63493714   169.35523750
 F     10   9   8     2.527208643196   110.96044107   288.72891896
 H      2   1   3     1.814137088628   180.00000000     0.00000000

---------------------
BASIS SET INFORMATION
---------------------
There are 4 groups of distinct atoms

 Group   1 Type C   : 11s6p2d1f contracted to 5s3p2d1f pattern {62111/411/11/1}
 Group   2 Type O   : 11s6p2d1f contracted to 5s3p2d1f pattern {62111/411/11/1}
 Group   3 Type F   : 11s6p2d1f contracted to 5s3p2d1f pattern {62111/411/11/1}
 Group   4 Type H   : 5s1p contracted to 3s1p pattern {311/1}

Atom   0C    basis set group =>   1
Atom   1O    basis set group =>   2
Atom   2O    basis set group =>   2
Atom   3C    basis set group =>   1
Atom   4C    basis set group =>   1
Atom   5C    basis set group =>   1
Atom   6C    basis set group =>   1
Atom   7C    basis set group =>   1
Atom   8C    basis set group =>   1
Atom   9C    basis set group =>   1
Atom  10F    basis set group =>   3
Atom  11F    basis set group =>   3
Atom  12F    basis set group =>   3
Atom  13F    basis set group =>   3
Atom  14F    basis set group =>   3
Atom  15F    basis set group =>   3
Atom  16F    basis set group =>   3
Atom  17F    basis set group =>   3
Atom  18F    basis set group =>   3
Atom  19F    basis set group =>   3
Atom  20F    basis set group =>   3
Atom  21F    basis set group =>   3
Atom  22F    basis set group =>   3
Atom  23F    basis set group =>   3
Atom  24H    basis set group =>   4
---------------------------------
AUXILIARY/J BASIS SET INFORMATION
---------------------------------
There are 4 groups of distinct atoms

 Group   1 Type C   : 12s5p4d2f1g contracted to 6s4p3d1f1g pattern {711111/2111/211/2/1}
 Group   2 Type O   : 12s5p4d2f1g contracted to 6s4p3d1f1g pattern {711111/2111/211/2/1}
 Group   3 Type F   : 12s5p4d2f1g contracted to 6s4p3d1f1g pattern {711111/2111/211/2/1}
 Group   4 Type H   : 5s2p1d contracted to 3s1p1d pattern {311/2/1}

Atom   0C    basis set group =>   1
Atom   1O    basis set group =>   2
Atom   2O    basis set group =>   2
Atom   3C    basis set group =>   1
Atom   4C    basis set group =>   1
Atom   5C    basis set group =>   1
Atom   6C    basis set group =>   1
Atom   7C    basis set group =>   1
Atom   8C    basis set group =>   1
Atom   9C    basis set group =>   1
Atom  10F    basis set group =>   3
Atom  11F    basis set group =>   3
Atom  12F    basis set group =>   3
Atom  13F    basis set group =>   3
Atom  14F    basis set group =>   3
Atom  15F    basis set group =>   3
Atom  16F    basis set group =>   3
Atom  17F    basis set group =>   3
Atom  18F    basis set group =>   3
Atom  19F    basis set group =>   3
Atom  20F    basis set group =>   3
Atom  21F    basis set group =>   3
Atom  22F    basis set group =>   3
Atom  23F    basis set group =>   3
Atom  24H    basis set group =>   4


           ************************************************************
           *        Program running with 20 parallel MPI-processes    *
           *              working on a common directory               *
           ************************************************************
------------------------------------------------------------------------------
                             ORCA STARTUP CALCULATIONS
                           -- RI-GTO INTEGRALS CHOSEN --
------------------------------------------------------------------------------
------------------------------------------------------------------------------
                   ___                                                        
                  /   \      - P O W E R E D   B Y -                         
                 /     \                                                     
                 |  |  |   _    _      __       _____    __    __             
                 |  |  |  | |  | |    /  \     |  _  \  |  |  /  |          
                  \  \/   | |  | |   /    \    | | | |  |  | /  /          
                 / \  \   | |__| |  /  /\  \   | |_| |  |  |/  /          
                |  |  |   |  __  | /  /__\  \  |    /   |      \           
                |  |  |   | |  | | |   __   |  |    \   |  |\   \          
                \     /   | |  | | |  |  |  |  | |\  \  |  | \   \       
                 \___/    |_|  |_| |__|  |__|  |_| \__\ |__|  \__/        
                                                                              
                      - O R C A' S   B I G   F R I E N D -                    
                                      &                                       
                       - I N T E G R A L  F E E D E R -                       
                                                                              
 v1 FN, 2020, v2 2021, v3 2022-2024                                           
------------------------------------------------------------------------------


----------------------
SHARK INTEGRAL PACKAGE
----------------------

Number of atoms                             ...     25
Number of basis functions                   ...    750
Number of shells                            ...    268
Maximum angular momentum                    ...      3
Integral batch strategy                     ... SHARK/LIBINT Hybrid
RI-J (if used) integral strategy            ... SPLIT-RIJ (Revised 2003 algorithm where possible)
Printlevel                                  ...      1
Contraction scheme used                     ... SEGMENTED contraction
Prescreening option                         ... SCHWARTZ
   Thresh                                   ... 2.500e-11
   Tcut                                     ... 2.500e-12
   Tpresel                                  ... 2.500e-12 
Coulomb Range Separation                    ... NOT USED
Exchange Range Separation                   ... NOT USED
Multipole approximations                    ... NOT USED
Finite Nucleus Model                        ... NOT USED
CABS basis                                  ... NOT available
Auxiliary Coulomb fitting basis             ... AVAILABLE
   # of basis functions in Aux-J            ...   1187
   # of shells in Aux-J                     ...    365
   Maximum angular momentum in Aux-J        ...      4
Auxiliary J/K fitting basis                 ... NOT available
Auxiliary Correlation fitting basis         ... NOT available
Auxiliary 'external' fitting basis          ... NOT available

Checking pre-screening integrals            ... done (  0.0 sec) Dimension = 268
Check shell pair data                       ... done (  0.0 sec)
Shell pair information
Shell pair cut-off parameter TPreSel        ...   2.5e-12
Total number of shell pairs                 ...     36046
Shell pairs after pre-screening             ...     22175
Total number of primitive shell pairs       ...    118872
Primitive shell pairs kept                  ...     46997
          la=0 lb=0:   4229 shell pairs
          la=1 lb=0:   6054 shell pairs
          la=1 lb=1:   2093 shell pairs
          la=2 lb=0:   3292 shell pairs
          la=2 lb=1:   2407 shell pairs
          la=2 lb=2:    678 shell pairs
          la=3 lb=0:   1497 shell pairs
          la=3 lb=1:   1157 shell pairs
          la=3 lb=2:    619 shell pairs
          la=3 lb=3:    149 shell pairs

Calculating one electron integrals          ... done (  0.0 sec)
Calculating RI/J V-Matrix + Cholesky decomp.... done (  0.1 sec)
Calculating Nuclear repulsion               ... done (  0.0 sec) ENN=   2632.116048954315 Eh

Diagonalization of the overlap matrix:
Smallest eigenvalue                        ... 6.427e-05
Time for diagonalization                   ...    0.119 sec
Threshold for overlap eigenvalues          ... 1.000e-07
Number of eigenvalues below threshold      ... 0
Time for construction of square roots      ...    0.055 sec
Total time needed                          ...    0.179 sec

-------------------
DFT GRID GENERATION
-------------------

General Integration Accuracy     IntAcc      ... 4.388
Radial Grid Type                 RadialGrid  ... OptM3 with GC (2021)
Angular Grid (max. ang.)         AngularGrid ... 4 (Lebedev-302)
Angular grid pruning method      GridPruning ... 4 (adaptive)
Weight generation scheme         WeightScheme... mBecke (2022)
Basis function cutoff            BFCut       ... 1.0000e-11
Integration weight cutoff        WCut        ... 1.0000e-14
Partially contracted basis set               ... off
Rotationally invariant grid construction     ... off
Angular grids for H and He will be reduced by one unit

Total number of grid points                  ...   148726
Total number of batches                      ...     2336
Average number of points per batch           ...       63
Average number of grid points per atom       ...     5949

--------------------
COSX GRID GENERATION
--------------------

GRIDX 1
-------
General Integration Accuracy     IntAcc      ... 3.816
Radial Grid Type                 RadialGrid  ... OptM3 with GC (2021)
Angular Grid (max. ang.)         AngularGrid ... 1 (Lebedev-50)
Angular grid pruning method      GridPruning ... 4 (adaptive)
Weight generation scheme         WeightScheme... mBecke (2022)
Basis function cutoff            BFCut       ... 1.0000e-11
Integration weight cutoff        WCut        ... 1.0000e-14
Partially contracted basis set               ... on
Rotationally invariant grid construction     ... off
Angular grids for H and He will be reduced by one unit

Total number of grid points                  ...    18708
Total number of batches                      ...      158
Average number of points per batch           ...      118
Average number of grid points per atom       ...      748
UseSFitting                                  ... on

GRIDX 2
-------
General Integration Accuracy     IntAcc      ... 4.020
Radial Grid Type                 RadialGrid  ... OptM3 with GC (2021)
Angular Grid (max. ang.)         AngularGrid ... 2 (Lebedev-110)
Angular grid pruning method      GridPruning ... 4 (adaptive)
Weight generation scheme         WeightScheme... mBecke (2022)
Basis function cutoff            BFCut       ... 1.0000e-11
Integration weight cutoff        WCut        ... 1.0000e-14
Partially contracted basis set               ... on
Rotationally invariant grid construction     ... off
Angular grids for H and He will be reduced by one unit

Total number of grid points                  ...    44104
Total number of batches                      ...      360
Average number of points per batch           ...      122
Average number of grid points per atom       ...     1764
UseSFitting                                  ... on

GRIDX 3
-------
General Integration Accuracy     IntAcc      ... 4.338
Radial Grid Type                 RadialGrid  ... OptM3 with GC (2021)
Angular Grid (max. ang.)         AngularGrid ... 3 (Lebedev-194)
Angular grid pruning method      GridPruning ... 4 (adaptive)
Weight generation scheme         WeightScheme... mBecke (2022)
Basis function cutoff            BFCut       ... 1.0000e-11
Integration weight cutoff        WCut        ... 1.0000e-14
Partially contracted basis set               ... on
Rotationally invariant grid construction     ... off
Angular grids for H and He will be reduced by one unit

Total number of grid points                  ...    97651
Total number of batches                      ...      774
Average number of points per batch           ...      126
Average number of grid points per atom       ...     3906
UseSFitting                                  ... on
Initializing property integral containers    ... done (  0.0 sec)

SHARK setup successfully completed in   4.0 seconds

Maximum memory used throughout the entire STARTUP-calculation: 57.1 MB


           ************************************************************
           *        Program running with 20 parallel MPI-processes    *
           *              working on a common directory               *
           ************************************************************
-------------------------------------------------------------------------------
                                 ORCA GUESS
                   Start orbitals & Density for SCF / CASSCF
-------------------------------------------------------------------------------

------------
SCF SETTINGS
------------
Hamiltonian:
 Density Functional     Method          .... DFT(GTOs)
 Exchange Functional    Exchange        .... B88
   X-Alpha parameter    XAlpha          ....  0.666667
   Becke's b parameter  XBeta           ....  0.004200
 Correlation Functional Correlation     .... LYP
 LDA part of GGA corr.  LDAOpt          .... VWN-5
 Gradients option       PostSCFGGA      .... off
 Hybrid DFT is turned on
   Fraction HF Exchange ScalHFX         ....  0.200000
   Scaling of DF-GGA-X  ScalDFX         ....  0.720000
   Scaling of DF-GGA-C  ScalDFC         ....  0.810000
   Scaling of DF-LDA-C  ScalLDAC        ....  1.000000
   Perturbative correction              ....  0.000000
   NL short-range parameter             ....  4.800000
 RI-approximation to the Coulomb term is turned on
   Number of AuxJ basis functions       .... 1187
   RIJ-COSX (HFX calculated with COS-X)).... on


General Settings:
 Integral files         IntName         .... rf_mecn_opt_B3L_C7_P_B
 Hartree-Fock type      HFTyp           .... UHF
 Total Charge           Charge          ....    0
 Multiplicity           Mult            ....    2
 Number of Electrons    NEL             ....  191
 Basis Dimension        Dim             ....  750
 Nuclear Repulsion      ENuc            ....   2632.1160489543 Eh

Convergence Acceleration:
 AO-DIIS                CNVDIIS         .... on
   Start iteration      DIISMaxIt       ....     0
   Startup error        DIISStart       ....  0.200000
   # of expansion vecs  DIISMaxEq       ....     5
   Bias factor          DIISBfac        ....   1.050
   Max. coefficient     DIISMaxC        ....  10.000
 MO-DIIS                CNVKDIIS        .... off
 Trust-Rad. Augm. Hess. CNVTRAH         .... auto
   Auto Start mean grad. ratio tolernc. ....  1.125000
   Auto Start start iteration           ....    50
   Auto Start num. interpolation iter.  ....    10
   Max. Number of Micro iterations      ....    24
   Max. Number of Macro iterations      .... Maxiter - #DIIS iter
   Number of Davidson start vectors     ....     2
   Converg. threshold    (grad. norm)   ....   1.000e-05
   Grad. Scal. Fac. for Micro threshold ....   0.100
   Minimum threshold for Micro iter.    ....   1.000e-02
   NR start threshold (gradient norm)   ....   1.000e-04
   Initial trust radius                 ....   0.400
   Minimum AH scaling param. (alpha)    ....   1.000
   Maximum AH scaling param. (alpha)    .... 1000.000
   Quad. conv. algorithm                .... NR
   White noise on init. David. guess    .... on
   Maximum white noise                  ....   0.010
   Pseudo random numbers                .... off
   Inactive MOs                         .... canonical
   Orbital update algorithm             .... Taylor
   Preconditioner                       .... Diag
   Full preconditioner red. dimension   ....   250
 SOSCF                  CNVSOSCF        .... on
   Start iteration      SOSCFMaxIt      ....   150
   Startup grad/error   SOSCFStart      ....  0.001000
   Hessian update       SOSCFHessUp     .... L-BFGS
 Level Shifting         CNVShift        .... on
   Level shift para.    LevelShift      ....    0.2500
   Turn off err/grad.   ShiftErr        ....    0.0000
 Zerner damping         CNVZerner       .... off
 Static damping         CNVDamp         .... on
   Fraction old density DampFac         ....    0.8500
   Max. Damping (<1)    DampMax         ....    0.9800
   Min. Damping (>=0)   DampMin         ....    0.0000
   Turn off err/grad.   DampErr         ....    0.0300

SCF Procedure:
 Maximum # iterations   MaxIter         ....  1500
 SCF integral mode      SCFMode         .... Direct
   Integral package                     .... SHARK and LIBINT hybrid scheme
 Reset frequency        DirectResetFreq ....    20
 Integral Threshold     Thresh          ....  2.500e-11 Eh
 Primitive CutOff       TCut            ....  2.500e-12 Eh

Convergence Tolerance:
 Convergence Check Mode ConvCheckMode   .... Total+1el-Energy
 Convergence forced     ConvForced      .... 0
 Energy Change          TolE            ....  1.000e-08 Eh
 1-El. energy change                    ....  1.000e-05 Eh
 Orbital Gradient       TolG            ....  1.000e-05
 Orbital Rotation angle TolX            ....  1.000e-05
 DIIS Error             TolErr          ....  5.000e-07

------------------------------
INITIAL GUESS: MODEL POTENTIAL
------------------------------
Loading Hartree-Fock densities                     ... done
Calculating cut-offs                               ... done
Initializing the effective Hamiltonian             ... done
Setting up the integral package (SHARK)            ... done
Starting the Coulomb interaction                   ... done (   0.2 sec)
Making the grid                                    ... done (   0.4 sec)
Mapping shells                                     ... done
Starting the XC term evaluation                    ... done (   0.2 sec)
  promolecular density results
     # of electrons  =    191.000509358
     EX              =   -198.447745298
     EC              =     -7.161804163
     EX+EC           =   -205.609549461
Transforming the Hamiltonian                       ... done (   0.1 sec)
Diagonalizing the Hamiltonian                      ... done (   0.1 sec)
Back transforming the eigenvectors                 ... done (   0.0 sec)
Now organizing SCF variables                       ... done
                      ------------------
                      INITIAL GUESS DONE (   1.2 sec)
                      ------------------
             **** ENERGY FILE WAS UPDATED (rf_mecn_opt_B3L_C7_P_B.en.tmp) ****
Finished Guess after   1.9 sec
Maximum memory used throughout the entire GUESS-calculation: 46.3 MB


           ************************************************************
           *        Program running with 20 parallel MPI-processes    *
           *              working on a common directory               *
           ************************************************************

-------------------------------------------------------------------------------------------
                                      ORCA LEAN-SCF
                              memory conserving SCF solver
-------------------------------------------------------------------------------------------

--------------------
CPCM SOLVATION MODEL
--------------------
CPCM parameters:
  Epsilon                                         ...      35.6880
  Refrac                                          ...       1.3442
  Rsolv                                           ...       1.3000
  Surface type                                    ... GAUSSIAN VDW
  Discretization scheme                           ... Constant charge density
    Threshold for H atoms                         ...       5.0000 (charges/Ang^2)
    Threshold for non-H atoms                     ...       5.0000 (charges/Ang^2)
  Epsilon function type                           ...         CPCM
Solvent:                                          ... ACETONITRILE
SMD-CDS solvent descriptors:
  Soln                                            ...       1.3442
  Soln25                                          ...       1.3416
  Sola                                            ...       0.0700
  Solb                                            ...       0.3200
  Solg                                            ...      41.2500
  Solc                                            ...       0.0000
  Solh                                            ...       0.0000
Radii:
  Scheme                                          ... Element-dependent radii
  Radius for C  used is    3.4960 Bohr (=   1.8500 Ang.)
  Radius for O  used is    4.0969 Bohr (=   2.1680 Ang.)
  Radius for F  used is    3.2692 Bohr (=   1.7300 Ang.)
  Radius for H  used is    2.2677 Bohr (=   1.2000 Ang.)
Calculating surface                               ...        done! (  0.0s)
Cavity surface points                             ...         2160
Cavity Volume                                     ...    2132.4922
Cavity Surface-area                               ...    1114.6078
Calculating surface distance matrix               ...        done! (  0.0s)
Performing Cholesky decomposition & store         ...        done! (  0.1s)
Overall time for CPCM initialization              ...                 0.1s

----------------------------------------D-I-I-S--------------------------------------------
Iteration    Energy (Eh)           Delta-E    RMSDP     MaxDP     DIISErr   Damp  Time(sec)
-------------------------------------------------------------------------------------------
               ***  Starting incremental Fock matrix formation  ***
    1    -1853.0511963201402068     0.00e+00  2.19e-04  1.71e-02  1.57e-01  0.850   7.2
Warning: op=1 Small HOMO/LUMO gap (   0.049) - skipping pre-diagonalization
         Will do a full diagonalization
    2    -1853.2238048260455798    -1.73e-01  2.09e-04  1.65e-02  9.71e-02  0.850   5.1
                               ***Turning on AO-DIIS***
    3    -1853.3105785768416354    -8.68e-02  8.60e-05  4.96e-03  5.55e-02  0.850   4.4
    4    -1853.3618730908688121    -5.13e-02  4.77e-05  2.81e-03  4.00e-02  0.850   4.1
    5    -1853.3982117960799769    -3.63e-02  3.50e-05  2.83e-03  3.29e-02  0.850   3.9
    6    -1853.4271817934136379    -2.90e-02  3.04e-05  2.89e-03  2.98e-02  0.850   3.9
    7    -1853.4515368050538200    -2.44e-02  1.94e-04  1.87e-02  2.52e-02  0.000   3.8
    8    -1853.5797611564080398    -1.28e-01  5.61e-05  8.31e-03  1.45e-02  0.000   4.1
    9    -1853.5799450994086328    -1.84e-04  2.05e-05  2.82e-03  1.30e-02  0.000   3.8
   10    -1853.5809682437516130    -1.02e-03  8.45e-06  6.26e-04  3.35e-03  0.000   3.6
                              *** Initializing SOSCF ***
---------------------------------------S-O-S-C-F--------------------------------------
Iteration    Energy (Eh)           Delta-E    RMSDP     MaxDP     MaxGrad    Time(sec)
--------------------------------------------------------------------------------------
   11    -1853.5810529608656907    -8.47e-05  3.55e-06  2.92e-04  8.93e-04     3.9
               *** Restarting incremental Fock matrix formation ***
   12    -1853.5810891977712345    -3.62e-05  2.72e-06  1.84e-04  1.43e-04     7.0
   13    -1853.5810895173976860    -3.20e-07  1.42e-06  1.17e-04  2.10e-04     4.4
   14    -1853.5810907242016583    -1.21e-06  8.80e-07  1.03e-04  7.50e-05     4.0
   15    -1853.5810904627892342     2.61e-07  6.39e-07  6.57e-05  2.15e-04     4.1
   16    -1853.5810907918480552    -3.29e-07  3.35e-07  2.81e-05  2.33e-05     3.5
   17    -1853.5810908040980394    -1.22e-08  1.70e-07  1.38e-05  2.14e-05     3.6
   18    -1853.5810907972058885     6.89e-09  1.42e-07  2.05e-05  1.22e-06     4.1
                 **** Energy Check signals convergence ****

               *****************************************************
               *                     SUCCESS                       *
               *           SCF CONVERGED AFTER  18 CYCLES          *
               *****************************************************

Recomputing exchange energy using gridx3       ... done (    9.055 sec)
Old exchange energy                            :    -39.749214941 Eh
New exchange energy                            :    -39.749241440 Eh
Exchange energy change after final integration :     -0.000026499 Eh
Total energy after final integration           :  -1853.581117297 Eh

SMD CDS free energy correction energy :                 3.63138     Kcal/mol
Total Energy after SMD CDS correction =             -1853.575330327 Eh
             **** ENERGY FILE WAS UPDATED (rf_mecn_opt_B3L_C7_P_B.en.tmp) ****

----------------
TOTAL SCF ENERGY
----------------

Total Energy       :      -1853.57533032725360 Eh          -50438.34897 eV

Components:
Nuclear Repulsion  :       2632.11604895431492 Eh           71623.51896 eV
Electronic Energy  :      -4485.67898726151725 Eh         -122061.53073 eV
One Electron Energy:      -7815.83588388892258 Eh         -212679.70683 eV
Two Electron Energy:       3330.15689662740488 Eh           90618.17610 eV
CPCM Dielectric    :         -0.01815249000309 Eh              -0.49395 eV
SMD CDS (Gcds)     :          0.00578696939472 Eh               0.15747 eV

Virial components:
Potential Energy   :      -3699.67248614198252 Eh         -100673.20647 eV
Kinetic Energy     :       1846.09715581472869 Eh           50234.85750 eV
Virial Ratio       :          2.00405080225002

DFT components:
N(Alpha)           :       95.999980126744 electrons
N(Beta)            :       94.999967335349 electrons
N(Total)           :      190.999947462093 electrons
E(X)               :     -158.462494941056 Eh       
E(C)               :       -8.364154194845 Eh       
E(XC)              :     -166.826649135900 Eh       

CPCM Solvation Model Properties:
Surface-charge          :         -0.00954281178621
Corrected charge        :          0.00000000000000
Outlying charge corr.   :          0.00000496219201 Eh               0.00014 eV
Free-energy (cav+disp)  :          0.00578696939472 Eh               0.15747 eV

---------------
SCF CONVERGENCE
---------------

  Last Energy change         ...   -6.8922e-09  Tolerance :   1.0000e-08
  Last MAX-Density change    ...    2.0485e-05  Tolerance :   1.0000e-07
  Last RMS-Density change    ...    1.4175e-07  Tolerance :   5.0000e-09
  Last DIIS Error            ...    8.9262e-04  Tolerance :   5.0000e-07
  Last Orbital Gradient      ...    1.2225e-06  Tolerance :   1.0000e-05
  Last Orbital Rotation      ...    4.6534e-06  Tolerance :   1.0000e-05


----------------------
UHF SPIN CONTAMINATION
----------------------

Warning: in a DFT calculation there is little theoretical justification to 
         calculate <S**2> as in Hartree-Fock theory. We will do it anyways
         but you should keep in mind that the values have only limited relevance

Expectation value of <S**2>     :     0.752975
Ideal value S*(S+1) for S=0.5   :     0.750000
Deviation                       :     0.002975

----------------
ORBITAL ENERGIES
----------------
                 SPIN UP ORBITALS
  NO   OCC          E(Eh)            E(eV) 
   0   1.0000     -24.749366      -673.4645 
   1   1.0000     -24.743631      -673.3084 
   2   1.0000     -24.743471      -673.3041 
   3   1.0000     -24.743214      -673.2971 
   4   1.0000     -24.742573      -673.2796 
   5   1.0000     -24.742391      -673.2747 
   6   1.0000     -24.741950      -673.2627 
   7   1.0000     -24.741290      -673.2447 
   8   1.0000     -24.740360      -673.2194 
   9   1.0000     -24.738962      -673.1814 
  10   1.0000     -24.738388      -673.1658 
  11   1.0000     -24.737879      -673.1519 
  12   1.0000     -24.733130      -673.0227 
  13   1.0000     -24.733097      -673.0218 
  14   1.0000     -19.204685      -522.5860 
  15   1.0000     -19.172956      -521.7227 
  16   1.0000     -10.459670      -284.6221 
  17   1.0000     -10.410371      -283.2806 
  18   1.0000     -10.409678      -283.2617 
  19   1.0000     -10.409235      -283.2497 
  20   1.0000     -10.408911      -283.2409 
  21   1.0000     -10.408127      -283.2195 
  22   1.0000     -10.406982      -283.1884 
  23   1.0000     -10.342384      -281.4306 
  24   1.0000      -1.344484       -36.5853 
  25   1.0000      -1.329847       -36.1870 
  26   1.0000      -1.314844       -35.7787 
  27   1.0000      -1.304121       -35.4869 
  28   1.0000      -1.302714       -35.4487 
  29   1.0000      -1.286194       -34.9991 
  30   1.0000      -1.282465       -34.8976 
  31   1.0000      -1.262356       -34.3505 
  32   1.0000      -1.257702       -34.2238 
  33   1.0000      -1.253983       -34.1226 
  34   1.0000      -1.253300       -34.1040 
  35   1.0000      -1.248384       -33.9703 
  36   1.0000      -1.247257       -33.9396 
  37   1.0000      -1.232845       -33.5474 
  38   1.0000      -1.090693       -29.6793 
  39   1.0000      -1.004106       -27.3231 
  40   1.0000      -0.851171       -23.1616 
  41   1.0000      -0.835658       -22.7394 
  42   1.0000      -0.809436       -22.0259 
  43   1.0000      -0.773443       -21.0465 
  44   1.0000      -0.740101       -20.1392 
  45   1.0000      -0.710357       -19.3298 
  46   1.0000      -0.683433       -18.5971 
  47   1.0000      -0.677391       -18.4327 
  48   1.0000      -0.643778       -17.5181 
  49   1.0000      -0.641111       -17.4455 
  50   1.0000      -0.632195       -17.2029 
  51   1.0000      -0.628186       -17.0938 
  52   1.0000      -0.626058       -17.0359 
  53   1.0000      -0.623028       -16.9535 
  54   1.0000      -0.615493       -16.7484 
  55   1.0000      -0.608215       -16.5504 
  56   1.0000      -0.600873       -16.3506 
  57   1.0000      -0.598326       -16.2813 
  58   1.0000      -0.589881       -16.0515 
  59   1.0000      -0.583626       -15.8813 
  60   1.0000      -0.581698       -15.8288 
  61   1.0000      -0.573019       -15.5926 
  62   1.0000      -0.528327       -14.3765 
  63   1.0000      -0.514762       -14.0074 
  64   1.0000      -0.510019       -13.8783 
  65   1.0000      -0.506583       -13.7848 
  66   1.0000      -0.503313       -13.6959 
  67   1.0000      -0.499199       -13.5839 
  68   1.0000      -0.496456       -13.5093 
  69   1.0000      -0.494731       -13.4623 
  70   1.0000      -0.488507       -13.2930 
  71   1.0000      -0.486366       -13.2347 
  72   1.0000      -0.483127       -13.1465 
  73   1.0000      -0.478383       -13.0175 
  74   1.0000      -0.473326       -12.8798 
  75   1.0000      -0.471230       -12.8228 
  76   1.0000      -0.465393       -12.6640 
  77   1.0000      -0.464296       -12.6341 
  78   1.0000      -0.461240       -12.5510 
  79   1.0000      -0.455572       -12.3967 
  80   1.0000      -0.453195       -12.3321 
  81   1.0000      -0.451197       -12.2777 
  82   1.0000      -0.449621       -12.2348 
  83   1.0000      -0.445644       -12.1266 
  84   1.0000      -0.441681       -12.0188 
  85   1.0000      -0.440509       -11.9869 
  86   1.0000      -0.439388       -11.9563 
  87   1.0000      -0.437687       -11.9101 
  88   1.0000      -0.434024       -11.8104 
  89   1.0000      -0.420002       -11.4288 
  90   1.0000      -0.393996       -10.7212 
  91   1.0000      -0.367999       -10.0138 
  92   1.0000      -0.351904        -9.5758 
  93   1.0000      -0.345175        -9.3927 
  94   1.0000      -0.320074        -8.7096 
  95   1.0000      -0.306365        -8.3366 
  96   0.0000      -0.099828        -2.7165 
  97   0.0000      -0.022291        -0.6066 
  98   0.0000      -0.004927        -0.1341 
  99   0.0000       0.005501         0.1497 
 100   0.0000       0.024579         0.6688 
 101   0.0000       0.056514         1.5378 
 102   0.0000       0.071744         1.9522 
 103   0.0000       0.093746         2.5510 
 104   0.0000       0.095424         2.5966 
 105   0.0000       0.102871         2.7993 
 106   0.0000       0.107756         2.9322 

                 SPIN DOWN ORBITALS
  NO   OCC          E(Eh)            E(eV) 
   0   1.0000     -24.745093      -673.3482 
   1   1.0000     -24.743593      -673.3074 
   2   1.0000     -24.743469      -673.3040 
   3   1.0000     -24.742533      -673.2786 
   4   1.0000     -24.741997      -673.2640 
   5   1.0000     -24.741948      -673.2626 
   6   1.0000     -24.741320      -673.2455 
   7   1.0000     -24.741290      -673.2447 
   8   1.0000     -24.740292      -673.2176 
   9   1.0000     -24.738962      -673.1814 
  10   1.0000     -24.738371      -673.1653 
  11   1.0000     -24.737881      -673.1520 
  12   1.0000     -24.733129      -673.0227 
  13   1.0000     -24.733097      -673.0218 
  14   1.0000     -19.204685      -522.5860 
  15   1.0000     -19.172956      -521.7227 
  16   1.0000     -10.459521      -284.6180 
  17   1.0000     -10.410371      -283.2806 
  18   1.0000     -10.409688      -283.2620 
  19   1.0000     -10.409020      -283.2438 
  20   1.0000     -10.408912      -283.2409 
  21   1.0000     -10.408077      -283.2182 
  22   1.0000     -10.406982      -283.1884 
  23   1.0000     -10.326855      -281.0080 
  24   1.0000      -1.343327       -36.5538 
  25   1.0000      -1.329595       -36.1801 
  26   1.0000      -1.314124       -35.7591 
  27   1.0000      -1.303443       -35.4685 
  28   1.0000      -1.302641       -35.4467 
  29   1.0000      -1.286186       -34.9989 
  30   1.0000      -1.274300       -34.6755 
  31   1.0000      -1.261894       -34.3379 
  32   1.0000      -1.255927       -34.1755 
  33   1.0000      -1.253169       -34.1005 
  34   1.0000      -1.253041       -34.0970 
  35   1.0000      -1.247835       -33.9553 
  36   1.0000      -1.247117       -33.9358 
  37   1.0000      -1.232845       -33.5474 
  38   1.0000      -1.090693       -29.6793 
  39   1.0000      -1.004106       -27.3231 
  40   1.0000      -0.849402       -23.1134 
  41   1.0000      -0.828424       -22.5426 
  42   1.0000      -0.802347       -21.8330 
  43   1.0000      -0.771264       -20.9872 
  44   1.0000      -0.739114       -20.1123 
  45   1.0000      -0.708237       -19.2721 
  46   1.0000      -0.680561       -18.5190 
  47   1.0000      -0.675701       -18.3868 
  48   1.0000      -0.643020       -17.4975 
  49   1.0000      -0.639177       -17.3929 
  50   1.0000      -0.630997       -17.1703 
  51   1.0000      -0.627389       -17.0721 
  52   1.0000      -0.624146       -16.9839 
  53   1.0000      -0.620180       -16.8759 
  54   1.0000      -0.614559       -16.7230 
  55   1.0000      -0.607555       -16.5324 
  56   1.0000      -0.599412       -16.3108 
  57   1.0000      -0.597316       -16.2538 
  58   1.0000      -0.587950       -15.9989 
  59   1.0000      -0.582697       -15.8560 
  60   1.0000      -0.578096       -15.7308 
  61   1.0000      -0.572767       -15.5858 
  62   1.0000      -0.514453       -13.9990 
  63   1.0000      -0.511042       -13.9062 
  64   1.0000      -0.506177       -13.7738 
  65   1.0000      -0.504369       -13.7246 
  66   1.0000      -0.502819       -13.6824 
  67   1.0000      -0.498319       -13.5599 
  68   1.0000      -0.495398       -13.4805 
  69   1.0000      -0.491048       -13.3621 
  70   1.0000      -0.488059       -13.2808 
  71   1.0000      -0.483510       -13.1570 
  72   1.0000      -0.481967       -13.1150 
  73   1.0000      -0.475427       -12.9370 
  74   1.0000      -0.472109       -12.8467 
  75   1.0000      -0.469905       -12.7868 
  76   1.0000      -0.464094       -12.6286 
  77   1.0000      -0.460161       -12.5216 
  78   1.0000      -0.458434       -12.4746 
  79   1.0000      -0.455065       -12.3829 
  80   1.0000      -0.452349       -12.3090 
  81   1.0000      -0.450529       -12.2595 
  82   1.0000      -0.449453       -12.2302 
  83   1.0000      -0.445205       -12.1147 
  84   1.0000      -0.441300       -12.0084 
  85   1.0000      -0.439980       -11.9725 
  86   1.0000      -0.438659       -11.9365 
  87   1.0000      -0.437529       -11.9058 
  88   1.0000      -0.433479       -11.7956 
  89   1.0000      -0.418093       -11.3769 
  90   1.0000      -0.391346       -10.6491 
  91   1.0000      -0.366846        -9.9824 
  92   1.0000      -0.350339        -9.5332 
  93   1.0000      -0.345174        -9.3927 
  94   1.0000      -0.320053        -8.7091 
  95   0.0000      -0.145961        -3.9718 
  96   0.0000      -0.099807        -2.7159 
  97   0.0000      -0.021643        -0.5889 
  98   0.0000      -0.003177        -0.0864 
  99   0.0000       0.007627         0.2076 
 100   0.0000       0.027980         0.7614 
 101   0.0000       0.061047         1.6612 
 102   0.0000       0.074744         2.0339 
 103   0.0000       0.094924         2.5830 
 104   0.0000       0.095709         2.6044 
 105   0.0000       0.103466         2.8155 
*Only the first 10 virtual orbitals were printed.

                    ********************************
                    * MULLIKEN POPULATION ANALYSIS *
                    ********************************

--------------------------------------------
MULLIKEN ATOMIC CHARGES AND SPIN POPULATIONS
--------------------------------------------
   0 C :    0.388721    0.000001
   1 O :   -0.451797    0.000004
   2 O :   -0.388558    0.000003
   3 C :    0.375575    0.000002
   4 C :    0.344151    0.000057
   5 C :    0.336936    0.000600
   6 C :    0.341403   -0.000352
   7 C :    0.362829    0.000526
   8 C :    0.116208    0.853120
   9 C :    0.497203    0.009214
  10 F :   -0.181953   -0.000001
  11 F :   -0.183625    0.000001
  12 F :   -0.171581    0.000002
  13 F :   -0.176097   -0.000007
  14 F :   -0.170508   -0.000036
  15 F :   -0.171246    0.000006
  16 F :   -0.171793    0.000817
  17 F :   -0.173229    0.000782
  18 F :   -0.169670    0.023016
  19 F :   -0.174907    0.002041
  20 F :   -0.152771    0.084032
  21 F :   -0.155386    0.025133
  22 F :   -0.161701    0.000430
  23 F :   -0.161107    0.000610
  24 H :    0.452903   -0.000000
Sum of atomic charges         :    0.0000000
Sum of atomic spin populations:    1.0000000

-----------------------------------------------------
MULLIKEN REDUCED ORBITAL CHARGES AND SPIN POPULATIONS
-----------------------------------------------------
CHARGE
  0 C s       :     3.160241  s :     3.160241
      pz      :     0.776347  p :     2.229381
      px      :     0.788551
      py      :     0.664482
      dz2     :     0.015359  d :     0.203547
      dxz     :     0.014718
      dyz     :     0.057149
      dx2y2   :     0.050653
      dxy     :     0.065668
      f0      :     0.001742  f :     0.018109
      f+1     :     0.001068
      f-1     :     0.002348
      f+2     :     0.002580
      f-2     :     0.001943
      f+3     :     0.003920
      f-3     :     0.004506

  1 O s       :     3.664348  s :     3.664348
      pz      :     1.725447  p :     4.770893
      px      :     1.690478
      py      :     1.354968
      dz2     :     0.001632  d :     0.013737
      dxz     :     0.001146
      dyz     :     0.002996
      dx2y2   :     0.003092
      dxy     :     0.004871
      f0      :     0.000276  f :     0.002820
      f+1     :     0.000129
      f-1     :     0.000378
      f+2     :     0.000242
      f-2     :     0.000433
      f+3     :     0.000923
      f-3     :     0.000441

  2 O s       :     3.878745  s :     3.878745
      pz      :     1.540317  p :     4.483765
      px      :     1.696493
      py      :     1.246955
      dz2     :     0.003271  d :     0.024767
      dxz     :     0.000321
      dyz     :     0.006527
      dx2y2   :     0.009201
      dxy     :     0.005447
      f0      :     0.000116  f :     0.001281
      f+1     :     0.000012
      f-1     :     0.000222
      f+2     :     0.000222
      f-2     :     0.000029
      f+3     :     0.000288
      f-3     :     0.000392

  3 C s       :     3.120277  s :     3.120277
      pz      :     0.678198  p :     2.221789
      px      :     0.903874
      py      :     0.639717
      dz2     :     0.045422  d :     0.257133
      dxz     :     0.051532
      dyz     :     0.064088
      dx2y2   :     0.043966
      dxy     :     0.052125
      f0      :     0.005343  f :     0.025226
      f+1     :     0.003582
      f-1     :     0.003905
      f+2     :     0.003597
      f-2     :     0.002022
      f+3     :     0.003713
      f-3     :     0.003064

  4 C s       :     3.129458  s :     3.129458
      pz      :     0.608166  p :     2.221226
      px      :     0.916929
      py      :     0.696131
      dz2     :     0.059759  d :     0.277758
      dxz     :     0.058512
      dyz     :     0.067090
      dx2y2   :     0.034024
      dxy     :     0.058372
      f0      :     0.003795  f :     0.027406
      f+1     :     0.004835
      f-1     :     0.007880
      f+2     :     0.002234
      f-2     :     0.002627
      f+3     :     0.003466
      f-3     :     0.002568

  5 C s       :     3.157355  s :     3.157355
      pz      :     0.587781  p :     2.194049
      px      :     0.899546
      py      :     0.706723
      dz2     :     0.073445  d :     0.283983
      dxz     :     0.060875
      dyz     :     0.058095
      dx2y2   :     0.033299
      dxy     :     0.058269
      f0      :     0.004940  f :     0.027677
      f+1     :     0.004337
      f-1     :     0.006207
      f+2     :     0.003180
      f-2     :     0.004286
      f+3     :     0.002507
      f-3     :     0.002220

  6 C s       :     3.142059  s :     3.142059
      pz      :     0.576618  p :     2.207045
      px      :     0.911416
      py      :     0.719011
      dz2     :     0.077463  d :     0.281930
      dxz     :     0.060273
      dyz     :     0.053122
      dx2y2   :     0.033740
      dxy     :     0.057331
      f0      :     0.005991  f :     0.027563
      f+1     :     0.003852
      f-1     :     0.004580
      f+2     :     0.004016
      f-2     :     0.005117
      f+3     :     0.002059
      f-3     :     0.001949

  7 C s       :     3.129447  s :     3.129447
      pz      :     0.585943  p :     2.191909
      px      :     0.912381
      py      :     0.693585
      dz2     :     0.070231  d :     0.288106
      dxz     :     0.060462
      dyz     :     0.057506
      dx2y2   :     0.037839
      dxy     :     0.062069
      f0      :     0.004750  f :     0.027709
      f+1     :     0.004282
      f-1     :     0.006486
      f+2     :     0.003135
      f-2     :     0.004171
      f+3     :     0.002718
      f-3     :     0.002168

  8 C s       :     3.318053  s :     3.318053
      pz      :     0.611007  p :     2.414329
      px      :     0.896960
      py      :     0.906362
      dz2     :     0.029673  d :     0.135999
      dxz     :     0.042637
      dyz     :     0.034494
      dx2y2   :     0.011447
      dxy     :     0.017749
      f0      :     0.002972  f :     0.015411
      f+1     :     0.004774
      f-1     :     0.004238
      f+2     :     0.000492
      f-2     :     0.000802
      f+3     :     0.001097
      f-3     :     0.001035

  9 C s       :     3.017136  s :     3.017136
      pz      :     0.648342  p :     2.103810
      px      :     0.796473
      py      :     0.658995
      dz2     :     0.064575  d :     0.342040
      dxz     :     0.066549
      dyz     :     0.080269
      dx2y2   :     0.060436
      dxy     :     0.070210
      f0      :     0.004879  f :     0.039811
      f+1     :     0.007788
      f-1     :     0.008625
      f+2     :     0.004462
      f-2     :     0.002995
      f+3     :     0.007302
      f-3     :     0.003760

 10 F s       :     3.920141  s :     3.920141
      pz      :     1.896940  p :     5.246109
      px      :     1.887564
      py      :     1.461605
      dz2     :     0.002163  d :     0.015072
      dxz     :     0.000293
      dyz     :     0.002842
      dx2y2   :     0.005780
      dxy     :     0.003993
      f0      :     0.000049  f :     0.000631
      f+1     :     0.000015
      f-1     :     0.000128
      f+2     :     0.000070
      f-2     :     0.000018
      f+3     :     0.000168
      f-3     :     0.000182

 11 F s       :     3.919938  s :     3.919938
      pz      :     1.476912  p :     5.248480
      px      :     1.902154
      py      :     1.869415
      dz2     :     0.006668  d :     0.014586
      dxz     :     0.003383
      dyz     :     0.003669
      dx2y2   :     0.000431
      dxy     :     0.000436
      f0      :     0.000224  f :     0.000621
      f+1     :     0.000136
      f-1     :     0.000181
      f+2     :     0.000037
      f-2     :     0.000037
      f+3     :     0.000003
      f-3     :     0.000002

 12 F s       :     3.917105  s :     3.917105
      pz      :     1.811841  p :     5.237583
      px      :     1.906311
      py      :     1.519431
      dz2     :     0.002038  d :     0.016198
      dxz     :     0.000779
      dyz     :     0.005287
      dx2y2   :     0.004847
      dxy     :     0.003247
      f0      :     0.000079  f :     0.000695
      f+1     :     0.000003
      f-1     :     0.000120
      f+2     :     0.000187
      f-2     :     0.000063
      f+3     :     0.000107
      f-3     :     0.000135

 13 F s       :     3.919605  s :     3.919605
      pz      :     1.448833  p :     5.239752
      px      :     1.908276
      py      :     1.882643
      dz2     :     0.008384  d :     0.016055
      dxz     :     0.003659
      dyz     :     0.003467
      dx2y2   :     0.000267
      dxy     :     0.000278
      f0      :     0.000343  f :     0.000685
      f+1     :     0.000152
      f-1     :     0.000161
      f+2     :     0.000011
      f-2     :     0.000017
      f+3     :     0.000001
      f-3     :     0.000001

 14 F s       :     3.916679  s :     3.916679
      pz      :     1.707555  p :     5.236808
      px      :     1.905703
      py      :     1.623550
      dz2     :     0.002628  d :     0.016323
      dxz     :     0.001594
      dyz     :     0.006527
      dx2y2   :     0.003072
      dxy     :     0.002503
      f0      :     0.000078  f :     0.000698
      f+1     :     0.000013
      f-1     :     0.000187
      f+2     :     0.000196
      f-2     :     0.000104
      f+3     :     0.000059
      f-3     :     0.000062

 15 F s       :     3.916768  s :     3.916768
      pz      :     1.501835  p :     5.237472
      px      :     1.908893
      py      :     1.826744
      dz2     :     0.006769  d :     0.016309
      dxz     :     0.003240
      dyz     :     0.004892
      dx2y2   :     0.000618
      dxy     :     0.000789
      f0      :     0.000231  f :     0.000697
      f+1     :     0.000106
      f-1     :     0.000241
      f+2     :     0.000051
      f-2     :     0.000059
      f+3     :     0.000005
      f-3     :     0.000004

 16 F s       :     3.917839  s :     3.917839
      pz      :     1.594529  p :     5.236970
      px      :     1.904888
      py      :     1.737553
      dz2     :     0.004447  d :     0.016285
      dxz     :     0.002537
      dyz     :     0.006239
      dx2y2   :     0.001530
      dxy     :     0.001532
      f0      :     0.000117  f :     0.000698
      f+1     :     0.000054
      f-1     :     0.000261
      f+2     :     0.000126
      f-2     :     0.000100
      f+3     :     0.000021
      f-3     :     0.000018

 17 F s       :     3.917542  s :     3.917542
      pz      :     1.605972  p :     5.238705
      px      :     1.905995
      py      :     1.726737
      dz2     :     0.004195  d :     0.016284
      dxz     :     0.002452
      dyz     :     0.006364
      dx2y2   :     0.001649
      dxy     :     0.001624
      f0      :     0.000109  f :     0.000698
      f+1     :     0.000048
      f-1     :     0.000259
      f+2     :     0.000136
      f-2     :     0.000102
      f+3     :     0.000024
      f-3     :     0.000021

 18 F s       :     3.917075  s :     3.917075
      pz      :     1.722074  p :     5.235651
      px      :     1.904751
      py      :     1.608826
      dz2     :     0.002510  d :     0.016248
      dxz     :     0.001463
      dyz     :     0.006436
      dx2y2   :     0.003266
      dxy     :     0.002573
      f0      :     0.000078  f :     0.000696
      f+1     :     0.000010
      f-1     :     0.000177
      f+2     :     0.000201
      f-2     :     0.000098
      f+3     :     0.000063
      f-3     :     0.000070

 19 F s       :     3.917223  s :     3.917223
      pz      :     1.497667  p :     5.240714
      px      :     1.905894
      py      :     1.837152
      dz2     :     0.006954  d :     0.016273
      dxz     :     0.003376
      dyz     :     0.004683
      dx2y2   :     0.000570
      dxy     :     0.000690
      f0      :     0.000243  f :     0.000698
      f+1     :     0.000115
      f-1     :     0.000233
      f+2     :     0.000045
      f-2     :     0.000054
      f+3     :     0.000004
      f-3     :     0.000003

 20 F s       :     3.919532  s :     3.919532
      pz      :     1.458638  p :     5.215811
      px      :     1.909822
      py      :     1.847352
      dz2     :     0.008218  d :     0.016733
      dxz     :     0.003702
      dyz     :     0.004453
      dx2y2   :     0.000175
      dxy     :     0.000185
      f0      :     0.000336  f :     0.000695
      f+1     :     0.000156
      f-1     :     0.000181
      f+2     :     0.000009
[...]
      pz      :    -0.000068  p :     0.000231
      px      :    -0.000005
      py      :     0.000304
      dz2     :     0.000004  d :     0.000038
      dxz     :     0.000020
      dyz     :     0.000008
      dx2y2   :     0.000002
      dxy     :     0.000003
      f0      :     0.000000  f :     0.000002
      f+1     :     0.000001
      f-1     :     0.000000
      f+2     :    -0.000000
      f-2     :     0.000000
      f+3     :     0.000000
      f-3     :    -0.000000

 16 F s       :     0.000164  s :     0.000164
      pz      :     0.000927  p :     0.000940
      px      :     0.000030
      py      :    -0.000017
      dz2     :     0.000002  d :     0.000195
      dxz     :    -0.000002
      dyz     :     0.000014
      dx2y2   :     0.000124
      dxy     :     0.000057
      f0      :     0.000000  f :     0.000013
      f+1     :     0.000001
      f-1     :     0.000001
      f+2     :     0.000002
      f-2     :     0.000004
      f+3     :     0.000003
      f-3     :     0.000002

 17 F s       :     0.000139  s :     0.000139
      pz      :    -0.000221  p :     0.000657
      px      :    -0.000024
      py      :     0.000902
      dz2     :     0.000012  d :     0.000194
      dxz     :     0.000045
      dyz     :     0.000036
      dx2y2   :     0.000065
      dxy     :     0.000036
      f0      :     0.000000  f :     0.000012
      f+1     :     0.000005
      f-1     :     0.000001
      f+2     :     0.000002
      f-2     :     0.000003
      f+3     :     0.000000
      f-3     :     0.000000

 18 F s       :     0.001292  s :     0.001292
      pz      :     0.007641  p :     0.014396
      px      :     0.003557
      py      :     0.003198
      dz2     :    -0.000050  d :    -0.000072
      dxz     :    -0.000047
      dyz     :     0.000073
      dx2y2   :    -0.000003
      dxy     :    -0.000046
      f0      :    -0.000002  f :    -0.000005
      f+1     :    -0.000001
      f-1     :     0.000001
      f+2     :    -0.000001
      f-2     :    -0.000002
      f+3     :    -0.000001
      f-3     :     0.000000

 19 F s       :     0.000678  s :     0.000678
      pz      :     0.005996  p :     0.006198
      px      :     0.000661
      py      :    -0.000459
      dz2     :    -0.000033  d :    -0.000174
      dxz     :    -0.000071
      dyz     :     0.000009
      dx2y2   :    -0.000005
      dxy     :    -0.000074
      f0      :    -0.000002  f :    -0.000010
      f+1     :    -0.000001
      f-1     :     0.000001
      f+2     :    -0.000002
      f-2     :    -0.000005
      f+3     :    -0.000001
      f-3     :     0.000000

 20 F s       :     0.002136  s :     0.002136
      pz      :     0.000851  p :     0.101856
      px      :     0.025284
      py      :     0.075722
      dz2     :     0.001932  d :     0.010437
      dxz     :     0.002316
      dyz     :     0.004431
      dx2y2   :     0.001721
      dxy     :     0.000037
      f0      :     0.000128  f :     0.000559
      f+1     :     0.000133
      f-1     :     0.000099
      f+2     :     0.000181
      f-2     :     0.000000
      f+3     :     0.000004
      f-3     :     0.000013

 21 F s       :     0.001651  s :     0.001651
      pz      :     0.009643  p :     0.027755
      px      :     0.017306
      py      :     0.000805
      dz2     :    -0.000006  d :     0.000226
      dxz     :     0.000164
      dyz     :     0.000006
      dx2y2   :     0.000037
      dxy     :     0.000024
      f0      :     0.000004  f :     0.000008
      f+1     :    -0.000000
      f-1     :    -0.000001
      f+2     :     0.000000
      f-2     :     0.000004
      f+3     :    -0.000004
      f-3     :     0.000006

 22 F s       :     0.000145  s :     0.000145
      pz      :    -0.000518  p :     0.006654
      px      :     0.007274
      py      :    -0.000102
      dz2     :    -0.000010  d :    -0.000044
      dxz     :    -0.000022
      dyz     :    -0.000050
      dx2y2   :     0.000070
      dxy     :    -0.000033
      f0      :    -0.000001  f :    -0.000004
      f+1     :     0.000001
      f-1     :    -0.000001
      f+2     :    -0.000001
      f-2     :    -0.000002
      f+3     :    -0.000001
      f-3     :     0.000001

 23 F s       :     0.000520  s :     0.000520
      pz      :     0.007001  p :     0.011103
      px      :     0.001882
      py      :     0.002221
      dz2     :    -0.000041  d :    -0.000020
      dxz     :    -0.000016
      dyz     :     0.000047
      dx2y2   :    -0.000007
      dxy     :    -0.000003
      f0      :    -0.000002  f :    -0.000005
      f+1     :    -0.000002
      f-1     :     0.000001
      f+2     :    -0.000002
      f-2     :    -0.000000
      f+3     :     0.000000
      f-3     :    -0.000000

 24 H s       :     0.000009  s :     0.000009
      pz      :     0.000001  p :     0.000001
      px      :    -0.000000
      py      :    -0.000000



                      *****************************
                      * MAYER POPULATION ANALYSIS *
                      *****************************

  NA   - Mulliken gross atomic population
  ZA   - Total nuclear charge
  QA   - Mulliken gross atomic charge
  VA   - Mayer's total valence
  BVA  - Mayer's bonded valence
  FA   - Mayer's free valence

  ATOM       NA         ZA         QA         VA         BVA        FA
  0 C      5.7725     6.0000     0.2275     4.3960     4.3960     0.0000
  1 O      8.3477     8.0000    -0.3477     2.1765     2.1765     0.0000
  2 O      8.2846     8.0000    -0.2846     2.2071     2.2071     0.0000
  3 C      5.5876     6.0000     0.4124     4.1141     4.1141     0.0000
  4 C      5.6902     6.0000     0.3098     4.1109     4.1109     0.0000
  5 C      5.6761     6.0000     0.3239     4.1603     4.1602     0.0000
  6 C      5.6810     6.0000     0.3190     4.1236     4.1227     0.0009
  7 C      5.6161     6.0000     0.3839     4.1933     4.1903     0.0029
  8 C      5.8610     6.0000     0.1390     3.8611     3.2832     0.5779
  9 C      5.5088     6.0000     0.4912     4.5062     4.5040     0.0022
 10 F      9.1771     9.0000    -0.1771     1.1351     1.1351     0.0000
 11 F      9.1721     9.0000    -0.1721     1.1441     1.1441     0.0000
 12 F      9.1718     9.0000    -0.1718     1.1491     1.1491     0.0000
 13 F      9.1722     9.0000    -0.1722     1.1476     1.1476     0.0000
 14 F      9.1693     9.0000    -0.1693     1.1494     1.1494     0.0000
 15 F      9.1681     9.0000    -0.1681     1.1509     1.1509     0.0000
 16 F      9.1722     9.0000    -0.1722     1.1460     1.1460     0.0000
 17 F      9.1734     9.0000    -0.1734     1.1478     1.1478     0.0000
 18 F      9.1746     9.0000    -0.1746     1.1377     1.1374     0.0003
 19 F      9.1714     9.0000    -0.1714     1.1402     1.1402     0.0001
 20 F      9.1381     9.0000    -0.1381     1.2042     1.1918     0.0123
 21 F      9.1691     9.0000    -0.1691     1.1343     1.1334     0.0008
 22 F      9.1615     9.0000    -0.1615     1.1522     1.1522     0.0001
 23 F      9.1642     9.0000    -0.1642     1.1429     1.1427     0.0002
 24 H      0.6192     1.0000     0.3808     0.8796     0.8796     0.0000

  Mayer bond orders larger than 0.100000
B(  0-C ,  1-O ) :   1.3085 B(  0-C ,  2-O ) :   2.0855 B(  0-C ,  3-C ) :   0.8998 
B(  1-O , 24-H ) :   0.8216 B(  3-C ,  4-C ) :   0.9418 B(  3-C , 10-F ) :   1.0882 
B(  3-C , 11-F ) :   1.1074 B(  4-C ,  5-C ) :   0.9301 B(  4-C , 12-F ) :   1.0790 
B(  4-C , 13-F ) :   1.0759 B(  5-C ,  6-C ) :   0.9294 B(  5-C , 14-F ) :   1.0820 
B(  5-C , 15-F ) :   1.0850 B(  6-C ,  7-C ) :   0.9307 B(  6-C , 16-F ) :   1.0757 
B(  6-C , 17-F ) :   1.0806 B(  7-C ,  8-C ) :   1.0042 B(  7-C , 18-F ) :   1.0718 
B(  7-C , 19-F ) :   1.0915 B(  8-C ,  9-C ) :   1.0454 B(  8-C , 20-F ) :   1.1345 
B(  9-C , 21-F ) :   1.1315 B(  9-C , 22-F ) :   1.1426 B(  9-C , 23-F ) :   1.1337 


-------
TIMINGS
-------

Total SCF time: 0 days 0 hours 0 min 43 sec 

Total time                  ....      43.134 sec
Sum of individual times     ....      42.170 sec  ( 97.8%)

SCF preparation             ....       1.484 sec  (  3.4%)
Fock matrix formation       ....      35.702 sec  ( 82.8%)
  Startup                   ....       0.168 sec  (  0.5% of F)
  Split-RI-J                ....       2.234 sec  (  6.3% of F)
  Chain of spheres X        ....      25.655 sec  ( 71.9% of F)
  XC integration            ....       5.343 sec  ( 15.0% of F)
    XC Preparation          ....       0.000 sec  (  0.0% of XC)
    Basis function eval.    ....       0.509 sec  (  9.5% of XC)
    Density eval.           ....       1.191 sec  ( 22.3% of XC)
    XC-Functional eval.     ....       0.045 sec  (  0.8% of XC)
    XC-Potential eval.      ....       1.285 sec  ( 24.0% of XC)
  CPCM terms                ....       1.932 sec  (  5.4% of F)
Diagonalization             ....       0.000 sec  (  0.0%)
Density matrix formation    ....       0.426 sec  (  1.0%)
Total Energy calculation    ....       0.242 sec  (  0.6%)
Population analysis         ....       0.567 sec  (  1.3%)
Orbital Transformation      ....       0.503 sec  (  1.2%)
Orbital Orthonormalization  ....       0.000 sec  (  0.0%)
DIIS solution               ....       0.692 sec  (  1.6%)
SOSCF solution              ....       2.556 sec  (  5.9%)
Finished LeanSCF after  43.7 sec

Maximum memory used throughout the entire LEANSCF-calculation: 109.9 MB


-------------------------------------------------------------------------------
                          DFT DISPERSION CORRECTION                            
                                                                               
                              DFTD3 V3.1  Rev 1                                
                          USING Becke-Johnson damping                          
-------------------------------------------------------------------------------
The B3LYP functional is recognized
Active option DFTDOPT                   ...         4   

molecular C6(AA) [au] = 6514.870432 


            DFT-D V3
 parameters
 s6 scaling factor         :     1.0000 
 a1 scaling factor         :     0.3981 
 s8 scaling factor         :     1.9889 
 a2 scaling factor         :     4.4211 
 ad hoc parameters k1-k3   :    16.0000     1.3333    -4.0000 

 Edisp/kcal,au: -26.917749342964  -0.042896159475 
 E6   /kcal   : -12.810223704 
 E8   /kcal   : -14.107525639 
 % E8         :  52.409751868 

-------------------------   ----------------
Dispersion correction           -0.042896159
-------------------------   ----------------


-------------------------   --------------------
FINAL SINGLE POINT ENERGY     -1853.734477492014
-------------------------   --------------------

                                *** OPTIMIZATION RUN DONE ***



           ************************************************************
           *        Program running with 20 parallel MPI-processes    *
           *              working on a common directory               *
           ************************************************************

------------------------------------------------------------------------------
                              ORCA PROPERTY CALCULATIONS
------------------------------------------------------------------------------

GBWName                                 ... rf_mecn_opt_B3L_C7_P_B.gbw
Number of atoms                         ...     25
Number of basis functions               ...    750
Max core memory                         ...   8000 MB

Electric properties:
Dipole moment                           ... YES
Quadrupole moment                       ...  NO
Static polarizability (Dipole/Dipole)   ...  NO
Static polarizability (Dipole/Quad.)    ...  NO
Static polarizability (Quad./Quad.)     ...  NO
Static polarizability (Velocity)        ...  NO

Atomic electric properties:
Dipole moment                           ...  NO
Quadrupole moment                       ...  NO
Static polarizability                   ...  NO

Choice of electric origin               ... Center of mass
Position of electric origin             ...     0.202928    -0.301721     0.073137

General magnetic properties:
Magnetizability                         ...  NO

EPR properties:
g-Tensor (aka g-matrix)                 ...  NO
Zero-Field splitting spin-orbit         ...  NO
Zero-field splitting spin-spin          ...  NO
Hyperfine couplings                     ...  NO (   0 nuclei)
Quadrupole couplings                    ...  NO (   0 nuclei)
Contact density                         ...  NO (   0 nuclei)

NMR properties:
Chemical shifts                         ...  NO (   0 nuclei)
Spin-rotation constants                 ...  NO (   0 nuclei)
Spin-spin couplings                     ...  NO (   0 nuclei,    0 pairs)

Choice of magnetic origin               ... GIAO
Position of magnetic origin             ...     0.000000     0.000000     0.000000

Properties with geometric perturbations:
SCF Hessian                             ...  NO
IR spectrum                             ...  NO
VCD spectrum                            ...  NO
X-ray spectroscopy properties:
SCF XES/XAS/RIXS spectra                ...  NO


-------------
DIPOLE MOMENT
-------------

Method             : SCF
Type of density    : Electron Density
Multiplicity       :   2
Irrep              :   0
Energy             : -1853.6915813325383624 Eh
Relativity type    : 
Basis              : AO
                                X                 Y                 Z
Electronic contribution:    -13.474535351      -0.864144134       2.466311029
Nuclear contribution   :     14.082986450       0.589988660      -3.165812224
                        -----------------------------------------
Total Dipole Moment    :      0.608451099      -0.274155474      -0.699501194
                        -----------------------------------------
Magnitude (a.u.)       :      0.966786369
Magnitude (Debye)      :      2.457375660



--------------------
Rotational spectrum 
--------------------
 
Rotational constants in cm-1:             0.020622             0.004034             0.003965 
Rotational constants in MHz :           618.228166           120.941027           118.865919 

Dipole components along the rotational axes: 
x,y,z [a.u.] :    -0.607227    -0.508296    -0.554605 
x,y,z [Debye]:    -1.543449    -1.291985    -1.409693 

 

Dipole moment calculation done in   0.2 sec 

Maximum memory used throughout the entire PROP-calculation: 57.6 MB

--------------------------------
SUGGESTED CITATIONS FOR THIS RUN
--------------------------------

Below you find a list of papers that are relevant to this ORCA run
We neither can nor want to force you to cite these papers, but we appreciate if you do
You receive ORCA, which is the product of decades of hard work by many enthusiastic individuals, for free
The only thing we kindly ask in return is that you cite our papers,
We deeply appreciate it, if you show your appreciation for ORCA by not just citing the generic ORCA reference.

Please note that relegating all ORCA citations to the supporting information does *not* help us.
SI sections are not indexed - citations you put there will not count into any citation statistics
But we need these citations in order to attract the funding resources that allow us to do what we are doing

Therefore, if you are a happy ORCA user, please consider citing a few of the papers listed below in the main body of your paper

In addition to the list printed below, the program has created the file rf_mecn_opt_B3L_C7_P_B.bibtex that contains the list in bibtex format
You can import this file easily into all common literature databanks and citation aid programs


List of essential papers. We consider these as the minimum necessary citations

  1. Neese,F.
     Software update: the ORCA program system, version 5.0
     WIRES Comput. Molec. Sci., 2022 12(1)e1606
     doi.org/10.1002/wcms.1606

List of papers to cite with high priority. The work reported in these papers was absolutely
necessary for this run to complete.
Our perspective: the developers of density functionals and basis sets usually get cited in chemistry papers
Good! But without the algorithms to do something with them, the functionals or basis sets would not do anything.
Hence, in our opinion, the algorithm design and method developments papers are equally worthy of getting cited

  1. Neese,F.
     An improvement of the resolution of the identity approximation for the formation of the Coulomb matrix
     J. Comp. Chem., 2003 24(14)1740-1747
     doi.org/10.1002/jcc.10318
  2. Neese,F.; Wennmohs,F.; Hansen,A.; Becker,U.
     Efficient, approximate and parallel Hartree-Fock and hybrid DFT calculations. A 'chain-of-spheres' algorithm for the Hartree-Fock exchange
     Chem. Phys., 2009 356(1-3)98-109
     doi.org/10.1016/j.chemphys.2008.10.036
  3. Garcia-Rates,M.; Neese,F.
     Effect of the Solute Cavity on the Solvation Energy and its Derivatives within the Framework of the Gaussian Charge Scheme
     J. Comput. Chem., 2020 41 922-939
     doi.org/10.1002/jcc.26139
  4. Helmich-Paris,B.; de Souza,B.; Neese,F.; Izsák,R.
     An improved chain of spheres for exchange algorithm
     J. Chem. Phys., 2021 155 104109
     doi.org/doi: 10.1063/5.0058766.
  5. Neese,F.
     The SHARK Integral Generation and Digestion System
     J. Comp. Chem., 2022  1-16
     doi.org/10.1002/jcc.26942
  6. Grimme,S.; Antony,J.; Ehrlich,S.; Krieg,H.
     A consistent and accurate ab initio parametrization of density functional dispersion correction (DFT-D) for the 94 elements H-Pu
     J. Chem. Phys., 2010 132 154104
     doi.org/10.1063/1.3382344
  7. Grimme,S.; Ehrlich,S.; Goerigk,L.
     Effect of the damping function in dispersion corrected density functional theory
     J. Comput. Chem., 2011 32(7)1456-1465
     doi.org/10.1002/jcc.21759

List of suggested additional citations. These are papers that are important in the 'surrounding' of 
of this run, or papers that preceded the highly important papers. If you like your results we are grateful for a citation.

  1. Izsak,R.; Neese,F.
     An overlap fitted chain of spheres exchange method
     J. Chem. Phys., 2011 135 144105
     doi.org/10.1063/1.3646921
  2. Izsak,R.; Hansen,A.; Neese,F.
     The resolution of identity and chain of spheres approximations for the LPNO-CCSD singles Fock term
     Molec. Phys., 2012 110 2413-2417
     doi.org/10.1080/00268976.2012.687466
  3. Neese,F.
     The ORCA program system
     WIRES Comput. Molec. Sci., 2012 2(1)73-78
     doi.org/10.1002/wcms.81
  4. Izsak,R.; Neese,F.; Klopper,W.
     Robust fitting techniques in the chain of spheres approximation to the Fock exchange: The role of the complementary space
     J. Chem. Phys., 2013 139 
     doi.org/10.1063/1.4819264
  5. Neese,F.
     Software update: the ORCA program system, version 4.0
     WIRES Comput. Molec. Sci., 2018 8(1)1-6
     doi.org/10.1002/wcms.1327
  6. Neese,F.; Wennmohs,F.; Becker,U.; Riplinger,C.
     The ORCA quantum chemistry program package
     J. Chem. Phys., 2020 152 Art. No. L224108
     doi.org/10.1063/5.0004608

List of optional additional citations

  1. Neese,F.
     Approximate second-order SCF convergence for spin unrestricted wavefunctions
     Chem. Phys. Lett., 2000 325(1-3)93-98
     doi.org/10.1016/s0009-2614(00)00662-x

Timings for individual modules:

Sum of individual times          ...     4295.980 sec (=  71.600 min)
Startup calculation              ...      208.843 sec (=   3.481 min)   4.9 %
SCF iterations                   ...     2988.583 sec (=  49.810 min)  69.6 %
Property calculations            ...        1.096 sec (=   0.018 min)   0.0 %
SCF Gradient evaluation          ...     1096.629 sec (=  18.277 min)  25.5 %
Geometry relaxation              ...        0.829 sec (=   0.014 min)   0.0 %
                             ****ORCA TERMINATED NORMALLY****
TOTAL RUN TIME: 0 days 1 hours 12 minutes 9 seconds 284 msec
