
                                 *****************
                                 * O   R   C   A *
                                 *****************

                                            #,                                       
                                            ###                                      
                                            ####                                     
                                            #####                                    
                                            ######                                   
                                           ########,                                 
                                     ,,################,,,,,                         
                               ,,#################################,,                 
                          ,,##########################################,,             
                       ,#########################################, ''#####,          
                    ,#############################################,,   '####,        
                  ,##################################################,,,,####,       
                ,###########''''           ''''###############################       
              ,#####''   ,,,,##########,,,,          '''####'''          '####       
            ,##' ,,,,###########################,,,                        '##       
           ' ,,###''''                  '''############,,,                           
         ,,##''                                '''############,,,,        ,,,,,,###''
      ,#''                                            '''#######################'''  
     '                                                          ''''####''''         
             ,#######,   #######,   ,#######,      ##                                
            ,#'     '#,  ##    ##  ,#'     '#,    #''#        ,####,   ,####,        
            ##       ##  ##   ,#'  ##            #'  '#       #'       #'  '#        
            ##       ##  #######   ##           ,######,      #####,   #    #        
            '#,     ,#'  ##    ##  '#,     ,#' ,#      #,     #,   #   #,  ,#        
             '#######'   ##     ##  '#######'  #'      '#     '####' # '####'        



                #########################################################
                #                        -***-                          #
                #          Department of theory and spectroscopy        #
                #                                                       #
                #                      Frank Neese                      #
                #                                                       #
                #     Directorship, Architecture, Infrastructure        #
                #                    SHARK, DRIVERS                     #
                #        Core code/Algorithms in most modules           #
                #                                                       #
                #        Max Planck Institute fuer Kohlenforschung      #
                #                Kaiser Wilhelm Platz 1                 #
                #                 D-45470 Muelheim/Ruhr                 #
                #                      Germany                          #
                #                                                       #
                #                  All rights reserved                  #
                #                        -***-                          #
                #########################################################


                         Program Version 6.0.1  -  RELEASE   -


 With contributions from (in alphabetic order):
[Max-Planck-Institut fuer Kohlenforschung]                               
  Daniel Aravena         : Magnetic Suceptibility                        
  Michael Atanasov       : Ab Initio Ligand Field Theory (pilot matlab implementation)
  Alexander A. Auer      : GIAO ZORA, VPT2 properties, NMR spectrum      
  Ute Becker             : All parallelization in ORCA, NUMFREQ, NUMCALC 
  Giovanni Bistoni       : ED, misc. LED, open-shell LED, HFLD           
  Martin Brehm           : Molecular dynamics                            
  Dmytro Bykov           : pre 5.0 version of the SCF Hessian            
  Marcos Casanova-Páez   : Triplet and SCS-CIS(D). UHF-(DLPNO)-IP/EA/STEOM-CCSD. UHF-CVS-IP/STEOM-CCSD   
  Vijay G. Chilkuri      : MRCI spin determinant printing, contributions to CSF-ICE 
  Pauline Colinet        : FMM embedding                                 
  Dipayan Datta          : RHF DLPNO-CCSD density                        
  Achintya Kumar Dutta   : EOM-CC, STEOM-CC                              
  Nicolas Foglia         : Exact transition moments, OPA infrastructure, MCD improvements    
  Dmitry Ganyushin       : Spin-Orbit,Spin-Spin,Magnetic field MRCI      
  Miquel Garcia-Rates    : C-PCM and meta-GGA Hessian, CCSD/C-PCM, Gaussian charge scheme 
  Tiago L. C. Gouveia    : GS-ROHF, GS-ROCIS                             
  Yang Guo               : DLPNO-NEVPT2, F12-NEVPT2, CIM, IAO-localization        
  Andreas Hansen         : Spin unrestricted coupled pair/coupled cluster methods 
  Ingolf Harden          : AUTO-CI MPn and infrastructure                
  Benjamin Helmich-Paris : MC-RPA, TRAH-(SCF,CASSCF), AVAS, COSX integrals, SCF dyn. polar. 
  Lee Huntington         : MR-EOM, pCC                                   
  Robert Izsak           : Overlap fitted RIJCOSX, COSX-SCS-MP3, EOM     
  Riya Kayal             : Wick's Theorem for AUTO-CI, AUTO-CI UHF-CCSDT 
  Emily Kempfer          : AUTO-CI, RHF CISDT and CCSDT                  
  Christian Kollmar      : KDIIS, OOCD, Brueckner-CCSD(T), CCSD density, CASPT2, CASPT2-K, improved NEVPT2 
  Axel Koslowski         : Symmetry handling                             
  Simone Kossmann        : meta-GGA functionals, TD-DFT gradient, OOMP2, (MP2 Hessian; deprecated post 5.0) 
  Lucas Lang             : DCDCAS                                        
  Marvin Lechner         : AUTO-CI (C++ implementation), FIC-MRCC        
  Spencer Leger          : CASSCF response                               
  Dagmar Lenk            : GEPOL surface, SMD, ORCA-2-JSON               
  Dimitrios Liakos       : Extrapolation schemes; Compound Job, initial MDCI parallelization 
  Dimitrios Manganas     : Further ROCIS development; embedding schemes. LFT, Crystal Embedding 
  Dimitrios Pantazis     : SARC Basis sets                               
  Anastasios Papadopoulos: AUTO-CI, single reference methods and gradients 
  Taras Petrenko         : pre 6.0 DFT Hessian and TD-DFT gradient, (ASA, deprecated), ECA, 1-Electron XAS/XES, NRVS 
  Peter Pinski           : DLPNO-MP2, DLPNO-MP2 Gradient                 
  Christoph Reimann      : Effective Core Potentials                     
  Marius Retegan         : Local ZFS, SOC                                
  Christoph Riplinger    : Optimizer, TS searches, QM/MM, DLPNO-CCSD(T), (RO)-DLPNO pert. Triples 
  Michael Roemelt        : Original ROCIS implementation                 
  Masaaki Saitow         : Open-shell DLPNO-CCSD energy and density      
  Barbara Sandhoefer     : DKH picture change effects                    
  Kantharuban Sivalingam : CASSCF convergence/infrastructure, NEVPT2 and variants, FIC-MRCI 
  Bernardo de Souza      : ESD, SOC TD-DFT                               
  Georgi L. Stoychev     : AutoAux, RI-MP2 NMR, DLPNO-MP2 response, X2C  
  Van Anh Tran           : RI-MP2 g-tensors                              
  Willem Van den Heuvel  : Paramagnetic NMR                              
  Zikuan Wang            : NOTCH, Electric field optimization            
  Frank Wennmohs         : Technical directorship and infrastructure     
  Hang Xu                : AUTO-CI-Response properties                   
                                                                         
[FACCTs GmbH]                                                            
  Markus Bursch, Miquel Garcia-Rates, Christoph Riplinger, Bernardo de Souza, Georgi L. Stoychev 
                                                                 
  APM, Basis sets (HGBS, AHGBS, def-TZVP (Ac-Lr), def2-XVPD (La-Lu)), CI-OPT, improved COSX, DLPNO-Multilevel,           
  DOCKER, DRACO, updates on ESD, GOAT, IRC, LR-CPCM, MBIS, meta-GGA TD-DFT gradient, ML-optimized integration grids, 
  MM, NACMEs, nearIR, NEB, NEB-TS, NL-DFT gradient (VV10), 2- and 3-layer-ONIOM, interface openCOSMO-RS, QMMM,   
  Crystal-QMMM, SF, symmetry and pop. for TD-DFT, r2SCAN hybrids, SOLVATOR                                   
                                                                         
[Other institutions]                                                     
  V. Asgeirsson          : NEB                                           
  Christoph Bannwarth    : sTDA-DFT, sTD-DFT, PBEh-3c, B97-3c, D3        
  Sebastian Ehlert       : rSCAN, r2SCAN, r2SCAN-3c, D4, dhf basis sets  
  Marvin Friede          : D4 for Fr, Ra, Ac-Lr                          
  Lars Goerigk           : TD-DFT with DH, B97 family of functionals     
  Stefan Grimme          : VdW corrections, initial TS optimization, DFT functionals, gCP, sTDA/sTD-DF 
  Waldemar Hujo          : DFT-NL                                        
  H. Jonsson             : NEB                                           
  Holger Kruse           : gCP                                           
  Marcel Mueller         : wB97X-3c, vDZP basis set                      
  Hagen Neugebauer       : wr2SCAN                                       
  Tobias Risthaus        : range-separated hybrid DFT                    
  Lukas Wittmann         : regularized MP2, r2SCAN double-hybrids, wr2SCAN        
                                                                         
We gratefully acknowledge several colleagues who have allowed us to      
interface, adapt or use parts of their codes:                            
  Ed Valeev, F. Pavosevic, A. Kumar             : LibInt (2-el integral package), F12 methods 
  Garnet Chan, S. Sharma, J. Yang, R. Olivares  : DMRG                   
  Ulf Ekstrom                                   : XCFun DFT Library      
  Mihaly Kallay                                 : mrcc  (arbitrary order and MRCC methods)
  Frank Weinhold                                : gennbo (NPA and NBO analysis)           
  Simon Mueller                                 : openCOSMO-RS                            
  Christopher J. Cramer and Donald G. Truhlar   : smd solvation model                     
  S Lehtola, MJT Oliveira, MAL Marques          : LibXC Library                           
  Liviu Ungur et al                             : ANISO software                          


 Your calculation uses the libint2 library for the computation of 2-el integrals
 For citations please refer to: http://libint.valeyev.net

 Your ORCA version has been built with support for libXC version: 6.2.2
 For citations please refer to: https://libxc.gitlab.io

 This ORCA versions uses:
   CBLAS   interface :  Fast vector & matrix operations
   LAPACKE interface :  Fast linear algebra routines
   SCALAPACK package :  Parallel linear algebra routines
   Shared memory     :  Shared parallel matrices
   BLAS/LAPACK       :  OpenBLAS 0.3.27  USE64BITINT DYNAMIC_ARCH NO_AFFINITY SkylakeX SINGLE_THREADED
        Core in use  :  SkylakeX
   Copyright (c) 2011-2014, The OpenBLAS Project


NOTE: MaxCore=8000 MB was set to SCF,MP2,MDCI,CIPSI,MRCI and CIS
      => If you want to overwrite this, your respective input block should be placed after the MaxCore statement
Your calculation utilizes the atom-pairwise dispersion correction
with the Becke-Johnson damping scheme (D3BJ)


Your calculation utilizes the SMD solvation module
Please cite in your paper:
A.V. Marenich, C.J. Cramer, D.G. Truhlar J. Phys. Chem. B, 113, (2009), 6378 

Warning: RI is on but no J-basis has been assigned. Assigning Def2/J (nothing to worry about!)
================================================================================

----- Orbital basis set information -----
Your calculation utilizes the basis: def2-TZVP
   F. Weigend and R. Ahlrichs, Phys. Chem. Chem. Phys. 7, 3297 (2005).

----- AuxJ basis set information -----
Your calculation utilizes the auxiliary basis: def2/J
   F. Weigend, Phys. Chem. Chem. Phys. 8, 1057 (2006).

================================================================================
                                        WARNINGS
                       Please study these warnings very carefully!
================================================================================


WARNING: your system is open-shell and RHF/RKS was chosen
  ===> : WILL SWITCH to UHF/UKS


================================================================================
                                       INPUT FILE
================================================================================
NAME = rf_mecn_freq_B3L_C7_D_B.inp
|  1> !B3LYP def2-TZVP freq d3 TightSCF SlowConv defgrid2
|  2>  
|  3> %pal
|  4> nprocs 20
|  5> end
|  6>  
|  7> %scf
|  8> MaxIter 1500
|  9> end
| 10>  
| 11> %maxcore 8000
| 12>  
| 13> !CPCM
| 14> %cpcm smd true
| 15> SMDsolvent "ACETONITRILE"
| 16> end
| 17>  
| 18> * xyz -1 2
| 19> 6        4.697788000      0.326697000     -0.628200000
| 20> 8        5.287207000     -0.503096000     -1.331911000
| 21> 8        4.856071000      1.548850000     -0.480136000
| 22> 6        3.516523000     -0.253702000      0.253267000
| 23> 6        2.122990000      0.263390000     -0.206407000
| 24> 6        0.901757000     -0.564902000      0.319881000
| 25> 6       -0.472667000      0.177826000      0.195150000
| 26> 6       -1.732873000     -0.749526000      0.306521000
| 27> 6       -3.008018000      0.011202000      0.508100000
| 28> 6       -4.104226000      0.180546000     -0.502232000
| 29> 9        3.475715000     -1.618497000      0.221586000
| 30> 9        3.686800000      0.095648000      1.565588000
| 31> 9        1.959184000      1.546476000      0.189463000
| 32> 9        2.086134000      0.231802000     -1.562486000
| 33> 9        0.827710000     -1.722047000     -0.373395000
| 34> 9        1.097173000     -0.858206000      1.623674000
| 35> 9       -0.559022000      1.100900000      1.177518000
| 36> 9       -0.538903000      0.810791000     -0.995212000
| 37> 9       -1.541986000     -1.588183000      1.359326000
| 38> 9       -1.831791000     -1.482621000     -0.826620000
| 39> 9       -3.275372000      0.393619000      1.740341000
| 40> 9       -4.800204000     -0.958247000     -0.708947000
| 41> 9       -4.970577000      1.109880000     -0.083048000
| 42> 9       -3.609214000      0.555727000     -1.693107000
| 43> *
| 44> 
| 45>                          ****END OF INPUT****
================================================================================

                       ****************************
                       * Single Point Calculation *
                       ****************************

---------------------------------
CARTESIAN COORDINATES (ANGSTROEM)
---------------------------------
  C      4.697788    0.326697   -0.628200
  O      5.287207   -0.503096   -1.331911
  O      4.856071    1.548850   -0.480136
  C      3.516523   -0.253702    0.253267
  C      2.122990    0.263390   -0.206407
  C      0.901757   -0.564902    0.319881
  C     -0.472667    0.177826    0.195150
  C     -1.732873   -0.749526    0.306521
  C     -3.008018    0.011202    0.508100
  C     -4.104226    0.180546   -0.502232
  F      3.475715   -1.618497    0.221586
  F      3.686800    0.095648    1.565588
  F      1.959184    1.546476    0.189463
  F      2.086134    0.231802   -1.562486
  F      0.827710   -1.722047   -0.373395
  F      1.097173   -0.858206    1.623674
  F     -0.559022    1.100900    1.177518
  F     -0.538903    0.810791   -0.995212
  F     -1.541986   -1.588183    1.359326
  F     -1.831791   -1.482621   -0.826620
  F     -3.275372    0.393619    1.740341
  F     -4.800204   -0.958247   -0.708947
  F     -4.970577    1.109880   -0.083048
  F     -3.609214    0.555727   -1.693107

----------------------------
CARTESIAN COORDINATES (A.U.)
----------------------------
  NO LB      ZA    FRAG     MASS         X           Y           Z
   0 C     6.0000    0    12.011    8.877533    0.617368   -1.187126
   1 O     8.0000    0    15.999    9.991373   -0.950714   -2.516947
   2 O     8.0000    0    15.999    9.176644    2.926902   -0.907326
   3 C     6.0000    0    12.011    6.645265   -0.479427    0.478605
   4 C     6.0000    0    12.011    4.011870    0.497735   -0.390053
   5 C     6.0000    0    12.011    1.704074   -1.067510    0.604487
   6 C     6.0000    0    12.011   -0.893211    0.336042    0.368780
   7 C     6.0000    0    12.011   -3.274655   -1.416399    0.579241
   8 C     6.0000    0    12.011   -5.684330    0.021169    0.960170
   9 C     6.0000    0    12.011   -7.755863    0.341182   -0.949081
  10 F     9.0000    0    18.998    6.568149   -3.058516    0.418737
  11 F     9.0000    0    18.998    6.967042    0.180749    2.958533
  12 F     9.0000    0    18.998    3.702321    2.922416    0.358033
  13 F     9.0000    0    18.998    3.942222    0.438042   -2.952671
  14 F     9.0000    0    18.998    1.564145   -3.254197   -0.705614
  15 F     9.0000    0    18.998    2.073356   -1.621774    3.068299
  16 F     9.0000    0    18.998   -1.056398    2.080400    2.225187
  17 F     9.0000    0    18.998   -1.018379    1.532173   -1.880678
  18 F     9.0000    0    18.998   -2.913931   -3.001231    2.568754
  19 F     9.0000    0    18.998   -3.461583   -2.801748   -1.562085
  20 F     9.0000    0    18.998   -6.189556    0.743832    3.288768
  21 F     9.0000    0    18.998   -9.071071   -1.810824   -1.339716
  22 F     9.0000    0    18.998   -9.393029    2.097369   -0.156938
  23 F     9.0000    0    18.998   -6.820426    1.050172   -3.199509

--------------------------------
INTERNAL COORDINATES (ANGSTROEM)
--------------------------------
 C      0   0   0     0.000000000000     0.00000000     0.00000000
 O      1   0   0     1.237408724687     0.00000000     0.00000000
 O      1   2   0     1.241222949995   131.86538539     0.00000000
 C      1   2   3     1.584056208446   115.21183753   179.83373057
 C      4   1   2     1.555833713746   112.44189835   247.58327176
 C      5   4   1     1.566670589657   115.03842539   162.89712832
 C      6   5   4     1.567240899199   113.97371718   163.68914821
 C      7   6   5     1.568599500823   114.75445895   162.76960088
 C      8   7   6     1.498444511569   113.14666019   166.39316620
 C      9   8   7     1.500373326817   126.04767449   108.92551009
 F      4   1   2     1.365772444681   112.05595102     8.63464251
 F      4   1   2     1.368658498775   110.31959635   126.88786481
 F      5   4   1     1.352721385183   109.70918211   284.85883469
 F      5   4   1     1.356947464245   108.17096936    42.60486595
 F      6   5   4     1.350962294592   108.85549341   284.91915264
 F      6   5   4     1.350589070118   109.04538886    43.12332723
 F      7   6   5     1.350766331726   108.78629805   283.23170670
 F      7   6   5     1.349812427697   109.59973307    41.74855730
 F      8   7   6     1.359478495028   107.87160480    45.51536753
 F      8   7   6     1.353226357868   108.63559523   287.57224325
 F      9   8   7     1.317626200895   116.47587588   278.20170827
 F     10   9   8     1.350542840697   112.60719661    71.53989048
 F     10   9   8     1.337886753284   109.90938264   191.30254920
 F     10   9   8     1.343123571579   111.05785408   311.76066759

---------------------------
INTERNAL COORDINATES (A.U.)
---------------------------
 C      0   0   0     0.000000000000     0.00000000     0.00000000
 O      1   0   0     2.338363605383     0.00000000     0.00000000
 O      1   2   0     2.345571446628   131.86538539     0.00000000
 C      1   2   3     2.993432414700   115.21183753   179.83373057
 C      4   1   2     2.940099628902   112.44189835   247.58327176
 C      5   4   1     2.960578356521   115.03842539   162.89712832
 C      6   5   4     2.961656085366   113.97371718   163.68914821
 C      7   6   5     2.964223470360   114.75445895   162.76960088
 C      8   7   6     2.831649753742   113.14666019   166.39316620
 C      9   8   7     2.835294686325   126.04767449   108.92551009
 F      4   1   2     2.580935881703   112.05595102     8.63464251
 F      4   1   2     2.586389733549   110.31959635   126.88786481
 F      5   4   1     2.556272953495   109.70918211   284.85883469
 F      5   4   1     2.564259085542   108.17096936    42.60486595
 F      6   5   4     2.552948754033   108.85549341   284.91915264
 F      6   5   4     2.552243461990   109.04538886    43.12332723
 F      7   6   5     2.552578437884   108.78629805   283.23170670
 F      7   6   5     2.550775820511   109.59973307    41.74855730
 F      8   7   6     2.569042040558   107.87160480    45.51536753
 F      8   7   6     2.557227213575   108.63559523   287.57224325
 F      9   8   7     2.489952666571   116.47587588   278.20170827
 F     10   9   8     2.552156101045   112.60719661    71.53989048
 F     10   9   8     2.528239561908   109.90938264   191.30254920
 F     10   9   8     2.538135714298   111.05785408   311.76066759

---------------------
BASIS SET INFORMATION
---------------------
There are 3 groups of distinct atoms

 Group   1 Type C   : 11s6p2d1f contracted to 5s3p2d1f pattern {62111/411/11/1}
 Group   2 Type O   : 11s6p2d1f contracted to 5s3p2d1f pattern {62111/411/11/1}
 Group   3 Type F   : 11s6p2d1f contracted to 5s3p2d1f pattern {62111/411/11/1}

Atom   0C    basis set group =>   1
Atom   1O    basis set group =>   2
Atom   2O    basis set group =>   2
Atom   3C    basis set group =>   1
Atom   4C    basis set group =>   1
Atom   5C    basis set group =>   1
Atom   6C    basis set group =>   1
Atom   7C    basis set group =>   1
Atom   8C    basis set group =>   1
Atom   9C    basis set group =>   1
Atom  10F    basis set group =>   3
Atom  11F    basis set group =>   3
Atom  12F    basis set group =>   3
Atom  13F    basis set group =>   3
Atom  14F    basis set group =>   3
Atom  15F    basis set group =>   3
Atom  16F    basis set group =>   3
Atom  17F    basis set group =>   3
Atom  18F    basis set group =>   3
Atom  19F    basis set group =>   3
Atom  20F    basis set group =>   3
Atom  21F    basis set group =>   3
Atom  22F    basis set group =>   3
Atom  23F    basis set group =>   3
---------------------------------
AUXILIARY/J BASIS SET INFORMATION
---------------------------------
There are 3 groups of distinct atoms

 Group   1 Type C   : 12s5p4d2f1g contracted to 6s4p3d1f1g pattern {711111/2111/211/2/1}
 Group   2 Type O   : 12s5p4d2f1g contracted to 6s4p3d1f1g pattern {711111/2111/211/2/1}
 Group   3 Type F   : 12s5p4d2f1g contracted to 6s4p3d1f1g pattern {711111/2111/211/2/1}

Atom   0C    basis set group =>   1
Atom   1O    basis set group =>   2
Atom   2O    basis set group =>   2
Atom   3C    basis set group =>   1
Atom   4C    basis set group =>   1
Atom   5C    basis set group =>   1
Atom   6C    basis set group =>   1
Atom   7C    basis set group =>   1
Atom   8C    basis set group =>   1
Atom   9C    basis set group =>   1
Atom  10F    basis set group =>   3
Atom  11F    basis set group =>   3
Atom  12F    basis set group =>   3
Atom  13F    basis set group =>   3
Atom  14F    basis set group =>   3
Atom  15F    basis set group =>   3
Atom  16F    basis set group =>   3
Atom  17F    basis set group =>   3
Atom  18F    basis set group =>   3
Atom  19F    basis set group =>   3
Atom  20F    basis set group =>   3
Atom  21F    basis set group =>   3
Atom  22F    basis set group =>   3
Atom  23F    basis set group =>   3


           ************************************************************
           *        Program running with 20 parallel MPI-processes    *
           *              working on a common directory               *
           ************************************************************
------------------------------------------------------------------------------
                             ORCA STARTUP CALCULATIONS
                           -- RI-GTO INTEGRALS CHOSEN --
------------------------------------------------------------------------------
------------------------------------------------------------------------------
                   ___                                                        
                  /   \      - P O W E R E D   B Y -                         
                 /     \                                                     
                 |  |  |   _    _      __       _____    __    __             
                 |  |  |  | |  | |    /  \     |  _  \  |  |  /  |          
                  \  \/   | |  | |   /    \    | | | |  |  | /  /          
                 / \  \   | |__| |  /  /\  \   | |_| |  |  |/  /          
                |  |  |   |  __  | /  /__\  \  |    /   |      \           
                |  |  |   | |  | | |   __   |  |    \   |  |\   \          
                \     /   | |  | | |  |  |  |  | |\  \  |  | \   \       
                 \___/    |_|  |_| |__|  |__|  |_| \__\ |__|  \__/        
                                                                              
                      - O R C A' S   B I G   F R I E N D -                    
                                      &                                       
                       - I N T E G R A L  F E E D E R -                       
                                                                              
 v1 FN, 2020, v2 2021, v3 2022-2024                                           
------------------------------------------------------------------------------


----------------------
SHARK INTEGRAL PACKAGE
----------------------

Number of atoms                             ...     24
Number of basis functions                   ...    744
Number of shells                            ...    264
Maximum angular momentum                    ...      3
Integral batch strategy                     ... SHARK/LIBINT Hybrid
RI-J (if used) integral strategy            ... SPLIT-RIJ (Revised 2003 algorithm where possible)
Printlevel                                  ...      1
Contraction scheme used                     ... SEGMENTED contraction
Prescreening option                         ... SCHWARTZ
   Thresh                                   ... 2.500e-11
   Tcut                                     ... 2.500e-12
   Tpresel                                  ... 2.500e-12 
Coulomb Range Separation                    ... NOT USED
Exchange Range Separation                   ... NOT USED
Multipole approximations                    ... NOT USED
Finite Nucleus Model                        ... NOT USED
CABS basis                                  ... NOT available
Auxiliary Coulomb fitting basis             ... AVAILABLE
   # of basis functions in Aux-J            ...   1176
   # of shells in Aux-J                     ...    360
   Maximum angular momentum in Aux-J        ...      4
Auxiliary J/K fitting basis                 ... NOT available
Auxiliary Correlation fitting basis         ... NOT available
Auxiliary 'external' fitting basis          ... NOT available

Checking pre-screening integrals            ... done (  0.0 sec) Dimension = 264
Check shell pair data                       ... done (  0.0 sec)
Shell pair information
Shell pair cut-off parameter TPreSel        ...   2.5e-12
Total number of shell pairs                 ...     34980
Shell pairs after pre-screening             ...     21865
Total number of primitive shell pairs       ...    115968
Primitive shell pairs kept                  ...     46487
          la=0 lb=0:   4067 shell pairs
          la=1 lb=0:   5948 shell pairs
          la=1 lb=1:   2074 shell pairs
          la=2 lb=0:   3247 shell pairs
          la=2 lb=1:   2414 shell pairs
          la=2 lb=2:    686 shell pairs
          la=3 lb=0:   1491 shell pairs
          la=3 lb=1:   1161 shell pairs
          la=3 lb=2:    625 shell pairs
          la=3 lb=3:    152 shell pairs

Calculating one electron integrals          ... done (  0.0 sec)
Calculating RI/J V-Matrix + Cholesky decomp.... done (  0.1 sec)
Calculating Nuclear repulsion               ... done (  0.0 sec) ENN=   2629.762704152789 Eh

Diagonalization of the overlap matrix:
Smallest eigenvalue                        ... 6.842e-05
Time for diagonalization                   ...    0.113 sec
Threshold for overlap eigenvalues          ... 1.000e-07
Number of eigenvalues below threshold      ... 0
Time for construction of square roots      ...    0.057 sec
Total time needed                          ...    0.175 sec

-------------------
DFT GRID GENERATION
-------------------

General Integration Accuracy     IntAcc      ... 4.388
Radial Grid Type                 RadialGrid  ... OptM3 with GC (2021)
Angular Grid (max. ang.)         AngularGrid ... 4 (Lebedev-302)
Angular grid pruning method      GridPruning ... 4 (adaptive)
Weight generation scheme         WeightScheme... mBecke (2022)
Basis function cutoff            BFCut       ... 1.0000e-11
Integration weight cutoff        WCut        ... 1.0000e-14
Partially contracted basis set               ... off
Rotationally invariant grid construction     ... off
Angular grids for H and He will be reduced by one unit

Total number of grid points                  ...   145490
Total number of batches                      ...     2288
Average number of points per batch           ...       63
Average number of grid points per atom       ...     6062

--------------------
COSX GRID GENERATION
--------------------

GRIDX 1
-------
General Integration Accuracy     IntAcc      ... 3.816
Radial Grid Type                 RadialGrid  ... OptM3 with GC (2021)
Angular Grid (max. ang.)         AngularGrid ... 1 (Lebedev-50)
Angular grid pruning method      GridPruning ... 4 (adaptive)
Weight generation scheme         WeightScheme... mBecke (2022)
Basis function cutoff            BFCut       ... 1.0000e-11
Integration weight cutoff        WCut        ... 1.0000e-14
Partially contracted basis set               ... on
Rotationally invariant grid construction     ... off
Angular grids for H and He will be reduced by one unit

Total number of grid points                  ...    18259
Total number of batches                      ...      153
Average number of points per batch           ...      119
Average number of grid points per atom       ...      761
UseSFitting                                  ... on

GRIDX 2
-------
General Integration Accuracy     IntAcc      ... 4.020
Radial Grid Type                 RadialGrid  ... OptM3 with GC (2021)
Angular Grid (max. ang.)         AngularGrid ... 2 (Lebedev-110)
Angular grid pruning method      GridPruning ... 4 (adaptive)
Weight generation scheme         WeightScheme... mBecke (2022)
Basis function cutoff            BFCut       ... 1.0000e-11
Integration weight cutoff        WCut        ... 1.0000e-14
Partially contracted basis set               ... on
Rotationally invariant grid construction     ... off
Angular grids for H and He will be reduced by one unit

Total number of grid points                  ...    43309
Total number of batches                      ...      351
Average number of points per batch           ...      123
Average number of grid points per atom       ...     1805
UseSFitting                                  ... on

GRIDX 3
-------
General Integration Accuracy     IntAcc      ... 4.338
Radial Grid Type                 RadialGrid  ... OptM3 with GC (2021)
Angular Grid (max. ang.)         AngularGrid ... 3 (Lebedev-194)
Angular grid pruning method      GridPruning ... 4 (adaptive)
Weight generation scheme         WeightScheme... mBecke (2022)
Basis function cutoff            BFCut       ... 1.0000e-11
Integration weight cutoff        WCut        ... 1.0000e-14
Partially contracted basis set               ... on
Rotationally invariant grid construction     ... off
Angular grids for H and He will be reduced by one unit

Total number of grid points                  ...    95993
Total number of batches                      ...      761
Average number of points per batch           ...      126
Average number of grid points per atom       ...     4000
UseSFitting                                  ... on
Initializing property integral containers    ... done (  0.0 sec)

SHARK setup successfully completed in   3.8 seconds

Maximum memory used throughout the entire STARTUP-calculation: 56.9 MB


           ************************************************************
           *        Program running with 20 parallel MPI-processes    *
           *              working on a common directory               *
           ************************************************************
-------------------------------------------------------------------------------
                                 ORCA GUESS
                   Start orbitals & Density for SCF / CASSCF
-------------------------------------------------------------------------------

------------
SCF SETTINGS
------------
Hamiltonian:
 Density Functional     Method          .... DFT(GTOs)
 Exchange Functional    Exchange        .... B88
   X-Alpha parameter    XAlpha          ....  0.666667
   Becke's b parameter  XBeta           ....  0.004200
 Correlation Functional Correlation     .... LYP
 LDA part of GGA corr.  LDAOpt          .... VWN-5
 Gradients option       PostSCFGGA      .... off
 Hybrid DFT is turned on
   Fraction HF Exchange ScalHFX         ....  0.200000
   Scaling of DF-GGA-X  ScalDFX         ....  0.720000
   Scaling of DF-GGA-C  ScalDFC         ....  0.810000
   Scaling of DF-LDA-C  ScalLDAC        ....  1.000000
   Perturbative correction              ....  0.000000
   NL short-range parameter             ....  4.800000
 RI-approximation to the Coulomb term is turned on
   Number of AuxJ basis functions       .... 1176
   RIJ-COSX (HFX calculated with COS-X)).... on


General Settings:
 Integral files         IntName         .... rf_mecn_freq_B3L_C7_D_B
 Hartree-Fock type      HFTyp           .... UHF
 Total Charge           Charge          ....   -1
 Multiplicity           Mult            ....    2
 Number of Electrons    NEL             ....  191
 Basis Dimension        Dim             ....  744
 Nuclear Repulsion      ENuc            ....   2629.7627041528 Eh

Convergence Acceleration:
 AO-DIIS                CNVDIIS         .... on
   Start iteration      DIISMaxIt       ....     0
   Startup error        DIISStart       ....  0.200000
   # of expansion vecs  DIISMaxEq       ....     5
   Bias factor          DIISBfac        ....   1.050
   Max. coefficient     DIISMaxC        ....  10.000
 MO-DIIS                CNVKDIIS        .... off
 Trust-Rad. Augm. Hess. CNVTRAH         .... auto
   Auto Start mean grad. ratio tolernc. ....  1.125000
   Auto Start start iteration           ....    50
   Auto Start num. interpolation iter.  ....    10
   Max. Number of Micro iterations      ....    24
   Max. Number of Macro iterations      .... Maxiter - #DIIS iter
   Number of Davidson start vectors     ....     2
   Converg. threshold    (grad. norm)   ....   1.000e-05
   Grad. Scal. Fac. for Micro threshold ....   0.100
   Minimum threshold for Micro iter.    ....   1.000e-02
   NR start threshold (gradient norm)   ....   1.000e-04
   Initial trust radius                 ....   0.400
   Minimum AH scaling param. (alpha)    ....   1.000
   Maximum AH scaling param. (alpha)    .... 1000.000
   Quad. conv. algorithm                .... NR
   White noise on init. David. guess    .... on
   Maximum white noise                  ....   0.010
   Pseudo random numbers                .... off
   Inactive MOs                         .... canonical
   Orbital update algorithm             .... Taylor
   Preconditioner                       .... Diag
   Full preconditioner red. dimension   ....   250
 SOSCF                  CNVSOSCF        .... on
   Start iteration      SOSCFMaxIt      ....   150
   Startup grad/error   SOSCFStart      ....  0.001000
   Hessian update       SOSCFHessUp     .... L-BFGS
 Level Shifting         CNVShift        .... on
   Level shift para.    LevelShift      ....    0.2500
   Turn off err/grad.   ShiftErr        ....    0.0000
 Zerner damping         CNVZerner       .... off
 Static damping         CNVDamp         .... on
   Fraction old density DampFac         ....    0.8500
   Max. Damping (<1)    DampMax         ....    0.9800
   Min. Damping (>=0)   DampMin         ....    0.0000
   Turn off err/grad.   DampErr         ....    0.0300

SCF Procedure:
 Maximum # iterations   MaxIter         ....  1500
 SCF integral mode      SCFMode         .... Direct
   Integral package                     .... SHARK and LIBINT hybrid scheme
 Reset frequency        DirectResetFreq ....    20
 Integral Threshold     Thresh          ....  2.500e-11 Eh
 Primitive CutOff       TCut            ....  2.500e-12 Eh

Convergence Tolerance:
 Convergence Check Mode ConvCheckMode   .... Total+1el-Energy
 Convergence forced     ConvForced      .... 0
 Energy Change          TolE            ....  1.000e-08 Eh
 1-El. energy change                    ....  1.000e-05 Eh
 Orbital Gradient       TolG            ....  1.000e-05
 Orbital Rotation angle TolX            ....  1.000e-05
 DIIS Error             TolErr          ....  5.000e-07

------------------------------
INITIAL GUESS: MODEL POTENTIAL
------------------------------
Loading Hartree-Fock densities                     ... done
Calculating cut-offs                               ... done
Initializing the effective Hamiltonian             ... done
Setting up the integral package (SHARK)            ... done
Starting the Coulomb interaction                   ... done (   0.2 sec)
Making the grid                                    ... done (   0.7 sec)
Mapping shells                                     ... done
Starting the XC term evaluation                    ... done (   0.2 sec)
  promolecular density results
     # of electrons  =    190.000317526
     EX              =   -198.263696284
     EC              =     -7.144985961
     EX+EC           =   -205.408682245
Transforming the Hamiltonian                       ... done (   0.0 sec)
Diagonalizing the Hamiltonian                      ... done (   0.1 sec)
Back transforming the eigenvectors                 ... done (   0.0 sec)
Now organizing SCF variables                       ... done
                      ------------------
                      INITIAL GUESS DONE (   1.5 sec)
                      ------------------
             **** ENERGY FILE WAS UPDATED (rf_mecn_freq_B3L_C7_D_B.en.tmp) ****
Finished Guess after   2.2 sec
Maximum memory used throughout the entire GUESS-calculation: 45.7 MB


           ************************************************************
           *        Program running with 20 parallel MPI-processes    *
           *              working on a common directory               *
           ************************************************************

-------------------------------------------------------------------------------------------
                                      ORCA LEAN-SCF
                              memory conserving SCF solver
-------------------------------------------------------------------------------------------

--------------------
CPCM SOLVATION MODEL
--------------------
CPCM parameters:
  Epsilon                                         ...      35.6880
  Refrac                                          ...       1.3442
  Rsolv                                           ...       1.3000
  Surface type                                    ... GAUSSIAN VDW
  Discretization scheme                           ... Constant charge density
    Threshold for H atoms                         ...       5.0000 (charges/Ang^2)
    Threshold for non-H atoms                     ...       5.0000 (charges/Ang^2)
  Epsilon function type                           ...         CPCM
Solvent:                                          ... ACETONITRILE
SMD-CDS solvent descriptors:
  Soln                                            ...       1.3442
  Soln25                                          ...       1.3416
  Sola                                            ...       0.0700
  Solb                                            ...       0.3200
  Solg                                            ...      41.2500
  Solc                                            ...       0.0000
  Solh                                            ...       0.0000
Radii:
  Scheme                                          ... Element-dependent radii
  Radius for C  used is    3.4960 Bohr (=   1.8500 Ang.)
  Radius for O  used is    4.0969 Bohr (=   2.1680 Ang.)
  Radius for F  used is    3.2692 Bohr (=   1.7300 Ang.)
Calculating surface                               ...        done! (  0.0s)
Cavity surface points                             ...         2162
Cavity Volume                                     ...    2109.4103
Cavity Surface-area                               ...    1104.6297
Calculating surface distance matrix               ...        done! (  0.0s)
Performing Cholesky decomposition & store         ...        done! (  0.1s)
Overall time for CPCM initialization              ...                 0.1s

----------------------------------------D-I-I-S--------------------------------------------
Iteration    Energy (Eh)           Delta-E    RMSDP     MaxDP     DIISErr   Damp  Time(sec)
-------------------------------------------------------------------------------------------
               ***  Starting incremental Fock matrix formation  ***
    1    -1852.7052013836873812     0.00e+00  2.74e-04  3.79e-02  1.68e-01  0.850   7.4
Warning: op=0 Small HOMO/LUMO gap (   0.072) - skipping pre-diagonalization
         Will do a full diagonalization
    2    -1852.8711993181650541    -1.66e-01  3.71e-04  7.79e-02  1.17e-01  0.850   5.0
                               ***Turning on AO-DIIS***
    3    -1852.9617923024661650    -9.06e-02  1.93e-04  3.88e-02  7.13e-02  0.850   4.1
    4    -1853.0164226171855262    -5.46e-02  1.02e-04  1.68e-02  5.36e-02  0.850   4.1
    5    -1853.0554036550292949    -3.90e-02  5.97e-05  6.24e-03  4.43e-02  0.850   4.1
    6    -1853.0862932994468792    -3.09e-02  4.17e-05  2.68e-03  3.79e-02  0.850   3.9
    7    -1853.1119533279816096    -2.57e-02  3.48e-05  1.97e-03  3.26e-02  0.850   3.7
    8    -1853.1335948552487025    -2.16e-02  3.07e-05  1.80e-03  2.75e-02  0.850   3.8
    9    -1853.1516386478842833    -1.80e-02  1.76e-04  1.02e-02  2.28e-02  0.000   3.8
   10    -1853.2462095817709269    -9.46e-02  1.69e-05  2.86e-03  2.88e-03  0.000   4.2
                              *** Initializing SOSCF ***
---------------------------------------S-O-S-C-F--------------------------------------
Iteration    Energy (Eh)           Delta-E    RMSDP     MaxDP     MaxGrad    Time(sec)
--------------------------------------------------------------------------------------
   11    -1853.2463393183061271    -1.30e-04  9.28e-06  1.64e-03  4.08e-04     4.1
               *** Restarting incremental Fock matrix formation ***
   12    -1853.2463091202434953     3.02e-05  6.38e-06  5.18e-04  3.51e-04     7.0
   13    -1853.2463086436719095     4.77e-07  4.51e-06  5.08e-04  3.80e-04     5.0
   14    -1853.2463129418420067    -4.30e-06  1.86e-06  1.38e-04  8.94e-05     4.7
   15    -1853.2463127219243688     2.20e-07  9.59e-07  1.14e-04  7.43e-05     4.3
   16    -1853.2463132309194407    -5.09e-07  4.69e-07  5.67e-05  1.27e-05     3.8
   17    -1853.2463132338025389    -2.88e-09  2.86e-07  4.39e-05  1.68e-05     3.8
                 **** Energy Check signals convergence ****

               *****************************************************
               *                     SUCCESS                       *
               *           SCF CONVERGED AFTER  17 CYCLES          *
               *****************************************************

Recomputing exchange energy using gridx3       ... done (    9.062 sec)
Old exchange energy                            :    -39.800141896 Eh
New exchange energy                            :    -39.800127480 Eh
Exchange energy change after final integration :      0.000014416 Eh
Total energy after final integration           :  -1853.246298818 Eh

SMD CDS free energy correction energy :                 3.17972     Kcal/mol
Total Energy after SMD CDS correction =             -1853.241231604 Eh
             **** ENERGY FILE WAS UPDATED (rf_mecn_freq_B3L_C7_D_B.en.tmp) ****

----------------
TOTAL SCF ENERGY
----------------

Total Energy       :      -1853.24123160435443 Eh          -50429.25769 eV

Components:
Nuclear Repulsion  :       2629.76270415278850 Eh           71559.48119 eV
Electronic Energy  :      -4482.92342441189703 Eh         -121986.54805 eV
One Electron Energy:      -7834.08839228700072 Eh         -213176.38283 eV
Two Electron Energy:       3351.16496787510368 Eh           91189.83478 eV
CPCM Dielectric    :         -0.08559297469405 Eh              -2.32910 eV
SMD CDS (Gcds)     :          0.00506721339579 Eh               0.13789 eV

Virial components:
Potential Energy   :      -3700.20535312116863 Eh         -100687.70652 eV
Kinetic Energy     :       1846.96412151681443 Eh           50258.44884 eV
Virial Ratio       :          2.00339860965051

DFT components:
N(Alpha)           :       95.999940756352 electrons
N(Beta)            :       94.999935518412 electrons
N(Total)           :      190.999876274764 electrons
E(X)               :     -158.618128570900 Eh       
E(C)               :       -8.380967284579 Eh       
E(XC)              :     -166.999095855479 Eh       

CPCM Solvation Model Properties:
Surface-charge          :          0.98948301211608
Corrected charge        :          1.00000000000000
Outlying charge corr.   :          0.00000607206271 Eh               0.00017 eV
Free-energy (cav+disp)  :          0.00506721339579 Eh               0.13789 eV

---------------
SCF CONVERGENCE
---------------

  Last Energy change         ...    2.8831e-09  Tolerance :   1.0000e-08
  Last MAX-Density change    ...    4.3874e-05  Tolerance :   1.0000e-07
  Last RMS-Density change    ...    2.8608e-07  Tolerance :   5.0000e-09
  Last DIIS Error            ...    4.0781e-04  Tolerance :   5.0000e-07
  Last Orbital Gradient      ...    1.6769e-05  Tolerance :   1.0000e-05
  Last Orbital Rotation      ...    2.1269e-05  Tolerance :   1.0000e-05


----------------------
UHF SPIN CONTAMINATION
----------------------

Warning: in a DFT calculation there is little theoretical justification to 
         calculate <S**2> as in Hartree-Fock theory. We will do it anyways
         but you should keep in mind that the values have only limited relevance

Expectation value of <S**2>     :     0.753982
Ideal value S*(S+1) for S=0.5   :     0.750000
Deviation                       :     0.003982

----------------
ORBITAL ENERGIES
----------------
                 SPIN UP ORBITALS
  NO   OCC          E(Eh)            E(eV) 
   0   1.0000     -24.755707      -673.6370 
   1   1.0000     -24.737942      -673.1536 
   2   1.0000     -24.737032      -673.1289 
   3   1.0000     -24.736952      -673.1267 
   4   1.0000     -24.736888      -673.1249 
   5   1.0000     -24.735316      -673.0822 
   6   1.0000     -24.733922      -673.0442 
   7   1.0000     -24.732881      -673.0159 
   8   1.0000     -24.732512      -673.0059 
   9   1.0000     -24.731183      -672.9697 
  10   1.0000     -24.722788      -672.7413 
  11   1.0000     -24.722651      -672.7375 
  12   1.0000     -24.698010      -672.0670 
  13   1.0000     -24.697873      -672.0633 
  14   1.0000     -19.061350      -518.6857 
  15   1.0000     -19.059564      -518.6371 
  16   1.0000     -10.456896      -284.5466 
  17   1.0000     -10.403337      -283.0892 
  18   1.0000     -10.398729      -282.9638 
  19   1.0000     -10.395577      -282.8780 
  20   1.0000     -10.381022      -282.4820 
  21   1.0000     -10.343278      -281.4549 
  22   1.0000     -10.325761      -280.9782 
  23   1.0000     -10.254247      -279.0322 
  24   1.0000      -1.339597       -36.4523 
  25   1.0000      -1.323287       -36.0085 
  26   1.0000      -1.306543       -35.5528 
  27   1.0000      -1.299348       -35.3570 
  28   1.0000      -1.293761       -35.2050 
  29   1.0000      -1.290153       -35.1069 
  30   1.0000      -1.262294       -34.3488 
  31   1.0000      -1.255908       -34.1750 
  32   1.0000      -1.252205       -34.0742 
  33   1.0000      -1.246265       -33.9126 
  34   1.0000      -1.245560       -33.8934 
  35   1.0000      -1.242364       -33.8065 
  36   1.0000      -1.232796       -33.5461 
  37   1.0000      -1.204568       -32.7780 
  38   1.0000      -1.024634       -27.8817 
  39   1.0000      -0.942096       -25.6357 
  40   1.0000      -0.851881       -23.1809 
  41   1.0000      -0.825723       -22.4691 
  42   1.0000      -0.791957       -21.5502 
  43   1.0000      -0.755266       -20.5518 
  44   1.0000      -0.713496       -19.4152 
  45   1.0000      -0.678246       -18.4560 
  46   1.0000      -0.668653       -18.1950 
  47   1.0000      -0.638946       -17.3866 
  48   1.0000      -0.633972       -17.2512 
  49   1.0000      -0.632810       -17.2196 
  50   1.0000      -0.622840       -16.9483 
  51   1.0000      -0.619155       -16.8481 
  52   1.0000      -0.617599       -16.8057 
  53   1.0000      -0.603322       -16.4172 
  54   1.0000      -0.599915       -16.3245 
  55   1.0000      -0.594829       -16.1861 
  56   1.0000      -0.583599       -15.8805 
  57   1.0000      -0.579619       -15.7722 
  58   1.0000      -0.574089       -15.6218 
  59   1.0000      -0.564325       -15.3561 
  60   1.0000      -0.549882       -14.9631 
  61   1.0000      -0.534582       -14.5467 
  62   1.0000      -0.504503       -13.7282 
  63   1.0000      -0.502557       -13.6753 
  64   1.0000      -0.499367       -13.5885 
  65   1.0000      -0.494295       -13.4504 
  66   1.0000      -0.490795       -13.3552 
  67   1.0000      -0.487702       -13.2710 
  68   1.0000      -0.483555       -13.1582 
  69   1.0000      -0.481161       -13.0930 
  70   1.0000      -0.473931       -12.8963 
  71   1.0000      -0.469301       -12.7703 
  72   1.0000      -0.465239       -12.6598 
  73   1.0000      -0.463108       -12.6018 
  74   1.0000      -0.458791       -12.4843 
  75   1.0000      -0.454733       -12.3739 
  76   1.0000      -0.454057       -12.3555 
  77   1.0000      -0.450145       -12.2491 
  78   1.0000      -0.445697       -12.1280 
  79   1.0000      -0.441389       -12.0108 
  80   1.0000      -0.438125       -11.9220 
  81   1.0000      -0.434594       -11.8259 
  82   1.0000      -0.433936       -11.8080 
  83   1.0000      -0.432140       -11.7591 
  84   1.0000      -0.425295       -11.5729 
  85   1.0000      -0.417240       -11.3537 
  86   1.0000      -0.411800       -11.2056 
  87   1.0000      -0.406648       -11.0654 
  88   1.0000      -0.399434       -10.8692 
  89   1.0000      -0.385031       -10.4772 
  90   1.0000      -0.380962       -10.3665 
  91   1.0000      -0.345037        -9.3889 
  92   1.0000      -0.272681        -7.4200 
  93   1.0000      -0.250451        -6.8151 
  94   1.0000      -0.238594        -6.4925 
  95   1.0000      -0.236797        -6.4436 
  96   0.0000       0.004337         0.1180 
  97   0.0000       0.011711         0.3187 
  98   0.0000       0.029079         0.7913 
  99   0.0000       0.054777         1.4906 
 100   0.0000       0.073182         1.9914 
 101   0.0000       0.091833         2.4989 
 102   0.0000       0.102767         2.7964 
 103   0.0000       0.113799         3.0966 
 104   0.0000       0.127635         3.4731 
 105   0.0000       0.129200         3.5157 
 106   0.0000       0.137491         3.7413 

                 SPIN DOWN ORBITALS
  NO   OCC          E(Eh)            E(eV) 
   0   1.0000     -24.751046      -673.5102 
   1   1.0000     -24.737909      -673.1527 
   2   1.0000     -24.736987      -673.1276 
   3   1.0000     -24.736695      -673.1197 
   4   1.0000     -24.736655      -673.1186 
   5   1.0000     -24.734681      -673.0649 
   6   1.0000     -24.733070      -673.0211 
   7   1.0000     -24.732883      -673.0160 
   8   1.0000     -24.732504      -673.0056 
   9   1.0000     -24.729812      -672.9324 
  10   1.0000     -24.722790      -672.7413 
  11   1.0000     -24.722649      -672.7375 
  12   1.0000     -24.698007      -672.0669 
  13   1.0000     -24.697873      -672.0633 
  14   1.0000     -19.061338      -518.6854 
  15   1.0000     -19.059562      -518.6370 
  16   1.0000     -10.457589      -284.5655 
  17   1.0000     -10.404170      -283.1119 
  18   1.0000     -10.398125      -282.9474 
  19   1.0000     -10.395485      -282.8755 
  20   1.0000     -10.380985      -282.4810 
  21   1.0000     -10.343263      -281.4545 
  22   1.0000     -10.311249      -280.5833 
  23   1.0000     -10.254244      -279.0322 
  24   1.0000      -1.337928       -36.4069 
  25   1.0000      -1.322775       -35.9945 
  26   1.0000      -1.305210       -35.5166 
  27   1.0000      -1.298333       -35.3294 
  28   1.0000      -1.290296       -35.1107 
  29   1.0000      -1.285312       -34.9751 
  30   1.0000      -1.262287       -34.3486 
  31   1.0000      -1.255457       -34.1627 
  32   1.0000      -1.251263       -34.0486 
  33   1.0000      -1.244874       -33.8747 
  34   1.0000      -1.243749       -33.8441 
  35   1.0000      -1.241848       -33.7924 
  36   1.0000      -1.232791       -33.5460 
  37   1.0000      -1.204566       -32.7779 
  38   1.0000      -1.024620       -27.8813 
  39   1.0000      -0.942080       -25.6353 
  40   1.0000      -0.840903       -22.8821 
  41   1.0000      -0.818876       -22.2827 
  42   1.0000      -0.787394       -21.4261 
  43   1.0000      -0.753652       -20.5079 
  44   1.0000      -0.710461       -19.3326 
  45   1.0000      -0.673517       -18.3273 
  46   1.0000      -0.668244       -18.1838 
  47   1.0000      -0.637101       -17.3364 
  48   1.0000      -0.630446       -17.1553 
  49   1.0000      -0.629999       -17.1431 
  50   1.0000      -0.622255       -16.9324 
  51   1.0000      -0.616662       -16.7802 
  52   1.0000      -0.615181       -16.7399 
  53   1.0000      -0.602405       -16.3923 
  54   1.0000      -0.599071       -16.3015 
  55   1.0000      -0.592968       -16.1355 
  56   1.0000      -0.582932       -15.8624 
  57   1.0000      -0.578052       -15.7296 
  58   1.0000      -0.573698       -15.6111 
  59   1.0000      -0.563842       -15.3429 
  60   1.0000      -0.549873       -14.9628 
  61   1.0000      -0.505976       -13.7683 
  62   1.0000      -0.502645       -13.6777 
  63   1.0000      -0.501143       -13.6368 
  64   1.0000      -0.497618       -13.5409 
  65   1.0000      -0.492478       -13.4010 
  66   1.0000      -0.489977       -13.3329 
  67   1.0000      -0.485587       -13.2135 
  68   1.0000      -0.481585       -13.1046 
  69   1.0000      -0.479787       -13.0557 
  70   1.0000      -0.472505       -12.8575 
  71   1.0000      -0.469090       -12.7646 
  72   1.0000      -0.464881       -12.6500 
  73   1.0000      -0.458785       -12.4842 
  74   1.0000      -0.458304       -12.4711 
  75   1.0000      -0.454378       -12.3642 
  76   1.0000      -0.451569       -12.2878 
  77   1.0000      -0.449176       -12.2227 
  78   1.0000      -0.445060       -12.1107 
  79   1.0000      -0.440834       -11.9957 
  80   1.0000      -0.437537       -11.9060 
  81   1.0000      -0.433782       -11.8038 
  82   1.0000      -0.432981       -11.7820 
  83   1.0000      -0.431854       -11.7514 
  84   1.0000      -0.423634       -11.5277 
  85   1.0000      -0.415762       -11.3135 
  86   1.0000      -0.411795       -11.2055 
  87   1.0000      -0.404976       -11.0200 
  88   1.0000      -0.399405       -10.8684 
  89   1.0000      -0.385015       -10.4768 
  90   1.0000      -0.378925       -10.3111 
  91   1.0000      -0.343562        -9.3488 
  92   1.0000      -0.250444        -6.8149 
  93   1.0000      -0.238677        -6.4947 
  94   1.0000      -0.236800        -6.4436 
  95   0.0000      -0.126520        -3.4428 
  96   0.0000       0.006518         0.1774 
  97   0.0000       0.015417         0.4195 
  98   0.0000       0.032833         0.8934 
  99   0.0000       0.057708         1.5703 
 100   0.0000       0.078596         2.1387 
 101   0.0000       0.093666         2.5488 
 102   0.0000       0.103815         2.8250 
 103   0.0000       0.113951         3.1008 
 104   0.0000       0.131784         3.5860 
 105   0.0000       0.135896         3.6979 
*Only the first 10 virtual orbitals were printed.

                    ********************************
                    * MULLIKEN POPULATION ANALYSIS *
                    ********************************

--------------------------------------------
MULLIKEN ATOMIC CHARGES AND SPIN POPULATIONS
--------------------------------------------
   0 C :    0.143370    0.000161
   1 O :   -0.472501    0.000410
   2 O :   -0.486311    0.000095
   3 C :    0.342444    0.000451
   4 C :    0.317776    0.001797
   5 C :    0.326406    0.004322
   6 C :    0.319431    0.028304
   7 C :    0.380781   -0.011165
   8 C :    0.136835    0.831554
   9 C :    0.490111   -0.009644
  10 F :   -0.211896   -0.000003
  11 F :   -0.218275    0.000059
  12 F :   -0.184789    0.000011
  13 F :   -0.191978    0.000061
  14 F :   -0.177135   -0.000054
  15 F :   -0.176780    0.000167
  16 F :   -0.175922    0.000661
  17 F :   -0.176122    0.000463
  18 F :   -0.176326    0.016112
  19 F :   -0.174018    0.005473
  20 F :   -0.139126    0.089879
  21 F :   -0.169644    0.025689
  22 F :   -0.160962    0.003772
  23 F :   -0.165368    0.011426
Sum of atomic charges         :   -1.0000000
Sum of atomic spin populations:    1.0000000

-----------------------------------------------------
MULLIKEN REDUCED ORBITAL CHARGES AND SPIN POPULATIONS
-----------------------------------------------------
CHARGE
  0 C s       :     3.049653  s :     3.049653
      pz      :     0.848730  p :     2.538428
      px      :     0.870503
      py      :     0.819196
      dz2     :     0.032572  d :     0.243744
      dxz     :     0.022736
      dyz     :     0.062836
      dx2y2   :     0.052739
      dxy     :     0.072861
      f0      :     0.002738  f :     0.024804
      f+1     :     0.001780
      f-1     :     0.003120
      f+2     :     0.005358
      f-2     :     0.002358
      f+3     :     0.005151
      f-3     :     0.004299

  1 O s       :     3.764951  s :     3.764951
      pz      :     1.497445  p :     4.678722
      px      :     1.580486
      py      :     1.600791
      dz2     :     0.006011  d :     0.027163
      dxz     :     0.003940
      dyz     :     0.006342
      dx2y2   :     0.004887
      dxy     :     0.005982
      f0      :     0.000139  f :     0.001665
      f+1     :     0.000135
      f-1     :     0.000347
      f+2     :     0.000263
      f-2     :     0.000316
      f+3     :     0.000216
      f-3     :     0.000249

  2 O s       :     3.765354  s :     3.765354
      pz      :     1.641581  p :     4.692292
      px      :     1.680942
      py      :     1.369768
      dz2     :     0.002858  d :     0.027018
      dxz     :     0.000461
      dyz     :     0.007968
      dx2y2   :     0.008224
      dxy     :     0.007507
      f0      :     0.000192  f :     0.001647
      f+1     :     0.000029
      f-1     :     0.000239
      f+2     :     0.000303
      f-2     :     0.000055
      f+3     :     0.000437
      f-3     :     0.000393

  3 C s       :     3.137623  s :     3.137623
      pz      :     0.676775  p :     2.247016
      px      :     0.947334
      py      :     0.622907
      dz2     :     0.045275  d :     0.246669
      dxz     :     0.045131
      dyz     :     0.065213
      dx2y2   :     0.039466
      dxy     :     0.051583
      f0      :     0.005470  f :     0.026248
      f+1     :     0.004196
      f-1     :     0.004274
      f+2     :     0.003792
      f-2     :     0.001378
      f+3     :     0.004775
      f-3     :     0.002364

  4 C s       :     3.153209  s :     3.153209
      pz      :     0.620020  p :     2.226850
      px      :     0.937319
      py      :     0.669511
      dz2     :     0.051049  d :     0.274564
      dxz     :     0.057927
      dyz     :     0.069334
      dx2y2   :     0.040135
      dxy     :     0.056119
      f0      :     0.004189  f :     0.027602
      f+1     :     0.005137
      f-1     :     0.007282
      f+2     :     0.002318
      f-2     :     0.001767
      f+3     :     0.004232
      f-3     :     0.002676

  5 C s       :     3.156451  s :     3.156451
      pz      :     0.601877  p :     2.209114
      px      :     0.911877
      py      :     0.695360
      dz2     :     0.065497  d :     0.280187
      dxz     :     0.056870
      dyz     :     0.064416
      dx2y2   :     0.035955
      dxy     :     0.057449
      f0      :     0.004176  f :     0.027842
      f+1     :     0.004366
      f-1     :     0.007648
      f+2     :     0.002564
      f-2     :     0.003400
      f+3     :     0.003231
      f-3     :     0.002457

  6 C s       :     3.151140  s :     3.151140
      pz      :     0.573900  p :     2.217868
      px      :     0.929684
      py      :     0.714285
      dz2     :     0.075873  d :     0.283595
      dxz     :     0.061329
      dyz     :     0.054025
      dx2y2   :     0.035669
      dxy     :     0.056699
      f0      :     0.005706  f :     0.027966
      f+1     :     0.004104
      f-1     :     0.005173
      f+2     :     0.003767
      f-2     :     0.004934
      f+3     :     0.002261
      f-3     :     0.002020

  7 C s       :     3.080559  s :     3.080559
      pz      :     0.582258  p :     2.218151
      px      :     0.911633
      py      :     0.724259
      dz2     :     0.077467  d :     0.292856
      dxz     :     0.062311
      dyz     :     0.052611
      dx2y2   :     0.046160
      dxy     :     0.054308
      f0      :     0.005899  f :     0.027653
      f+1     :     0.003486
      f-1     :     0.004757
      f+2     :     0.004173
      f-2     :     0.004901
      f+3     :     0.002492
      f-3     :     0.001946

  8 C s       :     3.232665  s :     3.232665
      pz      :     0.643604  p :     2.470659
      px      :     0.876546
      py      :     0.950509
      dz2     :     0.032971  d :     0.142235
      dxz     :     0.049313
      dyz     :     0.029827
      dx2y2   :     0.013452
      dxy     :     0.016673
      f0      :     0.004194  f :     0.017607
      f+1     :     0.003791
      f-1     :     0.003155
      f+2     :     0.001995
      f-2     :     0.002012
      f+3     :     0.001217
      f-3     :     0.001241

  9 C s       :     3.005199  s :     3.005199
      pz      :     0.733277  p :     2.122152
      px      :     0.745999
      py      :     0.642877
      dz2     :     0.061062  d :     0.342733
      dxz     :     0.063032
      dyz     :     0.077799
      dx2y2   :     0.075898
      dxy     :     0.064942
      f0      :     0.006530  f :     0.039805
      f+1     :     0.004512
      f-1     :     0.005569
      f+2     :     0.004182
      f-2     :     0.006521
      f+3     :     0.004816
      f-3     :     0.007675

 10 F s       :     3.908517  s :     3.908517
      pz      :     1.903237  p :     5.287421
      px      :     1.913850
      py      :     1.470334
      dz2     :     0.002171  d :     0.015295
      dxz     :     0.000198
      dyz     :     0.003014
      dx2y2   :     0.006253
      dxy     :     0.003659
      f0      :     0.000052  f :     0.000664
      f+1     :     0.000012
      f-1     :     0.000137
      f+2     :     0.000090
      f-2     :     0.000004
      f+3     :     0.000146
      f-3     :     0.000221

 11 F s       :     3.909507  s :     3.909507
      pz      :     1.500047  p :     5.293112
      px      :     1.911616
      py      :     1.881449
      dz2     :     0.007012  d :     0.015000
      dxz     :     0.003571
      dyz     :     0.003587
      dx2y2   :     0.000433
      dxy     :     0.000398
      f0      :     0.000258  f :     0.000656
      f+1     :     0.000144
      f-1     :     0.000183
      f+2     :     0.000036
      f-2     :     0.000031
      f+3     :     0.000002
      f-3     :     0.000003

 12 F s       :     3.912800  s :     3.912800
      pz      :     1.859884  p :     5.255142
      px      :     1.904639
      py      :     1.490619
      dz2     :     0.002107  d :     0.016148
      dxz     :     0.000414
      dyz     :     0.004201
      dx2y2   :     0.005660
      dxy     :     0.003767
      f0      :     0.000071  f :     0.000700
      f+1     :     0.000008
      f-1     :     0.000119
      f+2     :     0.000144
      f-2     :     0.000036
      f+3     :     0.000142
      f-3     :     0.000180

 13 F s       :     3.915122  s :     3.915122
      pz      :     1.450904  p :     5.260247
      px      :     1.913027
      py      :     1.896316
      dz2     :     0.008647  d :     0.015921
      dxz     :     0.003769
      dyz     :     0.003179
      dx2y2   :     0.000200
      dxy     :     0.000127
      f0      :     0.000368  f :     0.000689
      f+1     :     0.000161
      f-1     :     0.000147
      f+2     :     0.000006
      f-2     :     0.000004
      f+3     :     0.000001
      f-3     :     0.000001

 14 F s       :     3.914923  s :     3.914923
      pz      :     1.781345  p :     5.245158
      px      :     1.907743
      py      :     1.556070
      dz2     :     0.002159  d :     0.016349
      dxz     :     0.001006
      dyz     :     0.005861
      dx2y2   :     0.004270
      dxy     :     0.003054
      f0      :     0.000080  f :     0.000704
      f+1     :     0.000004
      f-1     :     0.000138
      f+2     :     0.000204
      f-2     :     0.000078
      f+3     :     0.000092
      f-3     :     0.000109

 15 F s       :     3.914822  s :     3.914822
      pz      :     1.477020  p :     5.244882
      px      :     1.899503
      py      :     1.868359
      dz2     :     0.007768  d :     0.016369
      dxz     :     0.003888
      dyz     :     0.003866
      dx2y2   :     0.000382
      dxy     :     0.000465
      f0      :     0.000299  f :     0.000707
      f+1     :     0.000158
      f-1     :     0.000184
      f+2     :     0.000026
      f-2     :     0.000036
      f+3     :     0.000002
      f-3     :     0.000002

 16 F s       :     3.916271  s :     3.916271
      pz      :     1.661672  p :     5.242551
      px      :     1.905672
      py      :     1.675206
      dz2     :     0.003295  d :     0.016393
      dxz     :     0.002005
      dyz     :     0.006620
      dx2y2   :     0.002391
      dxy     :     0.002084
      f0      :     0.000087  f :     0.000706
      f+1     :     0.000027
      f-1     :     0.000229
      f+2     :     0.000175
      f-2     :     0.000109
      f+3     :     0.000040
      f-3     :     0.000040

 17 F s       :     3.917379  s :     3.917379
      pz      :     1.547711  p :     5.241625
      px      :     1.906280
      py      :     1.787634
      dz2     :     0.005643  d :     0.016413
      dxz     :     0.002974
      dyz     :     0.005655
      dx2y2   :     0.001035
      dxy     :     0.001106
      f0      :     0.000171  f :     0.000705
      f+1     :     0.000081
      f-1     :     0.000266
      f+2     :     0.000087
      f-2     :     0.000081
      f+3     :     0.000010
      f-3     :     0.000008

 18 F s       :     3.916392  s :     3.916392
      pz      :     1.630539  p :     5.243481
      px      :     1.900282
      py      :     1.712661
      dz2     :     0.003679  d :     0.015775
      dxz     :     0.002311
      dyz     :     0.006221
      dx2y2   :     0.001814
      dxy     :     0.001750
      f0      :     0.000092  f :     0.000678
      f+1     :     0.000046
      f-1     :     0.000234
      f+2     :     0.000140
      f-2     :     0.000110
      f+3     :     0.000029
      f-3     :     0.000027

 19 F s       :     3.918175  s :     3.918175
      pz      :     1.578644  p :     5.238962
      px      :     1.905860
      py      :     1.754459
      dz2     :     0.004731  d :     0.016186
      dxz     :     0.002582
      dyz     :     0.006072
      dx2y2   :     0.001377
      dxy     :     0.001424
      f0      :     0.000128  f :     0.000695
      f+1     :     0.000061
      f-1     :     0.000264
      f+2     :     0.000115
      f-2     :     0.000094
      f+3     :     0.000018
      f-3     :     0.000015

 20 F s       :     3.916655  s :     3.916655
      pz      :     1.506722  p :     5.203451
      px      :     1.879686
      py      :     1.817043
      dz2     :     0.007238  d :     0.018239
      dxz     :     0.004249
      dyz     :     0.005434
      dx2y2   :     0.000690
      dxy     :     0.000628
      f0      :     0.000259  f :     0.000782
      f+1     :     0.000172
      f-1     :     0.000227
      f+2     :     0.000060
      f-2     :     0.000057
      f+3     :     0.000004
      f-3     :     0.000003

 21 F s       :     3.910869  s :     3.910869
      pz      :     1.883989  p :     5.242256
      px      :     1.773581
      py      :     1.584686
      dz2     :     0.002230  d :     0.015800
      dxz     :     0.001279
      dyz     :     0.002578
      dx2y2   :     0.003902
      dxy     :     0.005811
      f0      :     0.000064  f :     0.000719
      f+1     :     0.000044
      f-1     :     0.000105
      f+2     :     0.000035
      f-2     :     0.000098
      f+3     :     0.000236
      f-3     :     0.000136

 22 F s       :     3.911237  s :     3.911237
      pz      :     1.855532  p :     5.232546
      px      :     1.699758
      py      :     1.677256
      dz2     :     0.002173  d :     0.016425
      dxz     :     0.002485
      dyz     :     0.002683
      dx2y2   :     0.003128
      dxy     :     0.005956
      f0      :     0.000081  f :     0.000754
      f+1     :     0.000066
      f-1     :     0.000067
      f+2     :     0.000040
      f-2     :     0.000172
      f+3     :     0.000169
      f-3     :     0.000159

 23 F s       :     3.912445  s :     3.912445
      pz      :     1.536382  p :     5.236025
      px      :     1.841679
      py      :     1.857964
      dz2     :     0.005892  d :     0.016162
      dxz     :     0.004790
      dyz     :     0.003703
      dx2y2   :     0.000748
      dxy     :     0.001030
      f0      :     0.000174  f :     0.000736
      f+1     :     0.000220
      f-1     :     0.000156
      f+2     :     0.000068
      f-2     :     0.000098
      f+3     :     0.000010
      f-3     :     0.000009


SPIN
  0 C s       :     0.000162  s :     0.000162
      pz      :     0.000014  p :     0.000003
      px      :     0.000014
      py      :    -0.000025
      dz2     :     0.000001  d :    -0.000005
      dxz     :     0.000001
      dyz     :     0.000002
      dx2y2   :    -0.000012
      dxy     :     0.000002
      f0      :    -0.000000  f :     0.000002
      f+1     :     0.000000
      f-1     :     0.000000
      f+2     :     0.000000
      f-2     :     0.000001
      f+3     :     0.000001
      f-3     :     0.000000

  1 O s       :     0.000005  s :     0.000005
      pz      :     0.000211  p :     0.000406
      px      :     0.000104
      py      :     0.000092
      dz2     :    -0.000000  d :    -0.000001
      dxz     :    -0.000001
      dyz     :     0.000000
      dx2y2   :    -0.000000
      dxy     :    -0.000000
      f0      :    -0.000000  f :    -0.000000
      f+1     :     0.000000
      f-1     :    -0.000000
      f+2     :    -0.000000
      f-2     :    -0.000000
      f+3     :    -0.000000
      f-3     :    -0.000000

  2 O s       :    -0.000007  s :    -0.000007
      pz      :     0.000078  p :     0.000103
      px      :    -0.000035
      py      :     0.000059
      dz2     :     0.000000  d :    -0.000000
      dxz     :    -0.000000
      dyz     :    -0.000000
      dx2y2   :    -0.000000
      dxy     :     0.000000
      f0      :    -0.000000  f :     0.000000
      f+1     :    -0.000000
      f-1     :    -0.000000
      f+2     :    -0.000000
      f-2     :    -0.000000
      f+3     :     0.000000
      f-3     :     0.000000

  3 C s       :    -0.000140  s :    -0.000140
      pz      :    -0.000039  p :     0.000540
      px      :     0.000585
      py      :    -0.000006
      dz2     :    -0.000003  d :     0.000050
      dxz     :     0.000001
      dyz     :    -0.000002
      dx2y2   :     0.000040
      dxy     :     0.000014
      f0      :    -0.000000  f :     0.000002
      f+1     :    -0.000000
      f-1     :     0.000000
      f+2     :     0.000000
      f-2     :     0.000001
      f+3     :     0.000001
      f-3     :     0.000000

  4 C s       :    -0.000115  s :    -0.000115
      pz      :     0.000113  p :     0.001695
      px      :     0.000858
      py      :     0.000725
      dz2     :     0.000023  d :     0.000208
      dxz     :    -0.000003
      dyz     :     0.000003
      dx2y2   :     0.000142
      dxy     :     0.000043
      f0      :    -0.000001  f :     0.000009
      f+1     :     0.000000
      f-1     :    -0.000000
      f+2     :     0.000002
      f-2     :     0.000003
      f+3     :     0.000006
      f-3     :    -0.000000

  5 C s       :    -0.001819  s :    -0.001819
      pz      :     0.000093  p :     0.005600
      px      :     0.001963
      py      :     0.003544
      dz2     :     0.000053  d :     0.000516
      dxz     :    -0.000006
      dyz     :    -0.000004
      dx2y2   :     0.000434
      dxy     :     0.000039
      f0      :    -0.000001  f :     0.000024
      f+1     :     0.000001
      f-1     :     0.000001
      f+2     :     0.000001
      f-2     :    -0.000001
      f+3     :     0.000023
      f-3     :     0.000001

  6 C s       :    -0.002746  s :    -0.002746
      pz      :     0.001224  p :     0.028064
      px      :     0.015156
      py      :     0.011683
      dz2     :     0.000391  d :     0.002999
      dxz     :     0.000037
      dyz     :    -0.000026
      dx2y2   :     0.002200
      dxy     :     0.000396
      f0      :    -0.000009  f :    -0.000013
      f+1     :     0.000008
      f-1     :    -0.000010
      f+2     :    -0.000005
      f-2     :    -0.000003
      f+3     :     0.000018
      f-3     :    -0.000012

  7 C s       :    -0.007675  s :    -0.007675
      pz      :    -0.003568  p :    -0.026833
      px      :    -0.016355
      py      :    -0.006910
      dz2     :     0.000867  d :     0.022048
      dxz     :     0.001025
      dyz     :     0.000011
      dx2y2   :     0.015044
      dxy     :     0.005101
      f0      :     0.000041  f :     0.001296
      f+1     :     0.000041
      f-1     :     0.000165
      f+2     :     0.000074
      f-2     :     0.000015
      f+3     :     0.000968
      f-3     :    -0.000008

  8 C s       :     0.047896  s :     0.047896
      pz      :     0.048017  p :     0.781451
      px      :     0.146855
      py      :     0.586579
      dz2     :     0.000907  d :     0.004082
      dxz     :     0.001740
      dyz     :     0.002147
      dx2y2   :    -0.000263
      dxy     :    -0.000449
      f0      :    -0.000246  f :    -0.001875
      f+1     :    -0.000128
      f-1     :    -0.000336
      f+2     :    -0.000262
      f-2     :    -0.000157
      f+3     :    -0.000197
      f-3     :    -0.000549

  9 C s       :    -0.012842  s :    -0.012842
      pz      :    -0.010023  p :    -0.013288
      px      :    -0.012215
      py      :     0.008950
      dz2     :     0.002045  d :     0.014716
      dxz     :     0.000117
      dyz     :     0.004962
      dx2y2   :     0.000207
      dxy     :     0.007385
      f0      :     0.000058  f :     0.001771
      f+1     :     0.000097
      f-1     :     0.000156
      f+2     :     0.000168
      f-2     :     0.000815
      f+3     :     0.000213
      f-3     :     0.000264

 10 F s       :     0.000009  s :     0.000009
      pz      :    -0.000002  p :    -0.000014
      px      :    -0.000005
      py      :    -0.000007
      dz2     :     0.000000  d :     0.000002
      dxz     :    -0.000000
      dyz     :    -0.000000
      dx2y2   :     0.000000
      dxy     :     0.000001
      f0      :    -0.000000  f :     0.000000
      f+1     :     0.000000
      f-1     :     0.000000
      f+2     :    -0.000000
      f-2     :    -0.000000
      f+3     :     0.000000
      f-3     :     0.000000

 11 F s       :     0.000003  s :     0.000003
      pz      :    -0.000010  p :     0.000055
      px      :     0.000059
      py      :     0.000006
      dz2     :     0.000000  d :     0.000001
      dxz     :     0.000001
      dyz     :    -0.000000
      dx2y2   :    -0.000000
      dxy     :    -0.000000
      f0      :    -0.000000  f :     0.000000
      f+1     :     0.000000
      f-1     :    -0.000000
      f+2     :    -0.000000
      f-2     :     0.000000
      f+3     :    -0.000000
      f-3     :    -0.000000

 12 F s       :     0.000035  s :     0.000035
      pz      :     0.000006  p :    -0.000028
      px      :    -0.000003
      py      :    -0.000030
      dz2     :     0.000000  d :     0.000004
      dxz     :     0.000000
      dyz     :     0.000000
      dx2y2   :     0.000002
      dxy     :     0.000000
      f0      :    -0.000000  f :     0.000000
      f+1     :    -0.000000
      f-1     :     0.000000
      f+2     :     0.000000
      f-2     :     0.000000
      f+3     :     0.000000
      f-3     :     0.000000

 13 F s       :     0.000003  s :     0.000003
      pz      :    -0.000028  p :     0.000055
      px      :     0.000025
      py      :     0.000058
      dz2     :     0.000000  d :     0.000003
      dxz     :     0.000002
      dyz     :     0.000000
      dx2y2   :     0.000000
      dxy     :     0.000000
      f0      :    -0.000000  f :     0.000000
      f+1     :     0.000000
      f-1     :     0.000000
      f+2     :     0.000000
      f-2     :    -0.000000
      f+3     :     0.000000
      f-3     :    -0.000000

 14 F s       :    -0.000011  s :    -0.000011
      pz      :     0.000029  p :    -0.000053
      px      :     0.000009
      py      :    -0.000091
      dz2     :     0.000001  d :     0.000010
      dxz     :     0.000001
      dyz     :     0.000000
      dx2y2   :     0.000006
      dxy     :     0.000003
      f0      :     0.000000  f :     0.000000
      f+1     :    -0.000000
      f-1     :    -0.000000
      f+2     :     0.000000
      f-2     :     0.000000
      f+3     :     0.000000
      f-3     :     0.000000

 15 F s       :     0.000019  s :     0.000019
      pz      :    -0.000055  p :     0.000137
      px      :    -0.000004
      py      :     0.000196
      dz2     :     0.000000  d :     0.000011
      dxz     :     0.000006
      dyz     :     0.000000
      dx2y2   :     0.000001
      dxy     :     0.000004
      f0      :    -0.000000  f :     0.000000
      f+1     :     0.000000
      f-1     :    -0.000000
      f+2     :    -0.000000
      f-2     :     0.000000
[...]
  7:     19.22   0.000432    2.18  0.007012  ( 0.030088 -0.064594  0.043983)
  8:     24.76   0.000091    0.46  0.001141  (-0.004867 -0.004861 -0.033071)
  9:     32.01   0.000431    2.18  0.004199  (-0.018546 -0.043165 -0.044632)
 10:     38.33   0.000089    0.45  0.000725  (-0.012621 -0.012001 -0.020542)
 11:     52.44   0.000209    1.06  0.001245  (-0.005890  0.033553  0.009181)
 12:     59.32   0.000030    0.15  0.000158  (-0.005726 -0.003103 -0.010730)
 13:     68.45   0.000461    2.33  0.002100  ( 0.022468 -0.031168  0.024968)
 14:     98.16   0.000398    2.01  0.001264  ( 0.025180 -0.015173  0.019987)
 15:    127.84   0.001176    5.94  0.002871  (-0.042818 -0.006323 -0.031585)
 16:    151.18   0.000286    1.45  0.000590  (-0.020993  0.011289  0.004714)
 17:    166.61   0.001238    6.25  0.002318  (-0.027206 -0.002587  0.039636)
 18:    195.58   0.000510    2.58  0.000814  ( 0.021853 -0.005905 -0.017378)
 19:    196.19   0.001777    8.98  0.002827  ( 0.019668  0.020559  0.044912)
 20:    211.57   0.000098    0.50  0.000145  ( 0.006342  0.007692 -0.006770)
 21:    228.42   0.000201    1.02  0.000275  ( 0.012802 -0.010526  0.000418)
 22:    247.44   0.000073    0.37  0.000091  ( 0.004299 -0.004225 -0.007425)
 23:    251.38   0.000036    0.18  0.000045  ( 0.002854 -0.002174 -0.005690)
 24:    262.60   0.000264    1.33  0.000313  (-0.009888  0.000899 -0.014653)
 25:    274.86   0.000369    1.86  0.000419  (-0.019639  0.001316 -0.005590)
 26:    302.63   0.000379    1.92  0.000391  ( 0.017541 -0.007701 -0.004918)
 27:    311.17   0.000198    1.00  0.000199  (-0.010850  0.008931  0.001101)
 28:    323.13   0.000037    0.19  0.000036  ( 0.002124  0.000252 -0.005571)
 29:    347.87   0.000223    1.13  0.000200  ( 0.012463 -0.000730  0.006622)
 30:    350.23   0.000291    1.47  0.000259  ( 0.007300  0.002296  0.014153)
 31:    361.75   0.000111    0.56  0.000096  ( 0.009701 -0.001404 -0.000187)
 32:    368.54   0.000725    3.67  0.000614  ( 0.024535 -0.000535  0.003473)
 33:    370.97   0.000020    0.10  0.000017  ( 0.003970  0.000756  0.000642)
 34:    403.00   0.000833    4.21  0.000645  ( 0.025271  0.001599  0.001894)
 35:    430.84   0.001503    7.60  0.001089  ( 0.032847 -0.002917  0.001223)
 36:    465.70   0.000822    4.16  0.000551  (-0.010017 -0.012358 -0.017260)
 37:    493.95   0.005203   26.29  0.003287  (-0.054893  0.016512  0.001081)
 38:    534.26   0.003208   16.21  0.001874  ( 0.040222 -0.005308  0.015089)
 39:    546.31   0.009900   50.03  0.005655  (-0.074797  0.006782 -0.003774)
 40:    550.38   0.004367   22.07  0.002476  ( 0.029532 -0.033613  0.021770)
 41:    563.55   0.005517   27.88  0.003055  ( 0.041492  0.032616 -0.016424)
 42:    577.20   0.000977    4.94  0.000528  ( 0.014526 -0.015113 -0.009432)
 43:    598.81   0.000755    3.82  0.000394  (-0.016645 -0.010595  0.002070)
 44:    626.88   0.002578   13.03  0.001284  ( 0.028277 -0.012336  0.018214)
 45:    650.85   0.049657  250.95  0.023809  ( 0.153484  0.015441 -0.003657)
 46:    668.32   0.000392    1.98  0.000183  ( 0.010701 -0.008063  0.001884)
 47:    712.47   0.000999    5.05  0.000438  (-0.016016 -0.005034  0.012485)
 48:    714.99   0.003470   17.54  0.001515  (-0.027965  0.013887 -0.023232)
 49:    768.86   0.002805   14.17  0.001138  (-0.030201  0.000805  0.015019)
 50:    792.20   0.020788  105.05  0.008189  (-0.057423 -0.033201  0.061556)
 51:    875.21   0.004512   22.80  0.001609  (-0.039467  0.004962 -0.005155)
 52:    993.43   0.018875   95.39  0.005929  ( 0.052587 -0.029214  0.048066)
 53:   1054.58   0.020308  102.63  0.006010  ( 0.053006  0.054290  0.015889)
 54:   1070.13   0.080955  409.11  0.023607  (-0.045268 -0.144235  0.027466)
 55:   1085.14   0.053691  271.33  0.015440  ( 0.012257  0.092368  0.082209)
 56:   1107.40   0.068040  343.85  0.019174  ( 0.021943 -0.100537  0.092652)
 57:   1113.29   0.005099   25.77  0.001429  (-0.017928  0.026693  0.019884)
 58:   1118.29   0.067314  340.18  0.018784  (-0.007504 -0.129547  0.044108)
 59:   1130.50   0.018297   92.46  0.005051  ( 0.003188  0.062385  0.033890)
 60:   1140.51   0.087444  441.91  0.023926  ( 0.006472 -0.023550 -0.152741)
 61:   1146.75   0.095620  483.22  0.026021  ( 0.039231  0.046385  0.149433)
 62:   1151.88   0.106219  536.79  0.028777  ( 0.057592 -0.075731 -0.140444)
 63:   1159.54   0.002310   11.68  0.000622  (-0.002414 -0.024592  0.003351)
 64:   1196.11   0.015295   77.29  0.003990  ( 0.002117 -0.004196  0.062995)
 65:   1203.62   0.002482   12.55  0.000644  (-0.011797 -0.007835 -0.021049)
 66:   1257.15   0.002892   14.62  0.000718  ( 0.013759 -0.016925 -0.015563)
 67:   1287.84   0.007272   36.75  0.001762  ( 0.036619  0.020198 -0.003634)
 68:   1327.18   0.039020  197.19  0.009175  ( 0.068504 -0.054384  0.039044)
 69:   1369.53   0.059472  300.55  0.013551  ( 0.105242  0.025178 -0.042913)
 70:   1412.44   0.012808   64.73  0.002830  ( 0.045818 -0.015359 -0.022239)
 71:   1731.09   0.161611  816.72  0.029134  ( 0.034161 -0.154203 -0.064716)

* The epsilon (eps) is given for a Dirac delta lineshape.
** The dipole moment derivative (T) already includes vibrational overlap.

The first frequency considered to be a vibration is 6
The total number of vibrations considered is 66


--------------------------
THERMOCHEMISTRY AT 298.15K
--------------------------

Temperature         ...   298.15 K
Pressure            ...     1.00 atm
Total Mass          ...   394.06 AMU
Quasi RRHO          ...     True
Cut-Off Frequency   ...     1.00 cm^-1

Throughout the following assumptions are being made:
  (1) The electronic state is orbitally nondegenerate
      but the spin degeneracy is treated
  (2) There are no thermally accessible electronically excited states
  (3) Hindered rotations indicated by low frequency modes are not
      treated as such but are treated as vibrations and this may
      cause some error
  (4) All equations used are the standard statistical mechanics
      equations for an ideal gas
  (5) All vibrations are strictly harmonic

freq.       9.43  E(vib)   ...       0.58 
freq.      19.22  E(vib)   ...       0.57 
freq.      24.76  E(vib)   ...       0.56 
freq.      32.01  E(vib)   ...       0.55 
freq.      38.33  E(vib)   ...       0.54 
freq.      52.44  E(vib)   ...       0.52 
freq.      59.32  E(vib)   ...       0.51 
freq.      68.45  E(vib)   ...       0.50 
freq.      98.16  E(vib)   ...       0.46 
freq.     127.84  E(vib)   ...       0.43 
freq.     151.18  E(vib)   ...       0.40 
freq.     166.61  E(vib)   ...       0.39 
freq.     195.58  E(vib)   ...       0.36 
freq.     196.19  E(vib)   ...       0.36 
freq.     211.57  E(vib)   ...       0.34 
freq.     228.42  E(vib)   ...       0.32 
freq.     247.44  E(vib)   ...       0.31 
freq.     251.38  E(vib)   ...       0.30 
freq.     262.60  E(vib)   ...       0.29 
freq.     274.86  E(vib)   ...       0.28 
freq.     302.63  E(vib)   ...       0.26 
freq.     311.17  E(vib)   ...       0.26 
freq.     323.13  E(vib)   ...       0.25 
freq.     347.87  E(vib)   ...       0.23 
freq.     350.23  E(vib)   ...       0.23 
freq.     361.75  E(vib)   ...       0.22 
freq.     368.54  E(vib)   ...       0.21 
freq.     370.97  E(vib)   ...       0.21 
freq.     403.00  E(vib)   ...       0.19 
freq.     430.84  E(vib)   ...       0.18 
freq.     465.70  E(vib)   ...       0.16 
freq.     493.95  E(vib)   ...       0.14 
freq.     534.26  E(vib)   ...       0.13 
freq.     546.31  E(vib)   ...       0.12 
freq.     550.38  E(vib)   ...       0.12 
freq.     563.55  E(vib)   ...       0.11 
freq.     577.20  E(vib)   ...       0.11 
freq.     598.81  E(vib)   ...       0.10 
freq.     626.88  E(vib)   ...       0.09 
freq.     650.85  E(vib)   ...       0.08 
freq.     668.32  E(vib)   ...       0.08 
freq.     712.47  E(vib)   ...       0.07 
freq.     714.99  E(vib)   ...       0.07 
freq.     768.86  E(vib)   ...       0.06 
freq.     792.20  E(vib)   ...       0.05 
freq.     875.21  E(vib)   ...       0.04 
freq.     993.43  E(vib)   ...       0.02 
freq.    1054.58  E(vib)   ...       0.02 
freq.    1070.13  E(vib)   ...       0.02 
freq.    1085.14  E(vib)   ...       0.02 
freq.    1107.40  E(vib)   ...       0.02 
freq.    1113.29  E(vib)   ...       0.01 
freq.    1118.29  E(vib)   ...       0.01 
freq.    1130.50  E(vib)   ...       0.01 
freq.    1140.51  E(vib)   ...       0.01 
freq.    1146.75  E(vib)   ...       0.01 
freq.    1151.88  E(vib)   ...       0.01 
freq.    1159.54  E(vib)   ...       0.01 
freq.    1196.11  E(vib)   ...       0.01 
freq.    1203.62  E(vib)   ...       0.01 
freq.    1257.15  E(vib)   ...       0.01 
freq.    1287.84  E(vib)   ...       0.01 
freq.    1327.18  E(vib)   ...       0.01 
freq.    1369.53  E(vib)   ...       0.01 
freq.    1412.44  E(vib)   ...       0.00 
freq.    1731.09  E(vib)   ...       0.00 

------------
INNER ENERGY
------------

The inner energy is: U= E(el) + E(ZPE) + E(vib) + E(rot) + E(trans)
    E(el)   - is the total energy from the electronic structure calculation
              = E(kin-el) + E(nuc-el) + E(el-el) + E(nuc-nuc)
    E(ZPE)  - the the zero temperature vibrational energy from the frequency calculation
    E(vib)  - the the finite temperature correction to E(ZPE) due to population
              of excited vibrational states
    E(rot)  - is the rotational thermal energy
    E(trans)- is the translational thermal energy

Summary of contributions to the inner energy U:
Electronic energy                ...  -1853.28322305 Eh
Zero point energy                ...      0.09222540 Eh      57.87 kcal/mol
Thermal vibrational correction   ...      0.02001882 Eh      12.56 kcal/mol
Thermal rotational correction    ...      0.00141627 Eh       0.89 kcal/mol
Thermal translational correction ...      0.00141627 Eh       0.89 kcal/mol
-----------------------------------------------------------------------
Total thermal energy                  -1853.16814629 Eh


Summary of corrections to the electronic energy:
(perhaps to be used in another calculation)
Total thermal correction                  0.02285136 Eh      14.34 kcal/mol
Non-thermal (ZPE) correction              0.09222540 Eh      57.87 kcal/mol
-----------------------------------------------------------------------
Total correction                          0.11507676 Eh      72.21 kcal/mol


--------
ENTHALPY
--------

The enthalpy is H = U + kB*T
                kB is Boltzmann's constant
Total thermal energy              ...  -1853.16814629 Eh 
Thermal Enthalpy correction       ...      0.00094421 Eh       0.59 kcal/mol
-----------------------------------------------------------------------
Total Enthalpy                    ...  -1853.16720208 Eh


Note: Only C1 symmetry has been detected, increase convergence thresholds 
      if your molecule has a higher symmetry. Symmetry factor of 1.0 is   
      used for the rotational entropy correction. 
 

Note: Rotational entropy computed according to Herzberg 
Infrared and Raman Spectra, Chapter V,1, Van Nostrand Reinhold, 1945 
Point Group:  C1, Symmetry Number:   1  
Rotational constants in cm-1:     0.020966     0.004036     0.003974 

Vibrational entropy computed according to the QRRHO of S. Grimme
Chem.Eur.J. 2012 18 9955 using a reference frequency of 100.0 cm-1


-------
ENTROPY
-------

The entropy contributions are T*S = T*(S(el)+S(vib)+S(rot)+S(trans))
     S(el)   - electronic entropy
     S(vib)  - vibrational entropy
     S(rot)  - rotational entropy
     S(trans)- translational entropy
The entropies will be listed as multiplied by the temperature to get
units of energy

Electronic entropy                ...      0.00065446 Eh      0.41 kcal/mol
Vibrational entropy               ...      0.03692326 Eh     23.17 kcal/mol
Rotational entropy                ...      0.01654742 Eh     10.38 kcal/mol
Translational entropy             ...      0.02081341 Eh     13.06 kcal/mol
-----------------------------------------------------------------------
Final entropy term                ...      0.07493855 Eh     47.02 kcal/mol

In case the symmetry of your molecule has not been determined correctly
or in case you have a reason to use a different symmetry number we print 
out the resulting rotational entropy values for sn=1,12:

 non-linear molecules -----------------------------------
|  sn= 1 | S(rot)=       0.01654742 Eh     10.38 kcal/mol|
|  sn= 2 | S(rot)=       0.01589296 Eh      9.97 kcal/mol|
|  sn= 3 | S(rot)=       0.01551013 Eh      9.73 kcal/mol|
|  sn= 4 | S(rot)=       0.01523851 Eh      9.56 kcal/mol|
|  sn= 5 | S(rot)=       0.01502782 Eh      9.43 kcal/mol|
|  sn= 6 | S(rot)=       0.01485567 Eh      9.32 kcal/mol|
|  sn= 7 | S(rot)=       0.01471013 Eh      9.23 kcal/mol|
|  sn= 8 | S(rot)=       0.01458405 Eh      9.15 kcal/mol|
|  sn= 9 | S(rot)=       0.01447284 Eh      9.08 kcal/mol|
|  sn=10 | S(rot)=       0.01437336 Eh      9.02 kcal/mol|
|  sn=11 | S(rot)=       0.01428337 Eh      8.96 kcal/mol|
|  sn=12 | S(rot)=       0.01420122 Eh      8.91 kcal/mol|
 linear molecules ---------------------------------------
|  Dinfh | S(rot)=       0.01054515 Eh      6.62 kcal/mol|
|  Cinfv | S(rot)=       0.01119960 Eh      7.03 kcal/mol|
 --------------------------------------------------------


-------------------
GIBBS FREE ENERGY
-------------------

The Gibbs free energy is G = H - T*S

Total enthalpy                    ...  -1853.16720208 Eh 
Total entropy correction          ...     -0.07493855 Eh    -47.02 kcal/mol
-----------------------------------------------------------------------
Final Gibbs free energy         ...  -1853.24214062 Eh

For completeness - the Gibbs free energy minus the electronic energy
G-E(el)                           ...      0.04108243 Eh     25.78 kcal/mol


Maximum memory used throughout the entire PROP-calculation: 522.0 MB

--------------------------------
SUGGESTED CITATIONS FOR THIS RUN
--------------------------------

Below you find a list of papers that are relevant to this ORCA run
We neither can nor want to force you to cite these papers, but we appreciate if you do
You receive ORCA, which is the product of decades of hard work by many enthusiastic individuals, for free
The only thing we kindly ask in return is that you cite our papers,
We deeply appreciate it, if you show your appreciation for ORCA by not just citing the generic ORCA reference.

Please note that relegating all ORCA citations to the supporting information does *not* help us.
SI sections are not indexed - citations you put there will not count into any citation statistics
But we need these citations in order to attract the funding resources that allow us to do what we are doing

Therefore, if you are a happy ORCA user, please consider citing a few of the papers listed below in the main body of your paper

In addition to the list printed below, the program has created the file rf_mecn_freq_B3L_C7_D_B.bibtex that contains the list in bibtex format
You can import this file easily into all common literature databanks and citation aid programs


List of essential papers. We consider these as the minimum necessary citations

  1. Neese,F.
     Software update: the ORCA program system, version 5.0
     WIRES Comput. Molec. Sci., 2022 12(1)e1606
     doi.org/10.1002/wcms.1606

List of papers to cite with high priority. The work reported in these papers was absolutely
necessary for this run to complete.
Our perspective: the developers of density functionals and basis sets usually get cited in chemistry papers
Good! But without the algorithms to do something with them, the functionals or basis sets would not do anything.
Hence, in our opinion, the algorithm design and method developments papers are equally worthy of getting cited

  1. Neese,F.
     An improvement of the resolution of the identity approximation for the formation of the Coulomb matrix
     J. Comp. Chem., 2003 24(14)1740-1747
     doi.org/10.1002/jcc.10318
  2. Neese,F.; Wennmohs,F.; Hansen,A.; Becker,U.
     Efficient, approximate and parallel Hartree-Fock and hybrid DFT calculations. A 'chain-of-spheres' algorithm for the Hartree-Fock exchange
     Chem. Phys., 2009 356(1-3)98-109
     doi.org/10.1016/j.chemphys.2008.10.036
  3. Bykov,D.; Petrenko,T.; Izsak,R.; Kossmann,S.; Becker,U.; Valeev,E.; Neese,F.
     Efficient implementation of the analytic second derivatives of Hartree-Fock and hybrid DFT energies: a detailed analysis of different approximations
     Molec. Phys., 2015 113 1961-1977
     doi.org/10.1080/00268976.2015.1025114
  4. Garcia-Rates,M.; Neese,F.
     Efficient implementation of the analytical second derivatives of hartree-fock and hybrid DFT energies within the framework of the conductor-like polarizable continuum model
     J. Comput. Chem., 2019 40 1816-1828
     doi.org/10.1002/jcc.25833
  5. Garcia-Rates,M.; Neese,F.
     Effect of the Solute Cavity on the Solvation Energy and its Derivatives within the Framework of the Gaussian Charge Scheme
     J. Comput. Chem., 2020 41 922-939
     doi.org/10.1002/jcc.26139
  6. Helmich-Paris,B.; de Souza,B.; Neese,F.; Izsák,R.
     An improved chain of spheres for exchange algorithm
     J. Chem. Phys., 2021 155 104109
     doi.org/doi: 10.1063/5.0058766.
  7. Neese,F.
     The SHARK Integral Generation and Digestion System
     J. Comp. Chem., 2022  1-16
     doi.org/10.1002/jcc.26942
  8. Grimme,S.; Antony,J.; Ehrlich,S.; Krieg,H.
     A consistent and accurate ab initio parametrization of density functional dispersion correction (DFT-D) for the 94 elements H-Pu
     J. Chem. Phys., 2010 132 154104
     doi.org/10.1063/1.3382344
  9. Grimme,S.; Ehrlich,S.; Goerigk,L.
     Effect of the damping function in dispersion corrected density functional theory
     J. Comput. Chem., 2011 32(7)1456-1465
     doi.org/10.1002/jcc.21759

List of suggested additional citations. These are papers that are important in the 'surrounding' of 
of this run, or papers that preceded the highly important papers. If you like your results we are grateful for a citation.

  1. Izsak,R.; Neese,F.
     An overlap fitted chain of spheres exchange method
     J. Chem. Phys., 2011 135 144105
     doi.org/10.1063/1.3646921
  2. Izsak,R.; Hansen,A.; Neese,F.
     The resolution of identity and chain of spheres approximations for the LPNO-CCSD singles Fock term
     Molec. Phys., 2012 110 2413-2417
     doi.org/10.1080/00268976.2012.687466
  3. Neese,F.
     The ORCA program system
     WIRES Comput. Molec. Sci., 2012 2(1)73-78
     doi.org/10.1002/wcms.81
  4. Izsak,R.; Neese,F.; Klopper,W.
     Robust fitting techniques in the chain of spheres approximation to the Fock exchange: The role of the complementary space
     J. Chem. Phys., 2013 139 
     doi.org/10.1063/1.4819264
  5. Neese,F.
     Software update: the ORCA program system, version 4.0
     WIRES Comput. Molec. Sci., 2018 8(1)1-6
     doi.org/10.1002/wcms.1327
  6. Neese,F.; Wennmohs,F.; Becker,U.; Riplinger,C.
     The ORCA quantum chemistry program package
     J. Chem. Phys., 2020 152 Art. No. L224108
     doi.org/10.1063/5.0004608

List of optional additional citations

  1. Neese,F.
     Approximate second-order SCF convergence for spin unrestricted wavefunctions
     Chem. Phys. Lett., 2000 325(1-3)93-98
     doi.org/10.1016/s0009-2614(00)00662-x

Timings for individual modules:

Sum of individual times          ...     1152.791 sec (=  19.213 min)
Startup calculation              ...        4.444 sec (=   0.074 min)   0.4 %
SCF iterations                   ...       91.526 sec (=   1.525 min)   7.9 %
Property integrals               ...      260.798 sec (=   4.347 min)  22.6 %
SCF Response                     ...      522.316 sec (=   8.705 min)  45.3 %
Property calculations            ...      273.707 sec (=   4.562 min)  23.7 %
                             ****ORCA TERMINATED NORMALLY****
TOTAL RUN TIME: 0 days 0 hours 19 minutes 13 seconds 592 msec
