
                                 *****************
                                 * O   R   C   A *
                                 *****************

                                            #,                                       
                                            ###                                      
                                            ####                                     
                                            #####                                    
                                            ######                                   
                                           ########,                                 
                                     ,,################,,,,,                         
                               ,,#################################,,                 
                          ,,##########################################,,             
                       ,#########################################, ''#####,          
                    ,#############################################,,   '####,        
                  ,##################################################,,,,####,       
                ,###########''''           ''''###############################       
              ,#####''   ,,,,##########,,,,          '''####'''          '####       
            ,##' ,,,,###########################,,,                        '##       
           ' ,,###''''                  '''############,,,                           
         ,,##''                                '''############,,,,        ,,,,,,###''
      ,#''                                            '''#######################'''  
     '                                                          ''''####''''         
             ,#######,   #######,   ,#######,      ##                                
            ,#'     '#,  ##    ##  ,#'     '#,    #''#        ,####,   ,####,        
            ##       ##  ##   ,#'  ##            #'  '#       #'       #'  '#        
            ##       ##  #######   ##           ,######,      #####,   #    #        
            '#,     ,#'  ##    ##  '#,     ,#' ,#      #,     #,   #   #,  ,#        
             '#######'   ##     ##  '#######'  #'      '#     '####' # '####'        



                #########################################################
                #                        -***-                          #
                #          Department of theory and spectroscopy        #
                #                                                       #
                #                      Frank Neese                      #
                #                                                       #
                #     Directorship, Architecture, Infrastructure        #
                #                    SHARK, DRIVERS                     #
                #        Core code/Algorithms in most modules           #
                #                                                       #
                #        Max Planck Institute fuer Kohlenforschung      #
                #                Kaiser Wilhelm Platz 1                 #
                #                 D-45470 Muelheim/Ruhr                 #
                #                      Germany                          #
                #                                                       #
                #                  All rights reserved                  #
                #                        -***-                          #
                #########################################################


                         Program Version 6.0.1  -  RELEASE   -


 With contributions from (in alphabetic order):
[Max-Planck-Institut fuer Kohlenforschung]                               
  Daniel Aravena         : Magnetic Suceptibility                        
  Michael Atanasov       : Ab Initio Ligand Field Theory (pilot matlab implementation)
  Alexander A. Auer      : GIAO ZORA, VPT2 properties, NMR spectrum      
  Ute Becker             : All parallelization in ORCA, NUMFREQ, NUMCALC 
  Giovanni Bistoni       : ED, misc. LED, open-shell LED, HFLD           
  Martin Brehm           : Molecular dynamics                            
  Dmytro Bykov           : pre 5.0 version of the SCF Hessian            
  Marcos Casanova-Páez   : Triplet and SCS-CIS(D). UHF-(DLPNO)-IP/EA/STEOM-CCSD. UHF-CVS-IP/STEOM-CCSD   
  Vijay G. Chilkuri      : MRCI spin determinant printing, contributions to CSF-ICE 
  Pauline Colinet        : FMM embedding                                 
  Dipayan Datta          : RHF DLPNO-CCSD density                        
  Achintya Kumar Dutta   : EOM-CC, STEOM-CC                              
  Nicolas Foglia         : Exact transition moments, OPA infrastructure, MCD improvements    
  Dmitry Ganyushin       : Spin-Orbit,Spin-Spin,Magnetic field MRCI      
  Miquel Garcia-Rates    : C-PCM and meta-GGA Hessian, CCSD/C-PCM, Gaussian charge scheme 
  Tiago L. C. Gouveia    : GS-ROHF, GS-ROCIS                             
  Yang Guo               : DLPNO-NEVPT2, F12-NEVPT2, CIM, IAO-localization        
  Andreas Hansen         : Spin unrestricted coupled pair/coupled cluster methods 
  Ingolf Harden          : AUTO-CI MPn and infrastructure                
  Benjamin Helmich-Paris : MC-RPA, TRAH-(SCF,CASSCF), AVAS, COSX integrals, SCF dyn. polar. 
  Lee Huntington         : MR-EOM, pCC                                   
  Robert Izsak           : Overlap fitted RIJCOSX, COSX-SCS-MP3, EOM     
  Riya Kayal             : Wick's Theorem for AUTO-CI, AUTO-CI UHF-CCSDT 
  Emily Kempfer          : AUTO-CI, RHF CISDT and CCSDT                  
  Christian Kollmar      : KDIIS, OOCD, Brueckner-CCSD(T), CCSD density, CASPT2, CASPT2-K, improved NEVPT2 
  Axel Koslowski         : Symmetry handling                             
  Simone Kossmann        : meta-GGA functionals, TD-DFT gradient, OOMP2, (MP2 Hessian; deprecated post 5.0) 
  Lucas Lang             : DCDCAS                                        
  Marvin Lechner         : AUTO-CI (C++ implementation), FIC-MRCC        
  Spencer Leger          : CASSCF response                               
  Dagmar Lenk            : GEPOL surface, SMD, ORCA-2-JSON               
  Dimitrios Liakos       : Extrapolation schemes; Compound Job, initial MDCI parallelization 
  Dimitrios Manganas     : Further ROCIS development; embedding schemes. LFT, Crystal Embedding 
  Dimitrios Pantazis     : SARC Basis sets                               
  Anastasios Papadopoulos: AUTO-CI, single reference methods and gradients 
  Taras Petrenko         : pre 6.0 DFT Hessian and TD-DFT gradient, (ASA, deprecated), ECA, 1-Electron XAS/XES, NRVS 
  Peter Pinski           : DLPNO-MP2, DLPNO-MP2 Gradient                 
  Christoph Reimann      : Effective Core Potentials                     
  Marius Retegan         : Local ZFS, SOC                                
  Christoph Riplinger    : Optimizer, TS searches, QM/MM, DLPNO-CCSD(T), (RO)-DLPNO pert. Triples 
  Michael Roemelt        : Original ROCIS implementation                 
  Masaaki Saitow         : Open-shell DLPNO-CCSD energy and density      
  Barbara Sandhoefer     : DKH picture change effects                    
  Kantharuban Sivalingam : CASSCF convergence/infrastructure, NEVPT2 and variants, FIC-MRCI 
  Bernardo de Souza      : ESD, SOC TD-DFT                               
  Georgi L. Stoychev     : AutoAux, RI-MP2 NMR, DLPNO-MP2 response, X2C  
  Van Anh Tran           : RI-MP2 g-tensors                              
  Willem Van den Heuvel  : Paramagnetic NMR                              
  Zikuan Wang            : NOTCH, Electric field optimization            
  Frank Wennmohs         : Technical directorship and infrastructure     
  Hang Xu                : AUTO-CI-Response properties                   
                                                                         
[FACCTs GmbH]                                                            
  Markus Bursch, Miquel Garcia-Rates, Christoph Riplinger, Bernardo de Souza, Georgi L. Stoychev 
                                                                 
  APM, Basis sets (HGBS, AHGBS, def-TZVP (Ac-Lr), def2-XVPD (La-Lu)), CI-OPT, improved COSX, DLPNO-Multilevel,           
  DOCKER, DRACO, updates on ESD, GOAT, IRC, LR-CPCM, MBIS, meta-GGA TD-DFT gradient, ML-optimized integration grids, 
  MM, NACMEs, nearIR, NEB, NEB-TS, NL-DFT gradient (VV10), 2- and 3-layer-ONIOM, interface openCOSMO-RS, QMMM,   
  Crystal-QMMM, SF, symmetry and pop. for TD-DFT, r2SCAN hybrids, SOLVATOR                                   
                                                                         
[Other institutions]                                                     
  V. Asgeirsson          : NEB                                           
  Christoph Bannwarth    : sTDA-DFT, sTD-DFT, PBEh-3c, B97-3c, D3        
  Sebastian Ehlert       : rSCAN, r2SCAN, r2SCAN-3c, D4, dhf basis sets  
  Marvin Friede          : D4 for Fr, Ra, Ac-Lr                          
  Lars Goerigk           : TD-DFT with DH, B97 family of functionals     
  Stefan Grimme          : VdW corrections, initial TS optimization, DFT functionals, gCP, sTDA/sTD-DF 
  Waldemar Hujo          : DFT-NL                                        
  H. Jonsson             : NEB                                           
  Holger Kruse           : gCP                                           
  Marcel Mueller         : wB97X-3c, vDZP basis set                      
  Hagen Neugebauer       : wr2SCAN                                       
  Tobias Risthaus        : range-separated hybrid DFT                    
  Lukas Wittmann         : regularized MP2, r2SCAN double-hybrids, wr2SCAN        
                                                                         
We gratefully acknowledge several colleagues who have allowed us to      
interface, adapt or use parts of their codes:                            
  Ed Valeev, F. Pavosevic, A. Kumar             : LibInt (2-el integral package), F12 methods 
  Garnet Chan, S. Sharma, J. Yang, R. Olivares  : DMRG                   
  Ulf Ekstrom                                   : XCFun DFT Library      
  Mihaly Kallay                                 : mrcc  (arbitrary order and MRCC methods)
  Frank Weinhold                                : gennbo (NPA and NBO analysis)           
  Simon Mueller                                 : openCOSMO-RS                            
  Christopher J. Cramer and Donald G. Truhlar   : smd solvation model                     
  S Lehtola, MJT Oliveira, MAL Marques          : LibXC Library                           
  Liviu Ungur et al                             : ANISO software                          


 Your calculation uses the libint2 library for the computation of 2-el integrals
 For citations please refer to: http://libint.valeyev.net

 Your ORCA version has been built with support for libXC version: 6.2.2
 For citations please refer to: https://libxc.gitlab.io

 This ORCA versions uses:
   CBLAS   interface :  Fast vector & matrix operations
   LAPACKE interface :  Fast linear algebra routines
   SCALAPACK package :  Parallel linear algebra routines
   Shared memory     :  Shared parallel matrices
   BLAS/LAPACK       :  OpenBLAS 0.3.27  USE64BITINT DYNAMIC_ARCH NO_AFFINITY SkylakeX SINGLE_THREADED
        Core in use  :  SkylakeX
   Copyright (c) 2011-2014, The OpenBLAS Project


NOTE: MaxCore=8000 MB was set to SCF,MP2,MDCI,CIPSI,MRCI and CIS
      => If you want to overwrite this, your respective input block should be placed after the MaxCore statement
Your calculation utilizes the atom-pairwise dispersion correction
with the Becke-Johnson damping scheme (D3BJ)


Your calculation utilizes the SMD solvation module
Please cite in your paper:
A.V. Marenich, C.J. Cramer, D.G. Truhlar J. Phys. Chem. B, 113, (2009), 6378 

Warning: RI is on but no J-basis has been assigned. Assigning Def2/J (nothing to worry about!)
================================================================================

----- Orbital basis set information -----
Your calculation utilizes the basis: def2-TZVP
   F. Weigend and R. Ahlrichs, Phys. Chem. Chem. Phys. 7, 3297 (2005).

----- AuxJ basis set information -----
Your calculation utilizes the auxiliary basis: def2/J
   F. Weigend, Phys. Chem. Chem. Phys. 8, 1057 (2006).

================================================================================
                                        WARNINGS
                       Please study these warnings very carefully!
================================================================================



WARNING: SCAN, rSCAN, or r2SCAN functional requested.
  ===> : libXC variant has now been activated.



WARNING: your system is open-shell and RHF/RKS was chosen
  ===> : WILL SWITCH to UHF/UKS


================================================================================
                                       INPUT FILE
================================================================================
NAME = rf_mecn_freq_r2s_C4_D_B.inp
|  1> !r2scanh def2-TZVP freq d3 TightSCF SlowConv defgrid2
|  2>  
|  3> %pal
|  4> nprocs 20
|  5> end
|  6>  
|  7> %scf
|  8> MaxIter 1500
|  9> end
| 10>  
| 11> %maxcore 8000
| 12>  
| 13> !CPCM
| 14> %cpcm smd true
| 15> SMDsolvent "ACETONITRILE"
| 16> end
| 17>  
| 18> * xyz -1 2
| 19> 6        3.803972000     -0.788940000     -1.071484000
| 20> 8        3.381375000     -1.499270000     -1.989666000
| 21> 8        4.875821000     -0.188820000     -0.915906000
| 22> 6        2.804520000     -0.585035000      0.126343000
| 23> 6        2.173597000      0.829404000      0.154346000
| 24> 6        0.981188000      0.947333000      1.048831000
| 25> 6       -0.439283000      1.243751000      0.686360000
| 26> 6       -1.242380000     -0.001930000      0.208946000
| 27> 6       -2.782914000      0.207788000      0.154981000
| 28> 6       -3.525994000     -0.827961000     -0.731468000
| 29> 9        1.763521000     -1.464229000      0.081446000
| 30> 9        3.423864000     -0.787289000      1.320640000
| 31> 9        3.117465000      1.717047000      0.559099000
| 32> 9        1.814304000      1.153147000     -1.109064000
| 33> 9        1.156880000      0.504119000      2.281339000
| 34> 9       -1.067933000      1.722854000      1.785603000
| 35> 9       -0.490406000      2.175365000     -0.281852000
| 36> 9       -0.992289000     -1.011678000      1.059281000
| 37> 9       -0.795549000     -0.345781000     -1.010667000
| 38> 9       -3.066027000      1.428983000     -0.323775000
| 39> 9       -3.273255000      0.106727000      1.398144000
| 40> 9       -3.139556000     -2.062240000     -0.425937000
| 41> 9       -4.832024000     -0.721820000     -0.513970000
| 42> 9       -3.291518000     -0.604410000     -2.017187000
| 43> *
| 44> 
| 45>                          ****END OF INPUT****
================================================================================

                       ****************************
                       * Single Point Calculation *
                       ****************************

---------------------------------
CARTESIAN COORDINATES (ANGSTROEM)
---------------------------------
  C      3.803972   -0.788940   -1.071484
  O      3.381375   -1.499270   -1.989666
  O      4.875821   -0.188820   -0.915906
  C      2.804520   -0.585035    0.126343
  C      2.173597    0.829404    0.154346
  C      0.981188    0.947333    1.048831
  C     -0.439283    1.243751    0.686360
  C     -1.242380   -0.001930    0.208946
  C     -2.782914    0.207788    0.154981
  C     -3.525994   -0.827961   -0.731468
  F      1.763521   -1.464229    0.081446
  F      3.423864   -0.787289    1.320640
  F      3.117465    1.717047    0.559099
  F      1.814304    1.153147   -1.109064
  F      1.156880    0.504119    2.281339
  F     -1.067933    1.722854    1.785603
  F     -0.490406    2.175365   -0.281852
  F     -0.992289   -1.011678    1.059281
  F     -0.795549   -0.345781   -1.010667
  F     -3.066027    1.428983   -0.323775
  F     -3.273255    0.106727    1.398144
  F     -3.139556   -2.062240   -0.425937
  F     -4.832024   -0.721820   -0.513970
  F     -3.291518   -0.604410   -2.017187

----------------------------
CARTESIAN COORDINATES (A.U.)
----------------------------
  NO LB      ZA    FRAG     MASS         X           Y           Z
   0 C     6.0000    0    12.011    7.188465   -1.490881   -2.024811
   1 O     8.0000    0    15.999    6.389873   -2.833210   -3.759924
   2 O     8.0000    0    15.999    9.213966   -0.356818   -1.730812
   3 C     6.0000    0    12.011    5.299775   -1.105556    0.238754
   4 C     6.0000    0    12.011    4.107503    1.567346    0.291672
   5 C     6.0000    0    12.011    1.854177    1.790200    1.982003
   6 C     6.0000    0    12.011   -0.830125    2.350349    1.297032
   7 C     6.0000    0    12.011   -2.347758   -0.003647    0.394851
   8 C     6.0000    0    12.011   -5.258945    0.392662    0.292872
   9 C     6.0000    0    12.011   -6.663163   -1.564620   -1.382274
  10 F     9.0000    0    18.998    3.332572   -2.766992    0.153911
  11 F     9.0000    0    18.998    6.470165   -1.487761    2.495648
  12 F     9.0000    0    18.998    5.891155    3.244749    1.056544
  13 F     9.0000    0    18.998    3.428538    2.179132   -2.095827
  14 F     9.0000    0    18.998    2.186186    0.952647    4.311106
  15 F     9.0000    0    18.998   -2.018101    3.255722    3.374301
  16 F     9.0000    0    18.998   -0.926733    4.110844   -0.532623
  17 F     9.0000    0    18.998   -1.875154   -1.911794    2.001751
  18 F     9.0000    0    18.998   -1.503370   -0.653431   -1.909884
  19 F     9.0000    0    18.998   -5.793951    2.700387   -0.611846
  20 F     9.0000    0    18.998   -6.185556    0.201685    2.642109
  21 F     9.0000    0    18.998   -5.932901   -3.897069   -0.804904
  22 F     9.0000    0    18.998   -9.131202   -1.364042   -0.971263
  23 F     9.0000    0    18.998   -6.220068   -1.142169   -3.811931

--------------------------------
INTERNAL COORDINATES (ANGSTROEM)
--------------------------------
 C      0   0   0     0.000000000000     0.00000000     0.00000000
 O      1   0   0     1.235400792631     0.00000000     0.00000000
 O      1   2   0     1.238228091785   131.92534479     0.00000000
 C      1   2   3     1.573299421998   115.02841018   179.31743686
 C      4   1   2     1.549027335026   113.00732210   253.72198422
 C      5   4   1     1.495275856672   114.05625448   165.28169685
 C      6   5   4     1.495655949210   128.90414075   244.36708189
 C      7   6   5     1.557115947053   113.92810380    82.73675004
 C      8   7   6     1.555679551162   114.42667541   166.10502272
 C      9   8   7     1.552654406815   113.81621755   161.20830541
 F      4   1   2     1.363332955754   112.11160686    13.65895055
 F      4   1   2     1.360455436632   111.09361529   132.43643868
 F      5   4   1     1.357432093286   108.61919457   286.98016100
 F      5   4   1     1.352814036739   108.04779756    43.73124750
 F      6   5   4     1.321507585572   115.17909868    51.27568648
 F      7   6   5     1.353911252689   108.32145827   201.68842729
 F      7   6   5     1.344601310080   110.36094626   320.66572736
 F      8   7   6     1.343579600921   108.13013195    45.82712639
 F      8   7   6     1.343632138098   108.15030888   288.31358209
 F      9   8   7     1.341893254447   110.11984661    40.29446143
 F      9   8   7     1.340187250563   108.66109087   281.20951732
 F     10   9   8     1.328957549979   110.43447518    49.02747431
 F     10   9   8     1.328264150230   108.89184149   168.44961058
 F     10   9   8     1.325906252771   110.88629236   287.90061597

---------------------------
INTERNAL COORDINATES (A.U.)
---------------------------
 C      0   0   0     0.000000000000     0.00000000     0.00000000
 O      1   0   0     2.334569163702     0.00000000     0.00000000
 O      1   2   0     2.339911984801   131.92534479     0.00000000
 C      1   2   3     2.973105034232   115.02841018   179.31743686
 C      4   1   2     2.927237437158   113.00732210   253.72198422
 C      5   4   1     2.825661863775   114.05625448   165.28169685
 C      6   5   4     2.826380134576   128.90414075   244.36708189
 C      7   6   5     2.942522698691   113.92810380    82.73675004
 C      8   7   6     2.939808303839   114.42667541   166.10502272
 C      9   8   7     2.934091609506   113.81621755   161.20830541
 F      4   1   2     2.576325915725   112.11160686    13.65895055
 F      4   1   2     2.570888192638   111.09361529   132.43643868
 F      5   4   1     2.565174901705   108.61919457   286.98016100
 F      5   4   1     2.556448039561   108.04779756    43.73124750
 F      6   5   4     2.497287420630   115.17909868    51.27568648
 F      7   6   5     2.558521477217   108.32145827   201.68842729
 F      7   6   5     2.540928235363   110.36094626   320.66572736
 F      8   7   6     2.538997484863   108.13013195    45.82712639
 F      8   7   6     2.539096765741   108.15030888   288.31358209
 F      9   8   7     2.535810751861   110.11984661    40.29446143
 F      9   8   7     2.532586871737   108.66109087   281.20951732
 F     10   9   8     2.511365813067   110.43447518    49.02747431
 F     10   9   8     2.510055477439   108.89184149   168.44961058
 F     10   9   8     2.505599696992   110.88629236   287.90061597

---------------------
BASIS SET INFORMATION
---------------------
There are 3 groups of distinct atoms

 Group   1 Type C   : 11s6p2d1f contracted to 5s3p2d1f pattern {62111/411/11/1}
 Group   2 Type O   : 11s6p2d1f contracted to 5s3p2d1f pattern {62111/411/11/1}
 Group   3 Type F   : 11s6p2d1f contracted to 5s3p2d1f pattern {62111/411/11/1}

Atom   0C    basis set group =>   1
Atom   1O    basis set group =>   2
Atom   2O    basis set group =>   2
Atom   3C    basis set group =>   1
Atom   4C    basis set group =>   1
Atom   5C    basis set group =>   1
Atom   6C    basis set group =>   1
Atom   7C    basis set group =>   1
Atom   8C    basis set group =>   1
Atom   9C    basis set group =>   1
Atom  10F    basis set group =>   3
Atom  11F    basis set group =>   3
Atom  12F    basis set group =>   3
Atom  13F    basis set group =>   3
Atom  14F    basis set group =>   3
Atom  15F    basis set group =>   3
Atom  16F    basis set group =>   3
Atom  17F    basis set group =>   3
Atom  18F    basis set group =>   3
Atom  19F    basis set group =>   3
Atom  20F    basis set group =>   3
Atom  21F    basis set group =>   3
Atom  22F    basis set group =>   3
Atom  23F    basis set group =>   3
---------------------------------
AUXILIARY/J BASIS SET INFORMATION
---------------------------------
There are 3 groups of distinct atoms

 Group   1 Type C   : 12s5p4d2f1g contracted to 6s4p3d1f1g pattern {711111/2111/211/2/1}
 Group   2 Type O   : 12s5p4d2f1g contracted to 6s4p3d1f1g pattern {711111/2111/211/2/1}
 Group   3 Type F   : 12s5p4d2f1g contracted to 6s4p3d1f1g pattern {711111/2111/211/2/1}

Atom   0C    basis set group =>   1
Atom   1O    basis set group =>   2
Atom   2O    basis set group =>   2
Atom   3C    basis set group =>   1
Atom   4C    basis set group =>   1
Atom   5C    basis set group =>   1
Atom   6C    basis set group =>   1
Atom   7C    basis set group =>   1
Atom   8C    basis set group =>   1
Atom   9C    basis set group =>   1
Atom  10F    basis set group =>   3
Atom  11F    basis set group =>   3
Atom  12F    basis set group =>   3
Atom  13F    basis set group =>   3
Atom  14F    basis set group =>   3
Atom  15F    basis set group =>   3
Atom  16F    basis set group =>   3
Atom  17F    basis set group =>   3
Atom  18F    basis set group =>   3
Atom  19F    basis set group =>   3
Atom  20F    basis set group =>   3
Atom  21F    basis set group =>   3
Atom  22F    basis set group =>   3
Atom  23F    basis set group =>   3


           ************************************************************
           *        Program running with 20 parallel MPI-processes    *
           *              working on a common directory               *
           ************************************************************
------------------------------------------------------------------------------
                             ORCA STARTUP CALCULATIONS
                           -- RI-GTO INTEGRALS CHOSEN --
------------------------------------------------------------------------------
------------------------------------------------------------------------------
                   ___                                                        
                  /   \      - P O W E R E D   B Y -                         
                 /     \                                                     
                 |  |  |   _    _      __       _____    __    __             
                 |  |  |  | |  | |    /  \     |  _  \  |  |  /  |          
                  \  \/   | |  | |   /    \    | | | |  |  | /  /          
                 / \  \   | |__| |  /  /\  \   | |_| |  |  |/  /          
                |  |  |   |  __  | /  /__\  \  |    /   |      \           
                |  |  |   | |  | | |   __   |  |    \   |  |\   \          
                \     /   | |  | | |  |  |  |  | |\  \  |  | \   \       
                 \___/    |_|  |_| |__|  |__|  |_| \__\ |__|  \__/        
                                                                              
                      - O R C A' S   B I G   F R I E N D -                    
                                      &                                       
                       - I N T E G R A L  F E E D E R -                       
                                                                              
 v1 FN, 2020, v2 2021, v3 2022-2024                                           
------------------------------------------------------------------------------


----------------------
SHARK INTEGRAL PACKAGE
----------------------

Number of atoms                             ...     24
Number of basis functions                   ...    744
Number of shells                            ...    264
Maximum angular momentum                    ...      3
Integral batch strategy                     ... SHARK/LIBINT Hybrid
RI-J (if used) integral strategy            ... SPLIT-RIJ (Revised 2003 algorithm where possible)
Printlevel                                  ...      1
Contraction scheme used                     ... SEGMENTED contraction
Prescreening option                         ... SCHWARTZ
   Thresh                                   ... 2.500e-11
   Tcut                                     ... 2.500e-12
   Tpresel                                  ... 2.500e-12 
Coulomb Range Separation                    ... NOT USED
Exchange Range Separation                   ... NOT USED
Multipole approximations                    ... NOT USED
Finite Nucleus Model                        ... NOT USED
CABS basis                                  ... NOT available
Auxiliary Coulomb fitting basis             ... AVAILABLE
   # of basis functions in Aux-J            ...   1176
   # of shells in Aux-J                     ...    360
   Maximum angular momentum in Aux-J        ...      4
Auxiliary J/K fitting basis                 ... NOT available
Auxiliary Correlation fitting basis         ... NOT available
Auxiliary 'external' fitting basis          ... NOT available

Checking pre-screening integrals            ... done (  0.0 sec) Dimension = 264
Check shell pair data                       ... done (  0.0 sec)
Shell pair information
Shell pair cut-off parameter TPreSel        ...   2.5e-12
Total number of shell pairs                 ...     34980
Shell pairs after pre-screening             ...     22645
Total number of primitive shell pairs       ...    115968
Primitive shell pairs kept                  ...     47990
          la=0 lb=0:   4212 shell pairs
          la=1 lb=0:   6156 shell pairs
          la=1 lb=1:   2141 shell pairs
          la=2 lb=0:   3367 shell pairs
          la=2 lb=1:   2499 shell pairs
          la=2 lb=2:    709 shell pairs
          la=3 lb=0:   1551 shell pairs
          la=3 lb=1:   1212 shell pairs
          la=3 lb=2:    640 shell pairs
          la=3 lb=3:    158 shell pairs

Calculating one electron integrals          ... done (  0.0 sec)
Calculating RI/J V-Matrix + Cholesky decomp.... done (  0.1 sec)
Calculating Nuclear repulsion               ... done (  0.0 sec) ENN=   2686.503124690009 Eh

Diagonalization of the overlap matrix:
Smallest eigenvalue                        ... 7.184e-05
Time for diagonalization                   ...    0.092 sec
Threshold for overlap eigenvalues          ... 1.000e-07
Number of eigenvalues below threshold      ... 0
Time for construction of square roots      ...    0.043 sec
Total time needed                          ...    0.140 sec

-------------------
DFT GRID GENERATION
-------------------

General Integration Accuracy     IntAcc      ... 4.388
Radial Grid Type                 RadialGrid  ... OptM3 with GC (2021)
Angular Grid (max. ang.)         AngularGrid ... 4 (Lebedev-302)
Angular grid pruning method      GridPruning ... 4 (adaptive)
Weight generation scheme         WeightScheme... mBecke (2022)
Basis function cutoff            BFCut       ... 1.0000e-11
Integration weight cutoff        WCut        ... 1.0000e-14
Partially contracted basis set               ... off
Rotationally invariant grid construction     ... off
Angular grids for H and He will be reduced by one unit

Total number of grid points                  ...   145371
Total number of batches                      ...     2283
Average number of points per batch           ...       63
Average number of grid points per atom       ...     6057

--------------------
COSX GRID GENERATION
--------------------

GRIDX 1
-------
General Integration Accuracy     IntAcc      ... 3.816
Radial Grid Type                 RadialGrid  ... OptM3 with GC (2021)
Angular Grid (max. ang.)         AngularGrid ... 1 (Lebedev-50)
Angular grid pruning method      GridPruning ... 4 (adaptive)
Weight generation scheme         WeightScheme... mBecke (2022)
Basis function cutoff            BFCut       ... 1.0000e-11
Integration weight cutoff        WCut        ... 1.0000e-14
Partially contracted basis set               ... on
Rotationally invariant grid construction     ... off
Angular grids for H and He will be reduced by one unit

Total number of grid points                  ...    18233
Total number of batches                      ...      153
Average number of points per batch           ...      119
Average number of grid points per atom       ...      760
UseSFitting                                  ... on

GRIDX 2
-------
General Integration Accuracy     IntAcc      ... 4.020
Radial Grid Type                 RadialGrid  ... OptM3 with GC (2021)
Angular Grid (max. ang.)         AngularGrid ... 2 (Lebedev-110)
Angular grid pruning method      GridPruning ... 4 (adaptive)
Weight generation scheme         WeightScheme... mBecke (2022)
Basis function cutoff            BFCut       ... 1.0000e-11
Integration weight cutoff        WCut        ... 1.0000e-14
Partially contracted basis set               ... on
Rotationally invariant grid construction     ... off
Angular grids for H and He will be reduced by one unit

Total number of grid points                  ...    43205
Total number of batches                      ...      350
Average number of points per batch           ...      123
Average number of grid points per atom       ...     1800
UseSFitting                                  ... on

GRIDX 3
-------
General Integration Accuracy     IntAcc      ... 4.338
Radial Grid Type                 RadialGrid  ... OptM3 with GC (2021)
Angular Grid (max. ang.)         AngularGrid ... 3 (Lebedev-194)
Angular grid pruning method      GridPruning ... 4 (adaptive)
Weight generation scheme         WeightScheme... mBecke (2022)
Basis function cutoff            BFCut       ... 1.0000e-11
Integration weight cutoff        WCut        ... 1.0000e-14
Partially contracted basis set               ... on
Rotationally invariant grid construction     ... off
Angular grids for H and He will be reduced by one unit

Total number of grid points                  ...    95779
Total number of batches                      ...      760
Average number of points per batch           ...      126
Average number of grid points per atom       ...     3991
UseSFitting                                  ... on
Initializing property integral containers    ... done (  0.0 sec)

SHARK setup successfully completed in   2.9 seconds

Maximum memory used throughout the entire STARTUP-calculation: 57.9 MB


           ************************************************************
           *        Program running with 20 parallel MPI-processes    *
           *              working on a common directory               *
           ************************************************************
-------------------------------------------------------------------------------
                                 ORCA GUESS
                   Start orbitals & Density for SCF / CASSCF
-------------------------------------------------------------------------------

------------
SCF SETTINGS
------------
Hamiltonian:
 Density Functional     Method          .... DFT(GTOs)
  Functional kind                       .... Exchange
  Functional name                       .... Re-regularized SCAN exchange by Furness et al
  Functional family                     .... MGGA
  Functional refs                              
    [ 0] J. W. Furness, A. D. Kaplan, J. Ning, J. P. Perdew, and J. Sun.,  J. Phys. Chem. Lett. 11, 8208-8215 (2020), doi: 10.1021/acs.jpclett.0c02405
    [ 1] J. W. Furness, A. D. Kaplan, J. Ning, J. P. Perdew, and J. Sun.,  J. Phys. Chem. Lett. 11, 9248-9248 (2020), doi: 10.1021/acs.jpclett.0c03077
  Functional external parameters        .... 6
    Parameter  0 _c1        =  6.670000e-01 : c1 parameter        
    Parameter  1 _c2        =  8.000000e-01 : c2 parameter        
    Parameter  2 _d         =  1.240000e+00 : d parameter         
    Parameter  3 _k1        =  6.500000e-02 : k1 parameter        
    Parameter  4 _eta       =  1.000000e-03 : eta parameter       
    Parameter  5 _dp2       =  3.610000e-01 : dp2 parameter       
  Functional kind                       .... Correlation
  Functional name                       .... Re-regularized SCAN correlation by Furness et al
  Functional family                     .... MGGA
  Functional refs                              
    [ 0] J. W. Furness, A. D. Kaplan, J. Ning, J. P. Perdew, and J. Sun.,  J. Phys. Chem. Lett. 11, 8208-8215 (2020), doi: 10.1021/acs.jpclett.0c02405
    [ 1] J. W. Furness, A. D. Kaplan, J. Ning, J. P. Perdew, and J. Sun.,  J. Phys. Chem. Lett. 11, 9248-9248 (2020), doi: 10.1021/acs.jpclett.0c03077
  Functional external parameters        .... 1
    Parameter  0 _eta       =  1.000000e-03 : Regularization parameter
 Gradients option       PostSCFGGA      .... off
 Hybrid DFT is turned on
   Fraction HF Exchange ScalHFX         ....  0.100000
   Scaling of DF-GGA-X  ScalDFX         ....  0.900000
   Scaling of DF-GGA-C  ScalDFC         ....  1.000000
   Scaling of DF-LDA-C  ScalLDAC        ....  1.000000
   Perturbative correction              ....  0.000000
   NL short-range parameter             .... 11.900000
 RI-approximation to the Coulomb term is turned on
   Number of AuxJ basis functions       .... 1176
   RIJ-COSX (HFX calculated with COS-X)).... on


General Settings:
 Integral files         IntName         .... rf_mecn_freq_r2s_C4_D_B
 Hartree-Fock type      HFTyp           .... UHF
 Total Charge           Charge          ....   -1
 Multiplicity           Mult            ....    2
 Number of Electrons    NEL             ....  191
 Basis Dimension        Dim             ....  744
 Nuclear Repulsion      ENuc            ....   2686.5031246900 Eh

Convergence Acceleration:
 AO-DIIS                CNVDIIS         .... on
   Start iteration      DIISMaxIt       ....     0
   Startup error        DIISStart       ....  0.200000
   # of expansion vecs  DIISMaxEq       ....     5
   Bias factor          DIISBfac        ....   1.050
   Max. coefficient     DIISMaxC        ....  10.000
 MO-DIIS                CNVKDIIS        .... off
 Trust-Rad. Augm. Hess. CNVTRAH         .... auto
   Auto Start mean grad. ratio tolernc. ....  1.125000
   Auto Start start iteration           ....    50
   Auto Start num. interpolation iter.  ....    10
   Max. Number of Micro iterations      ....    24
   Max. Number of Macro iterations      .... Maxiter - #DIIS iter
   Number of Davidson start vectors     ....     2
   Converg. threshold    (grad. norm)   ....   1.000e-05
   Grad. Scal. Fac. for Micro threshold ....   0.100
   Minimum threshold for Micro iter.    ....   1.000e-02
   NR start threshold (gradient norm)   ....   1.000e-04
   Initial trust radius                 ....   0.400
   Minimum AH scaling param. (alpha)    ....   1.000
   Maximum AH scaling param. (alpha)    .... 1000.000
   Quad. conv. algorithm                .... NR
   White noise on init. David. guess    .... on
   Maximum white noise                  ....   0.010
   Pseudo random numbers                .... off
   Inactive MOs                         .... canonical
   Orbital update algorithm             .... Taylor
   Preconditioner                       .... Diag
   Full preconditioner red. dimension   ....   250
 SOSCF                  CNVSOSCF        .... on
   Start iteration      SOSCFMaxIt      ....   150
   Startup grad/error   SOSCFStart      ....  0.001000
   Hessian update       SOSCFHessUp     .... L-BFGS
 Level Shifting         CNVShift        .... on
   Level shift para.    LevelShift      ....    0.2500
   Turn off err/grad.   ShiftErr        ....    0.0000
 Zerner damping         CNVZerner       .... off
 Static damping         CNVDamp         .... on
   Fraction old density DampFac         ....    0.8500
   Max. Damping (<1)    DampMax         ....    0.9800
   Min. Damping (>=0)   DampMin         ....    0.0000
   Turn off err/grad.   DampErr         ....    0.0300

SCF Procedure:
 Maximum # iterations   MaxIter         ....  1500
 SCF integral mode      SCFMode         .... Direct
   Integral package                     .... SHARK and LIBINT hybrid scheme
 Reset frequency        DirectResetFreq ....    20
 Integral Threshold     Thresh          ....  2.500e-11 Eh
 Primitive CutOff       TCut            ....  2.500e-12 Eh

Convergence Tolerance:
 Convergence Check Mode ConvCheckMode   .... Total+1el-Energy
 Convergence forced     ConvForced      .... 0
 Energy Change          TolE            ....  1.000e-08 Eh
 1-El. energy change                    ....  1.000e-05 Eh
 Orbital Gradient       TolG            ....  1.000e-05
 Orbital Rotation angle TolX            ....  1.000e-05
 DIIS Error             TolErr          ....  5.000e-07

------------------------------
INITIAL GUESS: MODEL POTENTIAL
------------------------------
Loading Hartree-Fock densities                     ... done
Calculating cut-offs                               ... done
Initializing the effective Hamiltonian             ... done
Setting up the integral package (SHARK)            ... done
Starting the Coulomb interaction                   ... done (   0.1 sec)
Making the grid                                    ... done (   0.4 sec)
Mapping shells                                     ... done
Starting the XC term evaluation                    ... done (   0.2 sec)
  promolecular density results
     # of electrons  =    190.003752305
     EX              =   -197.249592770
     EC              =     -6.680283141
     EX+EC           =   -203.929875912
Transforming the Hamiltonian                       ... done (   0.0 sec)
Diagonalizing the Hamiltonian                      ... done (   0.1 sec)
Back transforming the eigenvectors                 ... done (   0.0 sec)
Now organizing SCF variables                       ... done
                      ------------------
                      INITIAL GUESS DONE (   1.0 sec)
                      ------------------
             **** ENERGY FILE WAS UPDATED (rf_mecn_freq_r2s_C4_D_B.en.tmp) ****
Finished Guess after   1.7 sec
Maximum memory used throughout the entire GUESS-calculation: 47.3 MB


           ************************************************************
           *        Program running with 20 parallel MPI-processes    *
           *              working on a common directory               *
           ************************************************************

-------------------------------------------------------------------------------------------
                                      ORCA LEAN-SCF
                              memory conserving SCF solver
-------------------------------------------------------------------------------------------

--------------------
CPCM SOLVATION MODEL
--------------------
CPCM parameters:
  Epsilon                                         ...      35.6880
  Refrac                                          ...       1.3442
  Rsolv                                           ...       1.3000
  Surface type                                    ... GAUSSIAN VDW
  Discretization scheme                           ... Constant charge density
    Threshold for H atoms                         ...       5.0000 (charges/Ang^2)
    Threshold for non-H atoms                     ...       5.0000 (charges/Ang^2)
  Epsilon function type                           ...         CPCM
Solvent:                                          ... ACETONITRILE
SMD-CDS solvent descriptors:
  Soln                                            ...       1.3442
  Soln25                                          ...       1.3416
  Sola                                            ...       0.0700
  Solb                                            ...       0.3200
  Solg                                            ...      41.2500
  Solc                                            ...       0.0000
  Solh                                            ...       0.0000
Radii:
  Scheme                                          ... Element-dependent radii
  Radius for C  used is    3.4960 Bohr (=   1.8500 Ang.)
  Radius for O  used is    4.0969 Bohr (=   2.1680 Ang.)
  Radius for F  used is    3.2692 Bohr (=   1.7300 Ang.)
Calculating surface                               ...        done! (  0.0s)
Cavity surface points                             ...         2138
Cavity Volume                                     ...    2098.1174
Cavity Surface-area                               ...    1081.8921
Calculating surface distance matrix               ...        done! (  0.0s)
Performing Cholesky decomposition & store         ...        done! (  0.1s)
Overall time for CPCM initialization              ...                 0.1s

----------------------------------------D-I-I-S--------------------------------------------
Iteration    Energy (Eh)           Delta-E    RMSDP     MaxDP     DIISErr   Damp  Time(sec)
-------------------------------------------------------------------------------------------
               ***  Starting incremental Fock matrix formation  ***
    1    -1852.6799161197495778     0.00e+00  2.62e-04  3.41e-02  1.53e-01  0.850   6.7
Warning: op=0 Small HOMO/LUMO gap (   0.065) - skipping pre-diagonalization
         Will do a full diagonalization
    2    -1852.8093007677525748    -1.29e-01  3.35e-04  5.60e-02  1.07e-01  0.850   4.4
                               ***Turning on AO-DIIS***
    3    -1852.8817412302496450    -7.24e-02  1.69e-04  2.85e-02  6.60e-02  0.850   4.0
    4    -1852.9257480860351279    -4.40e-02  9.45e-05  1.34e-02  4.98e-02  0.850   3.8
    5    -1852.9572286985612664    -3.15e-02  6.31e-05  5.23e-03  4.12e-02  0.850   3.8
    6    -1852.9822176667339590    -2.50e-02  5.00e-05  4.39e-03  3.53e-02  0.850   4.3
    7    -1853.0030336052495841    -2.08e-02  4.40e-05  4.11e-03  3.05e-02  0.850   4.8
    8    -1853.0206703898229534    -1.76e-02  3.91e-05  3.68e-03  2.58e-02  0.850   4.7
    9    -1853.0354207491536727    -1.48e-02  2.26e-04  2.12e-02  2.15e-02  0.000   4.5
   10    -1853.1132596348106745    -7.78e-02  1.73e-05  2.48e-03  2.71e-03  0.000   4.8
                              *** Initializing SOSCF ***
---------------------------------------S-O-S-C-F--------------------------------------
Iteration    Energy (Eh)           Delta-E    RMSDP     MaxDP     MaxGrad    Time(sec)
--------------------------------------------------------------------------------------
   11    -1853.1133875713458110    -1.28e-04  1.02e-05  1.53e-03  8.72e-04     4.9
               *** Restarting incremental Fock matrix formation ***
   12    -1853.1134280965579819    -4.05e-05  1.62e-05  1.54e-03  1.35e-03     7.8
   13    -1853.1134492143746684    -2.11e-05  1.26e-05  1.34e-03  4.27e-04     5.5
   14    -1853.1134467135343584     2.50e-06  7.44e-06  7.51e-04  6.21e-04     5.3
   15    -1853.1134551661352816    -8.45e-06  2.80e-06  2.09e-04  9.22e-05     5.0
   16    -1853.1134546656403472     5.00e-07  1.80e-06  1.23e-04  1.02e-04     4.7
   17    -1853.1134557270606820    -1.06e-06  4.58e-07  3.76e-05  1.09e-05     4.4
   18    -1853.1134557291588862    -2.10e-09  2.17e-07  1.44e-05  1.47e-05     3.9
                 **** Energy Check signals convergence ****

               *****************************************************
               *                     SUCCESS                       *
               *           SCF CONVERGED AFTER  18 CYCLES          *
               *****************************************************

Recomputing exchange energy using gridx3       ... done (    9.271 sec)
Old exchange energy                            :    -19.918448583 Eh
New exchange energy                            :    -19.918437654 Eh
Exchange energy change after final integration :      0.000010928 Eh
Total energy after final integration           :  -1853.113444801 Eh

SMD CDS free energy correction energy :                 3.06974     Kcal/mol
Total Energy after SMD CDS correction =             -1853.108552856 Eh
             **** ENERGY FILE WAS UPDATED (rf_mecn_freq_r2s_C4_D_B.en.tmp) ****

----------------
TOTAL SCF ENERGY
----------------

Total Energy       :      -1853.10855285555863 Eh          -50425.64731 eV

Components:
Nuclear Repulsion  :       2686.50312469000892 Eh           73103.46653 eV
Electronic Energy  :      -4539.53305770589213 Eh         -123526.97449 eV
One Electron Energy:      -7948.46265158136794 Eh         -216288.66465 eV
Two Electron Energy:       3408.92959387547626 Eh           92761.69016 eV
CPCM Dielectric    :         -0.08352271327595 Eh              -2.27277 eV
SMD CDS (Gcds)     :          0.00489194525131 Eh               0.13312 eV

Virial components:
Potential Energy   :      -3700.09093520588567 Eh         -100684.59305 eV
Kinetic Energy     :       1846.98238235032704 Eh           50258.94574 eV
Virial Ratio       :          2.00331685378473

DFT components:
N(Alpha)           :       95.999989243250 electrons
N(Beta)            :       94.999976738119 electrons
N(Total)           :      190.999965981369 electrons
E(X)               :     -180.220039806065 Eh       
E(C)               :       -6.650606840496 Eh       
E(XC)              :     -186.870646646561 Eh       

CPCM Solvation Model Properties:
Surface-charge          :          0.99046255802382
Corrected charge        :          1.00000000000000
Outlying charge corr.   :          0.00000509435477 Eh               0.00014 eV
Free-energy (cav+disp)  :          0.00489194525131 Eh               0.13312 eV

---------------
SCF CONVERGENCE
---------------

  Last Energy change         ...    2.0982e-09  Tolerance :   1.0000e-08
  Last MAX-Density change    ...    1.4396e-05  Tolerance :   1.0000e-07
  Last RMS-Density change    ...    2.1698e-07  Tolerance :   5.0000e-09
  Last DIIS Error            ...    8.7199e-04  Tolerance :   5.0000e-07
  Last Orbital Gradient      ...    1.4733e-05  Tolerance :   1.0000e-05
  Last Orbital Rotation      ...    2.3195e-05  Tolerance :   1.0000e-05


----------------------
UHF SPIN CONTAMINATION
----------------------

Warning: in a DFT calculation there is little theoretical justification to 
         calculate <S**2> as in Hartree-Fock theory. We will do it anyways
         but you should keep in mind that the values have only limited relevance

Expectation value of <S**2>     :     0.757001
Ideal value S*(S+1) for S=0.5   :     0.750000
Deviation                       :     0.007001

----------------
ORBITAL ENERGIES
----------------
                 SPIN UP ORBITALS
  NO   OCC          E(Eh)            E(eV) 
   0   1.0000     -24.733859      -673.0425 
   1   1.0000     -24.731314      -672.9733 
   2   1.0000     -24.730159      -672.9418 
   3   1.0000     -24.729524      -672.9246 
   4   1.0000     -24.729321      -672.9190 
   5   1.0000     -24.729010      -672.9106 
   6   1.0000     -24.727964      -672.8821 
   7   1.0000     -24.727448      -672.8681 
   8   1.0000     -24.720672      -672.6837 
   9   1.0000     -24.720446      -672.6775 
  10   1.0000     -24.707953      -672.3376 
  11   1.0000     -24.700573      -672.1368 
  12   1.0000     -24.685565      -671.7284 
  13   1.0000     -24.685417      -671.7244 
  14   1.0000     -19.048748      -518.3428 
  15   1.0000     -19.047055      -518.2967 
  16   1.0000     -10.438485      -284.0456 
  17   1.0000     -10.382855      -282.5318 
  18   1.0000     -10.380487      -282.4674 
  19   1.0000     -10.380179      -282.4590 
  20   1.0000     -10.357692      -281.8471 
  21   1.0000     -10.319813      -280.8164 
  22   1.0000     -10.298208      -280.2285 
  23   1.0000     -10.233028      -278.4548 
  24   1.0000      -1.360263       -37.0146 
  25   1.0000      -1.330348       -36.2006 
  26   1.0000      -1.313697       -35.7475 
  27   1.0000      -1.307820       -35.5876 
  28   1.0000      -1.297211       -35.2989 
  29   1.0000      -1.287559       -35.0363 
  30   1.0000      -1.271012       -34.5860 
  31   1.0000      -1.267685       -34.4955 
  32   1.0000      -1.265564       -34.4377 
  33   1.0000      -1.261781       -34.3348 
  34   1.0000      -1.254249       -34.1298 
  35   1.0000      -1.248179       -33.9647 
  36   1.0000      -1.233092       -33.5541 
  37   1.0000      -1.209646       -32.9161 
  38   1.0000      -1.028475       -27.9862 
  39   1.0000      -0.943971       -25.6867 
  40   1.0000      -0.848656       -23.0931 
  41   1.0000      -0.826385       -22.4871 
  42   1.0000      -0.786906       -21.4128 
  43   1.0000      -0.749697       -20.4003 
  44   1.0000      -0.705237       -19.1905 
  45   1.0000      -0.681475       -18.5439 
  46   1.0000      -0.652728       -17.7616 
  47   1.0000      -0.636314       -17.3150 
  48   1.0000      -0.633738       -17.2449 
  49   1.0000      -0.626523       -17.0486 
  50   1.0000      -0.612717       -16.6729 
  51   1.0000      -0.606824       -16.5125 
  52   1.0000      -0.605743       -16.4831 
  53   1.0000      -0.595956       -16.2168 
  54   1.0000      -0.591361       -16.0918 
  55   1.0000      -0.580483       -15.7957 
  56   1.0000      -0.578352       -15.7378 
  57   1.0000      -0.567733       -15.4488 
  58   1.0000      -0.566727       -15.4214 
  59   1.0000      -0.548864       -14.9353 
  60   1.0000      -0.538429       -14.6514 
  61   1.0000      -0.512794       -13.9538 
  62   1.0000      -0.499418       -13.5899 
  63   1.0000      -0.494502       -13.4561 
  64   1.0000      -0.488911       -13.3039 
  65   1.0000      -0.484877       -13.1942 
  66   1.0000      -0.480916       -13.0864 
  67   1.0000      -0.473084       -12.8733 
  68   1.0000      -0.469539       -12.7768 
  69   1.0000      -0.465360       -12.6631 
  70   1.0000      -0.458641       -12.4803 
  71   1.0000      -0.455739       -12.4013 
  72   1.0000      -0.453060       -12.3284 
  73   1.0000      -0.448766       -12.2115 
  74   1.0000      -0.448012       -12.1910 
  75   1.0000      -0.445537       -12.1237 
  76   1.0000      -0.437114       -11.8945 
  77   1.0000      -0.436763       -11.8849 
  78   1.0000      -0.433322       -11.7913 
  79   1.0000      -0.428753       -11.6670 
  80   1.0000      -0.426925       -11.6172 
  81   1.0000      -0.425420       -11.5763 
  82   1.0000      -0.424711       -11.5570 
  83   1.0000      -0.415351       -11.3023 
  84   1.0000      -0.411242       -11.1905 
  85   1.0000      -0.400690       -10.9033 
  86   1.0000      -0.396501       -10.7894 
  87   1.0000      -0.390262       -10.6196 
  88   1.0000      -0.387316       -10.5394 
  89   1.0000      -0.375624       -10.2212 
  90   1.0000      -0.356025        -9.6879 
  91   1.0000      -0.336309        -9.1514 
  92   1.0000      -0.259436        -7.0596 
  93   1.0000      -0.241017        -6.5584 
  94   1.0000      -0.223882        -6.0921 
  95   1.0000      -0.222094        -6.0435 
  96   0.0000      -0.004391        -0.1195 
  97   0.0000       0.018325         0.4986 
  98   0.0000       0.021926         0.5966 
  99   0.0000       0.049716         1.3528 
 100   0.0000       0.076024         2.0687 
 101   0.0000       0.094542         2.5726 
 102   0.0000       0.107318         2.9203 
 103   0.0000       0.114839         3.1249 
 104   0.0000       0.125593         3.4176 
 105   0.0000       0.128828         3.5056 
 106   0.0000       0.142094         3.8666 

                 SPIN DOWN ORBITALS
  NO   OCC          E(Eh)            E(eV) 
   0   1.0000     -24.731320      -672.9734 
   1   1.0000     -24.730157      -672.9418 
   2   1.0000     -24.729471      -672.9231 
   3   1.0000     -24.729330      -672.9193 
   4   1.0000     -24.728995      -672.9102 
   5   1.0000     -24.728887      -672.9072 
   6   1.0000     -24.727953      -672.8818 
   7   1.0000     -24.727439      -672.8678 
   8   1.0000     -24.720081      -672.6676 
   9   1.0000     -24.719967      -672.6645 
  10   1.0000     -24.707893      -672.3359 
  11   1.0000     -24.699258      -672.1010 
  12   1.0000     -24.685402      -671.7239 
  13   1.0000     -24.685351      -671.7226 
  14   1.0000     -19.048469      -518.3352 
  15   1.0000     -19.047006      -518.2954 
  16   1.0000     -10.438415      -284.0437 
  17   1.0000     -10.382686      -282.5272 
  18   1.0000     -10.381295      -282.4894 
  19   1.0000     -10.379625      -282.4439 
  20   1.0000     -10.358693      -281.8744 
  21   1.0000     -10.319194      -280.7995 
  22   1.0000     -10.281394      -279.7709 
  23   1.0000     -10.232987      -278.4537 
  24   1.0000      -1.360206       -37.0131 
  25   1.0000      -1.329859       -36.1873 
  26   1.0000      -1.313242       -35.7351 
  27   1.0000      -1.306357       -35.5478 
  28   1.0000      -1.295048       -35.2400 
  29   1.0000      -1.281038       -34.8588 
  30   1.0000      -1.270933       -34.5839 
  31   1.0000      -1.267235       -34.4832 
  32   1.0000      -1.265502       -34.4361 
  33   1.0000      -1.261554       -34.3286 
  34   1.0000      -1.254136       -34.1268 
  35   1.0000      -1.247068       -33.9344 
  36   1.0000      -1.231457       -33.5096 
  37   1.0000      -1.209364       -32.9085 
  38   1.0000      -1.028218       -27.9792 
  39   1.0000      -0.943650       -25.6780 
  40   1.0000      -0.839909       -22.8551 
  41   1.0000      -0.815763       -22.1980 
  42   1.0000      -0.784980       -21.3604 
  43   1.0000      -0.742972       -20.2173 
  44   1.0000      -0.700618       -19.0648 
  45   1.0000      -0.680540       -18.5184 
  46   1.0000      -0.648354       -17.6426 
  47   1.0000      -0.634707       -17.2713 
  48   1.0000      -0.632171       -17.2023 
  49   1.0000      -0.626324       -17.0431 
  50   1.0000      -0.611273       -16.6336 
  51   1.0000      -0.605619       -16.4797 
  52   1.0000      -0.602141       -16.3851 
  53   1.0000      -0.594501       -16.1772 
  54   1.0000      -0.589967       -16.0538 
  55   1.0000      -0.577876       -15.7248 
  56   1.0000      -0.576586       -15.6897 
  57   1.0000      -0.567083       -15.4311 
  58   1.0000      -0.564853       -15.3704 
  59   1.0000      -0.546919       -14.8824 
  60   1.0000      -0.537267       -14.6198 
  61   1.0000      -0.499398       -13.5893 
  62   1.0000      -0.494900       -13.4669 
  63   1.0000      -0.489652       -13.3241 
  64   1.0000      -0.485407       -13.2086 
  65   1.0000      -0.483014       -13.1435 
  66   1.0000      -0.480478       -13.0745 
  67   1.0000      -0.471051       -12.8179 
  68   1.0000      -0.468336       -12.7441 
  69   1.0000      -0.463533       -12.6134 
  70   1.0000      -0.456951       -12.4343 
  71   1.0000      -0.455211       -12.3869 
  72   1.0000      -0.452264       -12.3067 
  73   1.0000      -0.447955       -12.1895 
  74   1.0000      -0.445470       -12.1218 
  75   1.0000      -0.443669       -12.0728 
  76   1.0000      -0.436672       -11.8825 
  77   1.0000      -0.435343       -11.8463 
  78   1.0000      -0.433035       -11.7835 
  79   1.0000      -0.427921       -11.6443 
  80   1.0000      -0.425629       -11.5820 
  81   1.0000      -0.424756       -11.5582 
  82   1.0000      -0.423971       -11.5368 
  83   1.0000      -0.414553       -11.2806 
  84   1.0000      -0.409724       -11.1491 
  85   1.0000      -0.399132       -10.8609 
  86   1.0000      -0.396098       -10.7784 
  87   1.0000      -0.388777       -10.5792 
  88   1.0000      -0.386224       -10.5097 
  89   1.0000      -0.375287       -10.2121 
  90   1.0000      -0.351942        -9.5768 
  91   1.0000      -0.333400        -9.0723 
  92   1.0000      -0.240755        -6.5513 
  93   1.0000      -0.224486        -6.1086 
  94   1.0000      -0.222930        -6.0662 
  95   0.0000      -0.116280        -3.1641 
  96   0.0000      -0.002133        -0.0581 
  97   0.0000       0.022683         0.6172 
  98   0.0000       0.025325         0.6891 
  99   0.0000       0.053211         1.4480 
 100   0.0000       0.081156         2.2084 
 101   0.0000       0.102539         2.7902 
 102   0.0000       0.109459         2.9785 
 103   0.0000       0.124684         3.3928 
 104   0.0000       0.128504         3.4968 
 105   0.0000       0.138737         3.7752 
*Only the first 10 virtual orbitals were printed.

                    ********************************
                    * MULLIKEN POPULATION ANALYSIS *
                    ********************************

--------------------------------------------
MULLIKEN ATOMIC CHARGES AND SPIN POPULATIONS
--------------------------------------------
   0 C :    0.212752   -0.000476
   1 O :   -0.511245    0.008341
   2 O :   -0.522751    0.001752
   3 C :    0.351608    0.017636
   4 C :    0.341904   -0.020328
   5 C :    0.084371    0.843159
   6 C :    0.409921   -0.023398
   7 C :    0.271230    0.033371
   8 C :    0.335256    0.005570
   9 C :    0.472524    0.002808
  10 F :   -0.211048    0.000745
  11 F :   -0.213928    0.002992
  12 F :   -0.187079    0.021928
  13 F :   -0.192965    0.000581
  14 F :   -0.154677    0.087162
  15 F :   -0.176202    0.009637
  16 F :   -0.169566    0.006811
  17 F :   -0.172766    0.000273
  18 F :   -0.174315    0.000334
  19 F :   -0.164637   -0.000114
  20 F :   -0.162194    0.000287
  21 F :   -0.156847   -0.000065
  22 F :   -0.154661    0.000945
  23 F :   -0.154686    0.000049
Sum of atomic charges         :   -1.0000000
Sum of atomic spin populations:    1.0000000

-----------------------------------------------------
MULLIKEN REDUCED ORBITAL CHARGES AND SPIN POPULATIONS
-----------------------------------------------------
CHARGE
  0 C s       :     3.017059  s :     3.017059
      pz      :     0.859476  p :     2.497735
      px      :     0.833038
      py      :     0.805221
      dz2     :     0.044690  d :     0.247907
      dxz     :     0.067878
      dyz     :     0.029975
      dx2y2   :     0.062904
      dxy     :     0.042460
      f0      :     0.004573  f :     0.024547
      f+1     :     0.002751
      f-1     :     0.002601
      f+2     :     0.003207
      f-2     :     0.004868
      f+3     :     0.004073
      f-3     :     0.002474

  1 O s       :     3.801579  s :     3.801579
      pz      :     1.492272  p :     4.678769
      px      :     1.708171
      py      :     1.478326
      dz2     :     0.007580  d :     0.029057
      dxz     :     0.005805
      dyz     :     0.007782
      dx2y2   :     0.004241
      dxy     :     0.003649
      f0      :     0.000298  f :     0.001839
      f+1     :     0.000253
      f-1     :     0.000358
      f+2     :     0.000366
      f-2     :     0.000344
      f+3     :     0.000102
      f-3     :     0.000119

  2 O s       :     3.802294  s :     3.802294
      pz      :     1.737161  p :     4.689663
      px      :     1.436451
      py      :     1.516052
      dz2     :     0.003299  d :     0.028970
      dxz     :     0.006222
      dyz     :     0.002057
      dx2y2   :     0.008598
      dxy     :     0.008794
      f0      :     0.000211  f :     0.001824
      f+1     :     0.000238
      f-1     :     0.000106
      f+2     :     0.000119
      f-2     :     0.000248
      f+3     :     0.000507
      f-3     :     0.000395

  3 C s       :     3.122691  s :     3.122691
      pz      :     0.745142  p :     2.246240
      px      :     0.724838
      py      :     0.776260
      dz2     :     0.052076  d :     0.253162
      dxz     :     0.059791
      dyz     :     0.045753
      dx2y2   :     0.051855
      dxy     :     0.043687
      f0      :     0.005662  f :     0.026299
      f+1     :     0.003015
      f-1     :     0.003468
      f+2     :     0.002095
      f-2     :     0.004967
      f+3     :     0.004325
      f-3     :     0.002768

  4 C s       :     3.086660  s :     3.086660
      pz      :     0.639360  p :     2.259528
      px      :     0.779293
      py      :     0.840875
      dz2     :     0.055218  d :     0.284693
      dxz     :     0.066742
      dyz     :     0.057271
      dx2y2   :     0.054848
      dxy     :     0.050614
      f0      :     0.004775  f :     0.027215
      f+1     :     0.004322
      f-1     :     0.004876
      f+2     :     0.002627
      f-2     :     0.003992
      f+3     :     0.003595
      f-3     :     0.003028

  5 C s       :     3.239077  s :     3.239077
      pz      :     0.636485  p :     2.505184
      px      :     0.896478
      py      :     0.972221
      dz2     :     0.031408  d :     0.153385
      dxz     :     0.056438
      dyz     :     0.031071
      dx2y2   :     0.015414
      dxy     :     0.019054
      f0      :     0.004070  f :     0.017983
      f+1     :     0.003972
      f-1     :     0.002546
      f+2     :     0.002337
      f-2     :     0.002011
      f+3     :     0.001545
      f-3     :     0.001502

  6 C s       :     3.035265  s :     3.035265
      pz      :     0.614536  p :     2.225252
      px      :     0.852549
      py      :     0.758167
      dz2     :     0.079832  d :     0.301830
      dxz     :     0.061943
      dyz     :     0.054976
      dx2y2   :     0.045338
      dxy     :     0.059740
      f0      :     0.005531  f :     0.027732
      f+1     :     0.002754
      f-1     :     0.004701
      f+2     :     0.004555
      f-2     :     0.005280
      f+3     :     0.002492
      f-3     :     0.002419

  7 C s       :     3.152515  s :     3.152515
      pz      :     0.596577  p :     2.253389
      px      :     0.902998
      py      :     0.753813
      dz2     :     0.074961  d :     0.294827
      dxz     :     0.060408
      dyz     :     0.063471
      dx2y2   :     0.051928
      dxy     :     0.044059
      f0      :     0.005147  f :     0.028040
      f+1     :     0.003448
      f-1     :     0.006097
      f+2     :     0.003950
      f-2     :     0.004517
      f+3     :     0.002577
      f-3     :     0.002302

  8 C s       :     3.097583  s :     3.097583
      pz      :     0.662546  p :     2.252834
      px      :     0.895484
      py      :     0.694804
      dz2     :     0.060885  d :     0.286297
      dxz     :     0.046049
      dyz     :     0.078787
      dx2y2   :     0.049108
      dxy     :     0.051468
      f0      :     0.004744  f :     0.028030
      f+1     :     0.003219
      f-1     :     0.006448
      f+2     :     0.003224
      f-2     :     0.003735
      f+3     :     0.003530
      f-3     :     0.003130

  9 C s       :     3.021032  s :     3.021032
      pz      :     0.698835  p :     2.107785
      px      :     0.681819
      py      :     0.727131
      dz2     :     0.059282  d :     0.358037
      dxz     :     0.082284
      dyz     :     0.076392
      dx2y2   :     0.061491
      dxy     :     0.078588
      f0      :     0.006594  f :     0.040622
      f+1     :     0.006277
      f-1     :     0.006642
      f+2     :     0.005688
      f-2     :     0.002689
      f+3     :     0.004782
      f-3     :     0.007950

 10 F s       :     3.923253  s :     3.923253
      pz      :     1.904843  p :     5.271409
      px      :     1.642861
      py      :     1.723705
      dz2     :     0.002241  d :     0.015723
      dxz     :     0.001995
      dyz     :     0.001575
      dx2y2   :     0.003766
      dxy     :     0.006146
      f0      :     0.000060  f :     0.000662
      f+1     :     0.000085
      f-1     :     0.000062
      f+2     :     0.000009
      f-2     :     0.000091
      f+3     :     0.000155
      f-3     :     0.000199

 11 F s       :     3.921745  s :     3.921745
      pz      :     1.562161  p :     5.275841
      px      :     1.822895
      py      :     1.890785
      dz2     :     0.005597  d :     0.015676
      dxz     :     0.005268
      dyz     :     0.002712
      dx2y2   :     0.000991
      dxy     :     0.001108
      f0      :     0.000163  f :     0.000667
      f+1     :     0.000235
      f-1     :     0.000081
      f+2     :     0.000084
      f-2     :     0.000082
      f+3     :     0.000010
      f-3     :     0.000012

 12 F s       :     3.923222  s :     3.923222
      pz      :     1.856830  p :     5.247194
      px      :     1.684888
      py      :     1.705476
      dz2     :     0.002012  d :     0.015983
      dxz     :     0.002584
      dyz     :     0.002161
      dx2y2   :     0.003536
      dxy     :     0.005690
      f0      :     0.000069  f :     0.000680
      f+1     :     0.000066
      f-1     :     0.000052
      f+2     :     0.000035
      f-2     :     0.000146
      f+3     :     0.000148
      f-3     :     0.000165

 13 F s       :     3.929736  s :     3.929736
      pz      :     1.502318  p :     5.246099
      px      :     1.872325
      py      :     1.871455
      dz2     :     0.007051  d :     0.016444
      dxz     :     0.004184
      dyz     :     0.003939
      dx2y2   :     0.000508
      dxy     :     0.000762
      f0      :     0.000236  f :     0.000686
      f+1     :     0.000184
      f-1     :     0.000159
      f+2     :     0.000042
      f-2     :     0.000058
      f+3     :     0.000005
      f-3     :     0.000003

 14 F s       :     3.930458  s :     3.930458
      pz      :     1.506170  p :     5.204991
      px      :     1.895822
      py      :     1.802999
      dz2     :     0.007445  d :     0.018462
      dxz     :     0.004080
      dyz     :     0.005582
      dx2y2   :     0.000751
      dxy     :     0.000605
      f0      :     0.000259  f :     0.000766
      f+1     :     0.000148
      f-1     :     0.000235
      f+2     :     0.000063
      f-2     :     0.000054
      f+3     :     0.000004
      f-3     :     0.000004

 15 F s       :     3.928679  s :     3.928679
      pz      :     1.603117  p :     5.230430
      px      :     1.798066
      py      :     1.829248
      dz2     :     0.004427  d :     0.016408
      dxz     :     0.004929
      dyz     :     0.003960
      dx2y2   :     0.001497
      dxy     :     0.001594
      f0      :     0.000109  f :     0.000685
      f+1     :     0.000180
      f-1     :     0.000130
      f+2     :     0.000097
      f-2     :     0.000129
      f+3     :     0.000018
      f-3     :     0.000023

 16 F s       :     3.928760  s :     3.928760
      pz      :     1.659614  p :     5.223195
      px      :     1.898604
      py      :     1.664977
      dz2     :     0.003404  d :     0.016896
      dxz     :     0.002052
      dyz     :     0.006759
      dx2y2   :     0.002688
      dxy     :     0.001992
      f0      :     0.000084  f :     0.000714
      f+1     :     0.000030
      f-1     :     0.000228
      f+2     :     0.000183
      f-2     :     0.000103
      f+3     :     0.000040
      f-3     :     0.000047

 17 F s       :     3.930506  s :     3.930506
      pz      :     1.713054  p :     5.224305
      px      :     1.881113
      py      :     1.630138
      dz2     :     0.002751  d :     0.017234
      dxz     :     0.001983
      dyz     :     0.006376
      dx2y2   :     0.003400
      dxy     :     0.002724
      f0      :     0.000079  f :     0.000721
      f+1     :     0.000022
      f-1     :     0.000178
      f+2     :     0.000181
      f-2     :     0.000124
      f+3     :     0.000063
      f-3     :     0.000073

 18 F s       :     3.932459  s :     3.932459
      pz      :     1.522040  p :     5.223913
      px      :     1.845143
      py      :     1.856730
      dz2     :     0.006501  d :     0.017230
      dxz     :     0.004788
      dyz     :     0.004073
      dx2y2   :     0.000980
      dxy     :     0.000887
      f0      :     0.000202  f :     0.000714
      f+1     :     0.000194
      f-1     :     0.000163
      f+2     :     0.000071
      f-2     :     0.000071
      f+3     :     0.000006
      f-3     :     0.000008

 19 F s       :     3.928108  s :     3.928108
      pz      :     1.836803  p :     5.218580
      px      :     1.873521
      py      :     1.508256
      dz2     :     0.002203  d :     0.017226
      dxz     :     0.000815
      dyz     :     0.004810
      dx2y2   :     0.005422
      dxy     :     0.003975
      f0      :     0.000077  f :     0.000723
      f+1     :     0.000009
      f-1     :     0.000121
      f+2     :     0.000149
      f-2     :     0.000070
      f+3     :     0.000136
      f-3     :     0.000160

 20 F s       :     3.926386  s :     3.926386
      pz      :     1.498457  p :     5.217781
      px      :     1.833821
      py      :     1.885502
      dz2     :     0.007209  d :     0.017292
      dxz     :     0.005360
      dyz     :     0.003312
      dx2y2   :     0.000813
      dxy     :     0.000599
      f0      :     0.000241  f :     0.000734
      f+1     :     0.000241
      f-1     :     0.000125
      f+2     :     0.000069
      f-2     :     0.000049
      f+3     :     0.000005
      f-3     :     0.000004

 21 F s       :     3.924639  s :     3.924639
      pz      :     1.866032  p :     5.214105
      px      :     1.851522
      py      :     1.496552
      dz2     :     0.002393  d :     0.017336
      dxz     :     0.000610
      dyz     :     0.004106
      dx2y2   :     0.005676
      dxy     :     0.004551
      f0      :     0.000075  f :     0.000767
      f+1     :     0.000020
      f-1     :     0.000132
      f+2     :     0.000108
      f-2     :     0.000062
      f+3     :     0.000193
      f-3     :     0.000176

 22 F s       :     3.923002  s :     3.923002
      pz      :     1.880259  p :     5.213507
      px      :     1.449155
      py      :     1.884093
      dz2     :     0.002488  d :     0.017373
      dxz     :     0.004067
      dyz     :     0.000205
      dx2y2   :     0.006786
      dxy     :     0.003827
      f0      :     0.000072  f :     0.000778
      f+1     :     0.000151
      f-1     :     0.000012
      f+2     :     0.000128
      f-2     :     0.000017
      f+3     :     0.000233
      f-3     :     0.000165

 23 F s       :     3.923167  s :     3.923167
      pz      :     1.460208  p :     5.213237
      px      :     1.876182
      py      :     1.876847
      dz2     :     0.008578  d :     0.017500
      dxz     :     0.004053
      dyz     :     0.004129
      dx2y2   :     0.000448
      dxy     :     0.000293
      f0      :     0.000328  f :     0.000782
      f+1     :     0.000190
      f-1     :     0.000195
      f+2     :     0.000037
      f-2     :     0.000028
      f+3     :     0.000003
      f-3     :     0.000002


SPIN
  0 C s       :    -0.001178  s :    -0.001178
      pz      :     0.001372  p :     0.000520
      px      :    -0.000120
      py      :    -0.000732
      dz2     :     0.000100  d :     0.000131
      dxz     :     0.000006
      dyz     :     0.000216
      dx2y2   :     0.000014
      dxy     :    -0.000205
      f0      :    -0.000002  f :     0.000052
      f+1     :     0.000011
      f-1     :     0.000006
      f+2     :    -0.000000
      f-2     :     0.000021
      f+3     :     0.000017
      f-3     :    -0.000001

  1 O s       :     0.000335  s :     0.000335
      pz      :     0.005701  p :     0.008021
      px      :     0.001696
      py      :     0.000623
      dz2     :    -0.000016  d :    -0.000011
      dxz     :     0.000006
      dyz     :     0.000001
      dx2y2   :    -0.000001
      dxy     :    -0.000002
      f0      :    -0.000000  f :    -0.000004
      f+1     :    -0.000000
      f-1     :    -0.000001
      f+2     :    -0.000002
      f-2     :    -0.000001
      f+3     :     0.000000
      f-3     :     0.000000

  2 O s       :     0.000175  s :     0.000175
      pz      :     0.000610  p :     0.001570
      px      :    -0.000405
      py      :     0.001366
      dz2     :     0.000001  d :     0.000005
      dxz     :    -0.000000
      dyz     :     0.000002
      dx2y2   :     0.000010
      dxy     :    -0.000008
      f0      :     0.000000  f :     0.000001
      f+1     :     0.000000
      f-1     :     0.000000
      f+2     :    -0.000000
      f-2     :     0.000000
      f+3     :     0.000001
      f-3     :     0.000000

  3 C s       :    -0.000573  s :    -0.000573
      pz      :     0.001321  p :     0.017755
      px      :    -0.002966
      py      :     0.019400
      dz2     :    -0.000124  d :     0.000433
      dxz     :     0.000228
      dyz     :     0.000047
      dx2y2   :     0.000355
      dxy     :    -0.000072
      f0      :    -0.000009  f :     0.000021
      f+1     :    -0.000012
      f-1     :     0.000001
      f+2     :    -0.000012
      f-2     :     0.000004
      f+3     :     0.000006
      f-3     :     0.000043

  4 C s       :    -0.017274  s :    -0.017274
      pz      :    -0.012156  p :    -0.018865
      px      :    -0.010968
      py      :     0.004259
      dz2     :     0.000291  d :     0.014403
      dxz     :    -0.000202
      dyz     :     0.001460
      dx2y2   :     0.000134
      dxy     :     0.012720
      f0      :     0.000036  f :     0.001409
      f+1     :     0.000149
      f-1     :     0.000043
      f+2     :     0.000064
      f-2     :     0.000722
      f+3     :     0.000138
      f-3     :     0.000257

  5 C s       :     0.066441  s :     0.066441
      pz      :     0.044851  p :     0.777396
      px      :     0.052825
      py      :     0.679720
      dz2     :    -0.000323  d :     0.002281
      dxz     :     0.001127
      dyz     :     0.001579
      dx2y2   :    -0.001918
      dxy     :     0.001815
      f0      :    -0.000474  f :    -0.002959
      f+1     :    -0.000044
      f-1     :    -0.000743
      f+2     :    -0.000554
      f-2     :    -0.000130
      f+3     :    -0.000686
      f-3     :    -0.000329

  6 C s       :    -0.007498  s :    -0.007498
      pz      :    -0.007279  p :    -0.038638
      px      :    -0.025466
      py      :    -0.005893
      dz2     :     0.000377  d :     0.021424
      dxz     :     0.002914
      dyz     :     0.000814
      dx2y2   :     0.001129
      dxy     :     0.016190
      f0      :     0.000073  f :     0.001315
      f+1     :     0.000092
      f-1     :     0.000136
      f+2     :     0.000051
      f-2     :     0.000058
      f+3     :     0.000320
      f-3     :     0.000585

  7 C s       :    -0.000750  s :    -0.000750
      pz      :     0.003153  p :     0.029618
      px      :     0.008743
      py      :     0.017721
      dz2     :     0.000467  d :     0.004535
      dxz     :     0.000207
      dyz     :     0.000011
      dx2y2   :     0.003551
      dxy     :     0.000298
      f0      :    -0.000017  f :    -0.000032
      f+1     :     0.000004
      f-1     :    -0.000020
      f+2     :     0.000009
      f-2     :    -0.000002
      f+3     :     0.000001
      f-3     :    -0.000007

  8 C s       :    -0.001262  s :    -0.001262
      pz      :    -0.000028  p :     0.005932
      px      :     0.004489
      py      :     0.001471
      dz2     :     0.000033  d :     0.000865
      dxz     :     0.000136
      dyz     :     0.000040
      dx2y2   :     0.000214
      dxy     :     0.000442
      f0      :     0.000002  f :     0.000035
      f+1     :    -0.000000
      f-1     :     0.000003
      f+2     :    -0.000001
      f-2     :    -0.000002
      f+3     :     0.000002
      f-3     :     0.000031

  9 C s       :     0.001071  s :     0.001071
      pz      :     0.000599  p :     0.001440
      px      :    -0.000296
      py      :     0.001138
      dz2     :     0.000039  d :     0.000277
      dxz     :    -0.000032
      dyz     :     0.000046
      dx2y2   :     0.000242
      dxy     :    -0.000018
      f0      :    -0.000003  f :     0.000020
      f+1     :    -0.000000
      f-1     :    -0.000001
      f+2     :     0.000015
      f-2     :     0.000001
      f+3     :    -0.000000
      f-3     :     0.000008

 10 F s       :     0.000638  s :     0.000638
      pz      :     0.000044  p :    -0.000020
      px      :    -0.000400
      py      :     0.000335
      dz2     :     0.000017  d :     0.000121
      dxz     :     0.000011
      dyz     :     0.000001
      dx2y2   :     0.000032
      dxy     :     0.000059
      f0      :     0.000000  f :     0.000006
      f+1     :     0.000000
      f-1     :     0.000000
      f+2     :     0.000000
      f-2     :     0.000000
      f+3     :     0.000005
      f-3     :     0.000000

 11 F s       :     0.000149  s :     0.000149
      pz      :    -0.000162  p :     0.002797
      px      :     0.000277
      py      :     0.002682
      dz2     :     0.000020  d :     0.000046
      dxz     :     0.000001
      dyz     :     0.000020
      dx2y2   :    -0.000000
      dxy     :     0.000005
      f0      :     0.000001  f :     0.000001
      f+1     :     0.000000
      f-1     :     0.000000
      f+2     :    -0.000000
      f-2     :     0.000000
      f+3     :    -0.000000
      f-3     :     0.000000

 12 F s       :     0.000418  s :     0.000418
      pz      :    -0.000017  p :     0.021522
      px      :     0.017585
      py      :     0.003954
      dz2     :    -0.000005  d :    -0.000021
      dxz     :     0.000035
      dyz     :    -0.000004
      dx2y2   :    -0.000043
      dxy     :    -0.000003
      f0      :     0.000001  f :     0.000009
      f+1     :     0.000001
      f-1     :     0.000000
      f+2     :     0.000001
      f-2     :     0.000001
      f+3     :     0.000002
[...]
 15:    119.61   0.001096    5.54  0.002861  ( 0.041068 -0.033121  0.008775)
 16:    165.45   0.000145    0.73  0.000274  ( 0.008628  0.000592  0.014112)
 17:    177.86   0.000909    4.59  0.001595  (-0.022826  0.026594  0.019154)
 18:    186.43   0.000889    4.49  0.001488  (-0.019653  0.011206 -0.031244)
 19:    200.67   0.001280    6.47  0.001990  ( 0.019053  0.028449 -0.028595)
 20:    222.69   0.000654    3.31  0.000917  (-0.021861 -0.003849 -0.020594)
 21:    236.31   0.000085    0.43  0.000113  ( 0.008133  0.004799  0.004864)
 22:    240.99   0.000158    0.80  0.000204  (-0.002402 -0.012486 -0.006513)
 23:    243.11   0.000107    0.54  0.000137  ( 0.007999  0.001044 -0.008493)
 24:    258.14   0.000318    1.61  0.000385  ( 0.014109 -0.004683  0.012798)
 25:    282.29   0.000950    4.80  0.001050  (-0.030538  0.003178  0.010347)
 26:    287.05   0.000633    3.20  0.000688  ( 0.023649  0.004063  0.010596)
 27:    315.33   0.000189    0.95  0.000187  (-0.010614  0.008557  0.001019)
 28:    330.18   0.000236    1.19  0.000223  (-0.011123  0.009970  0.000236)
 29:    346.00   0.000117    0.59  0.000105  (-0.000142 -0.003799  0.009531)
 30:    358.56   0.000052    0.26  0.000045  (-0.005921  0.001153 -0.002989)
 31:    365.42   0.000250    1.26  0.000213  (-0.003139  0.004403 -0.013570)
 32:    371.78   0.000363    1.83  0.000304  (-0.013261  0.011324  0.000539)
 33:    379.72   0.000045    0.23  0.000037  (-0.005166 -0.002347  0.002114)
 34:    409.24   0.000690    3.49  0.000526  (-0.016547 -0.015067 -0.005021)
 35:    439.98   0.000453    2.29  0.000321  ( 0.001232  0.017833 -0.001251)
 36:    454.97   0.001111    5.62  0.000762  ( 0.014284 -0.021661  0.009440)
 37:    514.75   0.000424    2.14  0.000257  (-0.011481 -0.008235  0.007588)
 38:    531.89   0.007193   36.35  0.004220  (-0.062931  0.015251  0.005221)
 39:    552.99   0.000718    3.63  0.000405  ( 0.011611  0.011851 -0.011406)
 40:    564.15   0.003289   16.62  0.001819  ( 0.030217 -0.019559  0.022887)
 41:    578.16   0.003955   19.99  0.002135  (-0.018075  0.037743  0.019582)
 42:    592.20   0.007595   38.38  0.004002  (-0.055690 -0.029535 -0.005324)
 43:    606.29   0.001822    9.21  0.000938  ( 0.021226 -0.020248  0.008785)
 44:    635.03   0.007076   35.76  0.003477  ( 0.058335 -0.008608 -0.000542)
 45:    660.37   0.009338   47.19  0.004413  (-0.059752  0.020518  0.020528)
 46:    694.88   0.016876   85.28  0.007579  (-0.085909  0.006459  0.012511)
 47:    706.62   0.006998   35.37  0.003091  ( 0.016269  0.040469  0.034471)
 48:    737.59   0.019979  100.97  0.008453  (-0.062296 -0.053731 -0.041050)
 49:    788.29   0.007515   37.98  0.002975  (-0.050773 -0.019858 -0.001647)
 50:    801.07   0.021548  108.89  0.008394  (-0.049516  0.007008  0.076768)
 51:    877.64   0.010858   54.87  0.003861  (-0.035716 -0.041146 -0.029869)
 52:   1005.44   0.003118   15.76  0.000968  ( 0.008531 -0.023213  0.018870)
 53:   1063.74   0.038368  193.90  0.011256  (-0.101821 -0.028417  0.008985)
 54:   1104.55   0.054620  276.02  0.015431  (-0.096650 -0.052578 -0.057669)
 55:   1118.69   0.019315   97.61  0.005388  ( 0.035145  0.057451  0.029195)
 56:   1125.24   0.030926  156.29  0.008577  ( 0.023954 -0.070370  0.055237)
 57:   1140.79   0.099102  500.82  0.027109  ( 0.027561 -0.126830 -0.101310)
 58:   1150.68   0.024861  125.64  0.006742  (-0.004472  0.048001 -0.066469)
 59:   1162.30   0.008544   43.18  0.002294  ( 0.005588  0.002345  0.047509)
 60:   1168.77   0.053958  272.68  0.014407  ( 0.016646 -0.055106  0.105324)
 61:   1180.03   0.074227  375.11  0.019630  ( 0.051536  0.017871 -0.129052)
 62:   1190.81   0.122605  619.59  0.032130  ( 0.066159 -0.139300  0.091369)
 63:   1208.12   0.024778  125.22  0.006400  ( 0.052181  0.017504 -0.058060)
 64:   1209.68   0.064004  323.45  0.016511  (-0.020540 -0.055602  0.114008)
 65:   1233.93   0.020843  105.33  0.005271  (-0.068906 -0.003708  0.022573)
 66:   1281.11   0.004621   23.35  0.001126  ( 0.028229 -0.007890 -0.016328)
 67:   1341.09   0.009208   46.53  0.002143  ( 0.030368 -0.020121 -0.028559)
 68:   1347.68   0.033589  169.74  0.007778  ( 0.037231  0.025293  0.075840)
 69:   1364.71   0.077482  391.56  0.017718  ( 0.110638 -0.021293 -0.070877)
 70:   1406.09   0.004726   23.88  0.001049  (-0.030094  0.011296  0.003947)
 71:   1756.50   0.159936  808.25  0.028415  ( 0.112690  0.097145  0.079237)

* The epsilon (eps) is given for a Dirac delta lineshape.
** The dipole moment derivative (T) already includes vibrational overlap.

The first frequency considered to be a vibration is 6
The total number of vibrations considered is 66


--------------------------
THERMOCHEMISTRY AT 298.15K
--------------------------

Temperature         ...   298.15 K
Pressure            ...     1.00 atm
Total Mass          ...   394.06 AMU
Quasi RRHO          ...     True
Cut-Off Frequency   ...     1.00 cm^-1

Throughout the following assumptions are being made:
  (1) The electronic state is orbitally nondegenerate
      but the spin degeneracy is treated
  (2) There are no thermally accessible electronically excited states
  (3) Hindered rotations indicated by low frequency modes are not
      treated as such but are treated as vibrations and this may
      cause some error
  (4) All equations used are the standard statistical mechanics
      equations for an ideal gas
  (5) All vibrations are strictly harmonic

freq.      18.54  E(vib)   ...       0.57 
freq.      23.42  E(vib)   ...       0.56 
freq.      26.02  E(vib)   ...       0.56 
freq.      37.46  E(vib)   ...       0.54 
freq.      50.57  E(vib)   ...       0.52 
freq.      54.17  E(vib)   ...       0.52 
freq.      62.03  E(vib)   ...       0.51 
freq.      88.45  E(vib)   ...       0.48 
freq.     108.07  E(vib)   ...       0.45 
freq.     119.61  E(vib)   ...       0.44 
freq.     165.45  E(vib)   ...       0.39 
freq.     177.86  E(vib)   ...       0.37 
freq.     186.43  E(vib)   ...       0.37 
freq.     200.67  E(vib)   ...       0.35 
freq.     222.69  E(vib)   ...       0.33 
freq.     236.31  E(vib)   ...       0.32 
freq.     240.99  E(vib)   ...       0.31 
freq.     243.11  E(vib)   ...       0.31 
freq.     258.14  E(vib)   ...       0.30 
freq.     282.29  E(vib)   ...       0.28 
freq.     287.05  E(vib)   ...       0.27 
freq.     315.33  E(vib)   ...       0.25 
freq.     330.18  E(vib)   ...       0.24 
freq.     346.00  E(vib)   ...       0.23 
freq.     358.56  E(vib)   ...       0.22 
freq.     365.42  E(vib)   ...       0.22 
freq.     371.78  E(vib)   ...       0.21 
freq.     379.72  E(vib)   ...       0.21 
freq.     409.24  E(vib)   ...       0.19 
freq.     439.98  E(vib)   ...       0.17 
freq.     454.97  E(vib)   ...       0.16 
freq.     514.75  E(vib)   ...       0.13 
freq.     531.89  E(vib)   ...       0.13 
freq.     552.99  E(vib)   ...       0.12 
freq.     564.15  E(vib)   ...       0.11 
freq.     578.16  E(vib)   ...       0.11 
freq.     592.20  E(vib)   ...       0.10 
freq.     606.29  E(vib)   ...       0.10 
freq.     635.03  E(vib)   ...       0.09 
freq.     660.37  E(vib)   ...       0.08 
freq.     694.88  E(vib)   ...       0.07 
freq.     706.62  E(vib)   ...       0.07 
freq.     737.59  E(vib)   ...       0.06 
freq.     788.29  E(vib)   ...       0.05 
freq.     801.07  E(vib)   ...       0.05 
freq.     877.64  E(vib)   ...       0.04 
freq.    1005.44  E(vib)   ...       0.02 
freq.    1063.74  E(vib)   ...       0.02 
freq.    1104.55  E(vib)   ...       0.02 
freq.    1118.69  E(vib)   ...       0.01 
freq.    1125.24  E(vib)   ...       0.01 
freq.    1140.79  E(vib)   ...       0.01 
freq.    1150.68  E(vib)   ...       0.01 
freq.    1162.30  E(vib)   ...       0.01 
freq.    1168.77  E(vib)   ...       0.01 
freq.    1180.03  E(vib)   ...       0.01 
freq.    1190.81  E(vib)   ...       0.01 
freq.    1208.12  E(vib)   ...       0.01 
freq.    1209.68  E(vib)   ...       0.01 
freq.    1233.93  E(vib)   ...       0.01 
freq.    1281.11  E(vib)   ...       0.01 
freq.    1341.09  E(vib)   ...       0.01 
freq.    1347.68  E(vib)   ...       0.01 
freq.    1364.71  E(vib)   ...       0.01 
freq.    1406.09  E(vib)   ...       0.00 
freq.    1756.50  E(vib)   ...       0.00 

------------
INNER ENERGY
------------

The inner energy is: U= E(el) + E(ZPE) + E(vib) + E(rot) + E(trans)
    E(el)   - is the total energy from the electronic structure calculation
              = E(kin-el) + E(nuc-el) + E(el-el) + E(nuc-nuc)
    E(ZPE)  - the the zero temperature vibrational energy from the frequency calculation
    E(vib)  - the the finite temperature correction to E(ZPE) due to population
              of excited vibrational states
    E(rot)  - is the rotational thermal energy
    E(trans)- is the translational thermal energy

Summary of contributions to the inner energy U:
Electronic energy                ...  -1853.11690576 Eh
Zero point energy                ...      0.09400265 Eh      58.99 kcal/mol
Thermal vibrational correction   ...      0.01970692 Eh      12.37 kcal/mol
Thermal rotational correction    ...      0.00141627 Eh       0.89 kcal/mol
Thermal translational correction ...      0.00141627 Eh       0.89 kcal/mol
-----------------------------------------------------------------------
Total thermal energy                  -1853.00036365 Eh


Summary of corrections to the electronic energy:
(perhaps to be used in another calculation)
Total thermal correction                  0.02253946 Eh      14.14 kcal/mol
Non-thermal (ZPE) correction              0.09400265 Eh      58.99 kcal/mol
-----------------------------------------------------------------------
Total correction                          0.11654211 Eh      73.13 kcal/mol


--------
ENTHALPY
--------

The enthalpy is H = U + kB*T
                kB is Boltzmann's constant
Total thermal energy              ...  -1853.00036365 Eh 
Thermal Enthalpy correction       ...      0.00094421 Eh       0.59 kcal/mol
-----------------------------------------------------------------------
Total Enthalpy                    ...  -1852.99941944 Eh


Note: Only C1 symmetry has been detected, increase convergence thresholds 
      if your molecule has a higher symmetry. Symmetry factor of 1.0 is   
      used for the rotational entropy correction. 
 

Note: Rotational entropy computed according to Herzberg 
Infrared and Raman Spectra, Chapter V,1, Van Nostrand Reinhold, 1945 
Point Group:  C1, Symmetry Number:   1  
Rotational constants in cm-1:     0.016206     0.005024     0.004592 

Vibrational entropy computed according to the QRRHO of S. Grimme
Chem.Eur.J. 2012 18 9955 using a reference frequency of 100.0 cm-1


-------
ENTROPY
-------

The entropy contributions are T*S = T*(S(el)+S(vib)+S(rot)+S(trans))
     S(el)   - electronic entropy
     S(vib)  - vibrational entropy
     S(rot)  - rotational entropy
     S(trans)- translational entropy
The entropies will be listed as multiplied by the temperature to get
units of energy

Electronic entropy                ...      0.00065446 Eh      0.41 kcal/mol
Vibrational entropy               ...      0.03587032 Eh     22.51 kcal/mol
Rotational entropy                ...      0.01649747 Eh     10.35 kcal/mol
Translational entropy             ...      0.02081341 Eh     13.06 kcal/mol
-----------------------------------------------------------------------
Final entropy term                ...      0.07383566 Eh     46.33 kcal/mol

In case the symmetry of your molecule has not been determined correctly
or in case you have a reason to use a different symmetry number we print 
out the resulting rotational entropy values for sn=1,12:

 non-linear molecules -----------------------------------
|  sn= 1 | S(rot)=       0.01649747 Eh     10.35 kcal/mol|
|  sn= 2 | S(rot)=       0.01584301 Eh      9.94 kcal/mol|
|  sn= 3 | S(rot)=       0.01546018 Eh      9.70 kcal/mol|
|  sn= 4 | S(rot)=       0.01518856 Eh      9.53 kcal/mol|
|  sn= 5 | S(rot)=       0.01497787 Eh      9.40 kcal/mol|
|  sn= 6 | S(rot)=       0.01480573 Eh      9.29 kcal/mol|
|  sn= 7 | S(rot)=       0.01466018 Eh      9.20 kcal/mol|
|  sn= 8 | S(rot)=       0.01453410 Eh      9.12 kcal/mol|
|  sn= 9 | S(rot)=       0.01442289 Eh      9.05 kcal/mol|
|  sn=10 | S(rot)=       0.01432341 Eh      8.99 kcal/mol|
|  sn=11 | S(rot)=       0.01423342 Eh      8.93 kcal/mol|
|  sn=12 | S(rot)=       0.01415127 Eh      8.88 kcal/mol|
 linear molecules ---------------------------------------
|  Dinfh | S(rot)=       0.01040879 Eh      6.53 kcal/mol|
|  Cinfv | S(rot)=       0.01106324 Eh      6.94 kcal/mol|
 --------------------------------------------------------


-------------------
GIBBS FREE ENERGY
-------------------

The Gibbs free energy is G = H - T*S

Total enthalpy                    ...  -1852.99941944 Eh 
Total entropy correction          ...     -0.07383566 Eh    -46.33 kcal/mol
-----------------------------------------------------------------------
Final Gibbs free energy         ...  -1853.07325510 Eh

For completeness - the Gibbs free energy minus the electronic energy
G-E(el)                           ...      0.04365067 Eh     27.39 kcal/mol


Maximum memory used throughout the entire PROP-calculation: 525.0 MB

--------------------------------
SUGGESTED CITATIONS FOR THIS RUN
--------------------------------

Below you find a list of papers that are relevant to this ORCA run
We neither can nor want to force you to cite these papers, but we appreciate if you do
You receive ORCA, which is the product of decades of hard work by many enthusiastic individuals, for free
The only thing we kindly ask in return is that you cite our papers,
We deeply appreciate it, if you show your appreciation for ORCA by not just citing the generic ORCA reference.

Please note that relegating all ORCA citations to the supporting information does *not* help us.
SI sections are not indexed - citations you put there will not count into any citation statistics
But we need these citations in order to attract the funding resources that allow us to do what we are doing

Therefore, if you are a happy ORCA user, please consider citing a few of the papers listed below in the main body of your paper

In addition to the list printed below, the program has created the file rf_mecn_freq_r2s_C4_D_B.bibtex that contains the list in bibtex format
You can import this file easily into all common literature databanks and citation aid programs


List of essential papers. We consider these as the minimum necessary citations

  1. Neese,F.
     Software update: the ORCA program system, version 5.0
     WIRES Comput. Molec. Sci., 2022 12(1)e1606
     doi.org/10.1002/wcms.1606

List of papers to cite with high priority. The work reported in these papers was absolutely
necessary for this run to complete.
Our perspective: the developers of density functionals and basis sets usually get cited in chemistry papers
Good! But without the algorithms to do something with them, the functionals or basis sets would not do anything.
Hence, in our opinion, the algorithm design and method developments papers are equally worthy of getting cited

  1. Neese,F.
     An improvement of the resolution of the identity approximation for the formation of the Coulomb matrix
     J. Comp. Chem., 2003 24(14)1740-1747
     doi.org/10.1002/jcc.10318
  2. Neese,F.; Wennmohs,F.; Hansen,A.; Becker,U.
     Efficient, approximate and parallel Hartree-Fock and hybrid DFT calculations. A 'chain-of-spheres' algorithm for the Hartree-Fock exchange
     Chem. Phys., 2009 356(1-3)98-109
     doi.org/10.1016/j.chemphys.2008.10.036
  3. Bykov,D.; Petrenko,T.; Izsak,R.; Kossmann,S.; Becker,U.; Valeev,E.; Neese,F.
     Efficient implementation of the analytic second derivatives of Hartree-Fock and hybrid DFT energies: a detailed analysis of different approximations
     Molec. Phys., 2015 113 1961-1977
     doi.org/10.1080/00268976.2015.1025114
  4. Garcia-Rates,M.; Neese,F.
     Efficient implementation of the analytical second derivatives of hartree-fock and hybrid DFT energies within the framework of the conductor-like polarizable continuum model
     J. Comput. Chem., 2019 40 1816-1828
     doi.org/10.1002/jcc.25833
  5. Garcia-Rates,M.; Neese,F.
     Effect of the Solute Cavity on the Solvation Energy and its Derivatives within the Framework of the Gaussian Charge Scheme
     J. Comput. Chem., 2020 41 922-939
     doi.org/10.1002/jcc.26139
  6. Helmich-Paris,B.; de Souza,B.; Neese,F.; Izsák,R.
     An improved chain of spheres for exchange algorithm
     J. Chem. Phys., 2021 155 104109
     doi.org/doi: 10.1063/5.0058766.
  7. Neese,F.
     The SHARK Integral Generation and Digestion System
     J. Comp. Chem., 2022  1-16
     doi.org/10.1002/jcc.26942
  8. Lehtola,S.; Steigemann,C.; Oliveira,M.; Marques,M.
     Recent developments in Libxc - A comprehensive library of functionals for density functional theory
     Software X, 2018 7 
     doi.org/10.1016/j.softx.2017.11.002
  9. Grimme,S.; Antony,J.; Ehrlich,S.; Krieg,H.
     A consistent and accurate ab initio parametrization of density functional dispersion correction (DFT-D) for the 94 elements H-Pu
     J. Chem. Phys., 2010 132 154104
     doi.org/10.1063/1.3382344
 10. Grimme,S.; Ehrlich,S.; Goerigk,L.
     Effect of the damping function in dispersion corrected density functional theory
     J. Comput. Chem., 2011 32(7)1456-1465
     doi.org/10.1002/jcc.21759
 11. Bursch,M.; Neugebauer,H.; Ehlert,S.; Grimme,S.
     Dispersion corrected r2SCAN based global hybrid functionals: r2SCANh, r2SCAN0, and r2SCAN50
     J. Phys. Chem., 2022 156(13)134105
     doi.org/10.1063/5.0086040

List of suggested additional citations. These are papers that are important in the 'surrounding' of 
of this run, or papers that preceded the highly important papers. If you like your results we are grateful for a citation.

  1. Izsak,R.; Neese,F.
     An overlap fitted chain of spheres exchange method
     J. Chem. Phys., 2011 135 144105
     doi.org/10.1063/1.3646921
  2. Izsak,R.; Hansen,A.; Neese,F.
     The resolution of identity and chain of spheres approximations for the LPNO-CCSD singles Fock term
     Molec. Phys., 2012 110 2413-2417
     doi.org/10.1080/00268976.2012.687466
  3. Neese,F.
     The ORCA program system
     WIRES Comput. Molec. Sci., 2012 2(1)73-78
     doi.org/10.1002/wcms.81
  4. Izsak,R.; Neese,F.; Klopper,W.
     Robust fitting techniques in the chain of spheres approximation to the Fock exchange: The role of the complementary space
     J. Chem. Phys., 2013 139 
     doi.org/10.1063/1.4819264
  5. Neese,F.
     Software update: the ORCA program system, version 4.0
     WIRES Comput. Molec. Sci., 2018 8(1)1-6
     doi.org/10.1002/wcms.1327
  6. Neese,F.; Wennmohs,F.; Becker,U.; Riplinger,C.
     The ORCA quantum chemistry program package
     J. Chem. Phys., 2020 152 Art. No. L224108
     doi.org/10.1063/5.0004608
  7. Wittmann,L.; Neugebauer,H.; Grimme,S.; Bursch,M.
     Dispersion-corrected r2SCAN based double-hybrid functionals
     J. Chem. Phys., 2023 159(22)224103
     doi.org/10.1063/5.0174988

List of optional additional citations

  1. Neese,F.
     Approximate second-order SCF convergence for spin unrestricted wavefunctions
     Chem. Phys. Lett., 2000 325(1-3)93-98
     doi.org/10.1016/s0009-2614(00)00662-x

Timings for individual modules:

Sum of individual times          ...     1460.709 sec (=  24.345 min)
Startup calculation              ...        3.491 sec (=   0.058 min)   0.2 %
SCF iterations                   ...      101.690 sec (=   1.695 min)   7.0 %
Property integrals               ...      441.144 sec (=   7.352 min)  30.2 %
SCF Response                     ...      640.778 sec (=  10.680 min)  43.9 %
Property calculations            ...      273.606 sec (=   4.560 min)  18.7 %
                             ****ORCA TERMINATED NORMALLY****
TOTAL RUN TIME: 0 days 0 hours 24 minutes 21 seconds 636 msec
