
                                 *****************
                                 * O   R   C   A *
                                 *****************

                                            #,                                       
                                            ###                                      
                                            ####                                     
                                            #####                                    
                                            ######                                   
                                           ########,                                 
                                     ,,################,,,,,                         
                               ,,#################################,,                 
                          ,,##########################################,,             
                       ,#########################################, ''#####,          
                    ,#############################################,,   '####,        
                  ,##################################################,,,,####,       
                ,###########''''           ''''###############################       
              ,#####''   ,,,,##########,,,,          '''####'''          '####       
            ,##' ,,,,###########################,,,                        '##       
           ' ,,###''''                  '''############,,,                           
         ,,##''                                '''############,,,,        ,,,,,,###''
      ,#''                                            '''#######################'''  
     '                                                          ''''####''''         
             ,#######,   #######,   ,#######,      ##                                
            ,#'     '#,  ##    ##  ,#'     '#,    #''#        ,####,   ,####,        
            ##       ##  ##   ,#'  ##            #'  '#       #'       #'  '#        
            ##       ##  #######   ##           ,######,      #####,   #    #        
            '#,     ,#'  ##    ##  '#,     ,#' ,#      #,     #,   #   #,  ,#        
             '#######'   ##     ##  '#######'  #'      '#     '####' # '####'        



                #########################################################
                #                        -***-                          #
                #          Department of theory and spectroscopy        #
                #                                                       #
                #                      Frank Neese                      #
                #                                                       #
                #     Directorship, Architecture, Infrastructure        #
                #                    SHARK, DRIVERS                     #
                #        Core code/Algorithms in most modules           #
                #                                                       #
                #        Max Planck Institute fuer Kohlenforschung      #
                #                Kaiser Wilhelm Platz 1                 #
                #                 D-45470 Muelheim/Ruhr                 #
                #                      Germany                          #
                #                                                       #
                #                  All rights reserved                  #
                #                        -***-                          #
                #########################################################


                         Program Version 6.0.1  -  RELEASE   -


 With contributions from (in alphabetic order):
[Max-Planck-Institut fuer Kohlenforschung]                               
  Daniel Aravena         : Magnetic Suceptibility                        
  Michael Atanasov       : Ab Initio Ligand Field Theory (pilot matlab implementation)
  Alexander A. Auer      : GIAO ZORA, VPT2 properties, NMR spectrum      
  Ute Becker             : All parallelization in ORCA, NUMFREQ, NUMCALC 
  Giovanni Bistoni       : ED, misc. LED, open-shell LED, HFLD           
  Martin Brehm           : Molecular dynamics                            
  Dmytro Bykov           : pre 5.0 version of the SCF Hessian            
  Marcos Casanova-Páez   : Triplet and SCS-CIS(D). UHF-(DLPNO)-IP/EA/STEOM-CCSD. UHF-CVS-IP/STEOM-CCSD   
  Vijay G. Chilkuri      : MRCI spin determinant printing, contributions to CSF-ICE 
  Pauline Colinet        : FMM embedding                                 
  Dipayan Datta          : RHF DLPNO-CCSD density                        
  Achintya Kumar Dutta   : EOM-CC, STEOM-CC                              
  Nicolas Foglia         : Exact transition moments, OPA infrastructure, MCD improvements    
  Dmitry Ganyushin       : Spin-Orbit,Spin-Spin,Magnetic field MRCI      
  Miquel Garcia-Rates    : C-PCM and meta-GGA Hessian, CCSD/C-PCM, Gaussian charge scheme 
  Tiago L. C. Gouveia    : GS-ROHF, GS-ROCIS                             
  Yang Guo               : DLPNO-NEVPT2, F12-NEVPT2, CIM, IAO-localization        
  Andreas Hansen         : Spin unrestricted coupled pair/coupled cluster methods 
  Ingolf Harden          : AUTO-CI MPn and infrastructure                
  Benjamin Helmich-Paris : MC-RPA, TRAH-(SCF,CASSCF), AVAS, COSX integrals, SCF dyn. polar. 
  Lee Huntington         : MR-EOM, pCC                                   
  Robert Izsak           : Overlap fitted RIJCOSX, COSX-SCS-MP3, EOM     
  Riya Kayal             : Wick's Theorem for AUTO-CI, AUTO-CI UHF-CCSDT 
  Emily Kempfer          : AUTO-CI, RHF CISDT and CCSDT                  
  Christian Kollmar      : KDIIS, OOCD, Brueckner-CCSD(T), CCSD density, CASPT2, CASPT2-K, improved NEVPT2 
  Axel Koslowski         : Symmetry handling                             
  Simone Kossmann        : meta-GGA functionals, TD-DFT gradient, OOMP2, (MP2 Hessian; deprecated post 5.0) 
  Lucas Lang             : DCDCAS                                        
  Marvin Lechner         : AUTO-CI (C++ implementation), FIC-MRCC        
  Spencer Leger          : CASSCF response                               
  Dagmar Lenk            : GEPOL surface, SMD, ORCA-2-JSON               
  Dimitrios Liakos       : Extrapolation schemes; Compound Job, initial MDCI parallelization 
  Dimitrios Manganas     : Further ROCIS development; embedding schemes. LFT, Crystal Embedding 
  Dimitrios Pantazis     : SARC Basis sets                               
  Anastasios Papadopoulos: AUTO-CI, single reference methods and gradients 
  Taras Petrenko         : pre 6.0 DFT Hessian and TD-DFT gradient, (ASA, deprecated), ECA, 1-Electron XAS/XES, NRVS 
  Peter Pinski           : DLPNO-MP2, DLPNO-MP2 Gradient                 
  Christoph Reimann      : Effective Core Potentials                     
  Marius Retegan         : Local ZFS, SOC                                
  Christoph Riplinger    : Optimizer, TS searches, QM/MM, DLPNO-CCSD(T), (RO)-DLPNO pert. Triples 
  Michael Roemelt        : Original ROCIS implementation                 
  Masaaki Saitow         : Open-shell DLPNO-CCSD energy and density      
  Barbara Sandhoefer     : DKH picture change effects                    
  Kantharuban Sivalingam : CASSCF convergence/infrastructure, NEVPT2 and variants, FIC-MRCI 
  Bernardo de Souza      : ESD, SOC TD-DFT                               
  Georgi L. Stoychev     : AutoAux, RI-MP2 NMR, DLPNO-MP2 response, X2C  
  Van Anh Tran           : RI-MP2 g-tensors                              
  Willem Van den Heuvel  : Paramagnetic NMR                              
  Zikuan Wang            : NOTCH, Electric field optimization            
  Frank Wennmohs         : Technical directorship and infrastructure     
  Hang Xu                : AUTO-CI-Response properties                   
                                                                         
[FACCTs GmbH]                                                            
  Markus Bursch, Miquel Garcia-Rates, Christoph Riplinger, Bernardo de Souza, Georgi L. Stoychev 
                                                                 
  APM, Basis sets (HGBS, AHGBS, def-TZVP (Ac-Lr), def2-XVPD (La-Lu)), CI-OPT, improved COSX, DLPNO-Multilevel,           
  DOCKER, DRACO, updates on ESD, GOAT, IRC, LR-CPCM, MBIS, meta-GGA TD-DFT gradient, ML-optimized integration grids, 
  MM, NACMEs, nearIR, NEB, NEB-TS, NL-DFT gradient (VV10), 2- and 3-layer-ONIOM, interface openCOSMO-RS, QMMM,   
  Crystal-QMMM, SF, symmetry and pop. for TD-DFT, r2SCAN hybrids, SOLVATOR                                   
                                                                         
[Other institutions]                                                     
  V. Asgeirsson          : NEB                                           
  Christoph Bannwarth    : sTDA-DFT, sTD-DFT, PBEh-3c, B97-3c, D3        
  Sebastian Ehlert       : rSCAN, r2SCAN, r2SCAN-3c, D4, dhf basis sets  
  Marvin Friede          : D4 for Fr, Ra, Ac-Lr                          
  Lars Goerigk           : TD-DFT with DH, B97 family of functionals     
  Stefan Grimme          : VdW corrections, initial TS optimization, DFT functionals, gCP, sTDA/sTD-DF 
  Waldemar Hujo          : DFT-NL                                        
  H. Jonsson             : NEB                                           
  Holger Kruse           : gCP                                           
  Marcel Mueller         : wB97X-3c, vDZP basis set                      
  Hagen Neugebauer       : wr2SCAN                                       
  Tobias Risthaus        : range-separated hybrid DFT                    
  Lukas Wittmann         : regularized MP2, r2SCAN double-hybrids, wr2SCAN        
                                                                         
We gratefully acknowledge several colleagues who have allowed us to      
interface, adapt or use parts of their codes:                            
  Ed Valeev, F. Pavosevic, A. Kumar             : LibInt (2-el integral package), F12 methods 
  Garnet Chan, S. Sharma, J. Yang, R. Olivares  : DMRG                   
  Ulf Ekstrom                                   : XCFun DFT Library      
  Mihaly Kallay                                 : mrcc  (arbitrary order and MRCC methods)
  Frank Weinhold                                : gennbo (NPA and NBO analysis)           
  Simon Mueller                                 : openCOSMO-RS                            
  Christopher J. Cramer and Donald G. Truhlar   : smd solvation model                     
  S Lehtola, MJT Oliveira, MAL Marques          : LibXC Library                           
  Liviu Ungur et al                             : ANISO software                          


 Your calculation uses the libint2 library for the computation of 2-el integrals
 For citations please refer to: http://libint.valeyev.net

 Your ORCA version has been built with support for libXC version: 6.2.2
 For citations please refer to: https://libxc.gitlab.io

 This ORCA versions uses:
   CBLAS   interface :  Fast vector & matrix operations
   LAPACKE interface :  Fast linear algebra routines
   SCALAPACK package :  Parallel linear algebra routines
   Shared memory     :  Shared parallel matrices
   BLAS/LAPACK       :  OpenBLAS 0.3.27  USE64BITINT DYNAMIC_ARCH NO_AFFINITY SkylakeX SINGLE_THREADED
        Core in use  :  SkylakeX
   Copyright (c) 2011-2014, The OpenBLAS Project


NOTE: MaxCore=8000 MB was set to SCF,MP2,MDCI,CIPSI,MRCI and CIS
      => If you want to overwrite this, your respective input block should be placed after the MaxCore statement
Your calculation utilizes the atom-pairwise dispersion correction
with the Becke-Johnson damping scheme (D3BJ)


Your calculation utilizes the SMD solvation module
Please cite in your paper:
A.V. Marenich, C.J. Cramer, D.G. Truhlar J. Phys. Chem. B, 113, (2009), 6378 

Warning: RI is on but no J-basis has been assigned. Assigning Def2/J (nothing to worry about!)
================================================================================

----- Orbital basis set information -----
Your calculation utilizes the basis: def2-TZVP
   F. Weigend and R. Ahlrichs, Phys. Chem. Chem. Phys. 7, 3297 (2005).

----- AuxJ basis set information -----
Your calculation utilizes the auxiliary basis: def2/J
   F. Weigend, Phys. Chem. Chem. Phys. 8, 1057 (2006).

================================================================================
                                        WARNINGS
                       Please study these warnings very carefully!
================================================================================



WARNING: SCAN, rSCAN, or r2SCAN functional requested.
  ===> : libXC variant has now been activated.



WARNING: your system is open-shell and RHF/RKS was chosen
  ===> : WILL SWITCH to UHF/UKS


WARNING: Geometry Optimization
  ===> : Switching off AutoStart
         For restart on a previous wavefunction, please use MOREAD

================================================================================
                                       INPUT FILE
================================================================================
NAME = rf_mecn_2H2O_opt_r2s_sw_004.inp
|  1> !r2scanh def2-TZVP opt d3 TightSCF SlowConv defgrid2
|  2>  
|  3> %pal
|  4> nprocs 20
|  5> end
|  6>  
|  7> %scf
|  8> MaxIter 1500
|  9> end
| 10>  
| 11> %maxcore 8000
| 12>  
| 13> !CPCM
| 14> %cpcm smd true
| 15> SMDsolvent "ACETONITRILE"
| 16> end
| 17>  
| 18> * xyz -2 2
| 19> 6        7.328220000     27.755594000      2.876578000
| 20> 6        6.820965000     26.309455000      3.032926000
| 21> 6        7.274303000     25.165474000      2.088433000
| 22> 6        6.774651000     23.685702000      2.138104000
| 23> 6        7.229332000     22.496223000      1.239361000
| 24> 6        6.750621000     21.031882000      1.438646000
| 25> 6        7.048865000     19.957859000      0.358182000
| 26> 6        6.754127000     18.506280000      0.820075000
| 27> 9        6.985453000     28.256255000      1.688590000
| 28> 9        8.656796000     27.805305000      2.989728000
| 29> 9        6.822452000     28.584561000      3.816476000
| 30> 9        7.167865000     25.948073000      4.301633000
| 31> 9        5.461373000     26.393804000      2.951212000
| 32> 9        6.971513000     25.609662000      0.817270000
| 33> 9        8.642477000     25.102672000      2.238850000
| 34> 9        7.054634000     23.270379000      3.433068000
| 35> 9        5.409800000     23.767118000      1.973555000
| 36> 9        6.882983000     22.843588000     -0.042442000
| 37> 9        8.597429000     22.456969000      1.332065000
| 38> 9        7.296910000     20.595548000      2.606957000
| 39> 9        5.398590000     21.055361000      1.595425000
| 40> 9        6.310776000     20.272578000     -0.741120000
| 41> 9        8.360010000     20.090043000      0.000095000
| 42> 8        7.695888000     17.910855000      1.379254000
| 43> 8        5.592031000     18.105045000      0.620357000
| 44> 8        3.319677000     19.185173000     -0.474923000
| 45> 1        2.789903000     18.388572000     -0.559637000
| 46> 1        4.178908000     18.870087000     -0.127400000
| 47> 1        9.203249000     18.624564000      1.959406000
| 48> 8       10.028849000     19.008740000      2.325781000
| 49> 1        9.895566000     19.957418000      2.227714000
| 50> *
| 51> 
| 52>                          ****END OF INPUT****
================================================================================

                       *****************************
                       * Geometry Optimization Run *
                       *****************************

Geometry optimization settings:
Update method            Update   .... BFGS
Choice of coordinates    CoordSys .... (2022) Redundant Internals
Initial Hessian          InHess   .... Almloef's Model
Max. no of cycles        MaxIter  .... 93

Convergence Tolerances:
Energy Change            TolE     ....  5.0000e-06 Eh
Max. Gradient            TolMAXG  ....  3.0000e-04 Eh/bohr
RMS Gradient             TolRMSG  ....  1.0000e-04 Eh/bohr
Max. Displacement        TolMAXD  ....  4.0000e-03 bohr
RMS Displacement         TolRMSD  ....  2.0000e-03 bohr
Strict Convergence                .... False

------------------------------------------------------------------------------
                        ORCA OPTIMIZATION COORDINATE SETUP
------------------------------------------------------------------------------

The optimization will be done in redundant internal coordinates (2022)
Making redundant internal coordinates   ...  (2022 redundants) done
Evaluating the initial hessian          ...  (Almloef) done
Evaluating the coordinates              ...  done
Calculating the B-matrix                .... done
Calculating the G-matrix                .... done
Diagonalizing the G-matrix              .... done
Small eigenvalue found = 3.630e-03
Small eigenvalue found = 5.157e-03
Small eigenvalue found = 8.902e-03
Small eigenvalue found = 1.348e-02
Small eigenvalue found = 2.246e-02
The first mode is                       ....   43
The number of degrees of freedom        ....   87

    -----------------------------------------------------------------
                    Redundant Internal Coordinates


    -----------------------------------------------------------------
         Definition                    Initial Value    Approx d2E/dq
    -----------------------------------------------------------------
      1. B(C   1,C   0)                  1.5405         0.359469   
      2. B(C   2,C   1)                  1.5512         0.345563   
      3. B(C   3,C   2)                  1.5626         0.331362   
      4. B(C   4,C   3)                  1.5586         0.336277   
      5. B(C   5,C   4)                  1.5534         0.342753   
      6. B(C   6,C   5)                  1.5524         0.344092   
      7. B(C   7,C   6)                  1.5515         0.345145   
      8. B(F   8,C   0)                  1.3340         0.638800   
      9. B(F   9,C   0)                  1.3343         0.637989   
     10. B(F  10,C   0)                  1.3514         0.599078   
     11. B(F  11,C   1)                  1.3640         0.572024   
     12. B(F  12,C   1)                  1.3647         0.570694   
     13. B(F  13,C   2)                  1.3802         0.539097   
     14. B(F  14,C   2)                  1.3778         0.543691   
     15. B(F  15,C   3)                  1.3885         0.522910   
     16. B(F  16,C   3)                  1.3771         0.545104   
     17. B(F  17,C   4)                  1.3725         0.554568   
     18. B(F  18,C   4)                  1.3718         0.555917   
     19. B(F  19,C   5)                  1.3615         0.577279   
     20. B(F  20,C   5)                  1.3613         0.577786   
     21. B(F  21,C   6)                  1.3610         0.578434   
     22. B(F  22,C   6)                  1.3656         0.568764   
     23. B(O  23,C   7)                  1.2466         0.947519   
     24. B(O  24,C   7)                  1.2455         0.951412   
     25. B(H  26,O  25)                  0.9604         0.519151   
     26. B(H  27,O  24)                  1.7724         0.026294   
     27. B(H  27,O  25)                  0.9789         0.485003   
     28. B(H  28,O  23)                  1.7658         0.026937   
     29. B(O  29,H  28)                  0.9815         0.480383   
     30. B(H  30,O  29)                  0.9630         0.514255   
     31. A(C   1,C   0,F   9)          110.7467         0.391770   
     32. A(C   1,C   0,F   8)          110.9841         0.391857   
     33. A(F   8,C   0,F  10)          107.0370         0.424292   
     34. A(F   9,C   0,F  10)          106.9062         0.424196   
     35. A(C   1,C   0,F  10)          112.4583         0.387488   
     36. A(F   8,C   0,F   9)          108.5049         0.429102   
     37. A(C   2,C   1,F  11)          107.2545         0.381756   
     38. A(C   0,C   1,C   2)          122.2952         0.356216   
     39. A(C   2,C   1,F  12)          107.4748         0.381602   
     40. A(C   0,C   1,F  12)          105.3052         0.384227   
     41. A(F  11,C   1,F  12)          108.9928         0.412444   
     42. A(C   0,C   1,F  11)          105.0327         0.384382   
     43. A(C   3,C   2,F  13)          105.3015         0.375123   
     44. A(C   1,C   2,F  14)          104.9122         0.378409   
     45. A(C   1,C   2,C   3)          125.8429         0.351337   
     46. A(C   1,C   2,F  13)          105.0300         0.377854   
     47. A(C   3,C   2,F  14)          105.7161         0.375673   
     48. A(F  13,C   2,F  14)          109.4548         0.404651   
     49. A(F  15,C   3,F  16)          109.2065         0.402664   
     50. A(C   4,C   3,F  16)          105.3868         0.376799   
     51. A(C   2,C   3,F  16)          104.8988         0.375842   
     52. A(C   2,C   3,C   4)          127.6676         0.349724   
     53. A(C   2,C   3,F  15)          104.3847         0.373156   
     54. A(C   4,C   3,F  15)          104.5184         0.374104   
     55. A(C   3,C   4,F  18)          105.8906         0.378082   
     56. A(C   5,C   4,F  17)          106.2976         0.379173   
     57. A(C   3,C   4,F  17)          105.7694         0.377923   
     58. A(C   3,C   4,C   5)          123.7462         0.351727   
     59. A(F  17,C   4,F  18)          108.7860         0.408282   
     60. A(C   5,C   4,F  18)          105.7647         0.379333   
     61. A(C   4,C   5,C   6)          120.2439         0.353096   
     62. A(F  19,C   5,F  20)          107.7704         0.414021   
     63. A(C   6,C   5,F  20)          106.4337         0.382138   
     64. A(C   4,C   5,F  20)          107.7330         0.381879   
     65. A(C   6,C   5,F  19)          107.3631         0.382080   
     66. A(C   4,C   5,F  19)          106.7699         0.381821   
     67. A(C   5,C   6,C   7)          113.8024         0.353512   
     68. A(F  21,C   6,F  22)          106.6493         0.413012   
     69. A(C   7,C   6,F  22)          110.5495         0.381298   
     70. A(C   5,C   6,F  22)          107.4577         0.381096   
     71. A(C   7,C   6,F  21)          110.7187         0.382415   
     72. A(C   5,C   6,F  21)          107.3377         0.382212   
     73. A(O  23,C   7,O  24)          128.5278         0.500632   
     74. A(C   6,C   7,O  24)          115.5239         0.419240   
     75. A(C   6,C   7,O  23)          115.9046         0.418933   
     76. A(C   7,O  23,H  28)          126.8119         0.247340   
     77. A(C   7,O  24,H  27)          132.2597         0.246624   
     78. A(H  26,O  25,H  27)          104.3888         0.318115   
     79. A(O  24,H  27,O  25)          171.3036         0.205640   
     80. L(O  23,H  28,O  29,H  30, 2) 175.6805         0.206025   
     81. L(O  23,H  28,O  29,H  30, 1) 180.8462         0.206025   
     82. A(H  28,O  29,H  30)          103.3649         0.317129   
     83. D(C   2,C   1,C   0,F  10)   -179.0478         0.010369   
     84. D(F  11,C   1,C   0,F   9)     62.7085         0.010369   
     85. D(F  11,C   1,C   0,F   8)   -176.7083         0.010369   
     86. D(F  11,C   1,C   0,F  10)    -56.8341         0.010369   
     87. D(C   2,C   1,C   0,F   9)    -59.5051         0.010369   
     88. D(C   2,C   1,C   0,F   8)     61.0780         0.010369   
     89. D(C   3,C   2,C   1,C   0)   -177.6175         0.009641   
     90. D(F  13,C   2,C   1,F  11)   -176.7136         0.009641   
     91. D(F  13,C   2,C   1,C   0)    -55.5416         0.009641   
     92. D(F  13,C   2,C   1,F  12)     66.2180         0.009641   
     93. D(C   3,C   2,C   1,F  11)     61.2105         0.009641   
     94. D(C   3,C   2,C   1,F  12)    -55.8579         0.009641   
     95. D(C   4,C   3,C   2,F  13)     59.9149         0.008934   
     96. D(C   4,C   3,C   2,F  14)    -55.9150         0.008934   
     97. D(C   4,C   3,C   2,C   1)   -178.1269         0.008934   
     98. D(F  15,C   3,C   2,F  14)     65.7494         0.008934   
     99. D(F  15,C   3,C   2,F  13)   -178.4206         0.008934   
    100. D(F  15,C   3,C   2,C   1)    -56.4624         0.008934   
    101. D(F  17,C   4,C   3,F  16)     61.0756         0.009175   
    102. D(F  17,C   4,C   3,F  15)    176.1455         0.009175   
    103. D(F  17,C   4,C   3,C   2)    -62.2460         0.009175   
    104. D(C   5,C   4,C   3,F  16)    -61.5641         0.009175   
    105. D(C   5,C   4,C   3,F  15)     53.5059         0.009175   
    106. D(C   5,C   4,C   3,C   2)    175.1144         0.009175   
    107. D(F  19,C   5,C   4,F  18)     53.6859         0.009498   
    108. D(F  19,C   5,C   4,F  17)    169.2276         0.009498   
    109. D(F  19,C   5,C   4,C   3)    -68.3708         0.009498   
    110. D(C   6,C   5,C   4,F  18)    -68.7588         0.009498   
    111. D(C   6,C   5,C   4,F  17)     46.7829         0.009498   
    112. D(C   6,C   5,C   4,C   3)    169.1845         0.009498   
    113. D(C   7,C   6,C   5,C   4)    168.8021         0.009566   
    114. D(F  21,C   6,C   5,F  20)     54.3288         0.009566   
    115. D(F  21,C   6,C   5,F  19)    169.5187         0.009566   
    116. D(F  21,C   6,C   5,C   4)    -68.3247         0.009566   
    117. D(C   7,C   6,C   5,F  20)    -68.5444         0.009566   
    118. D(C   7,C   6,C   5,F  19)     46.6455         0.009566   
    119. D(O  24,C   7,C   6,F  21)    -32.2981         0.009025   
    120. D(O  24,C   7,C   6,C   5)     88.7041         0.009025   
    121. D(O  23,C   7,C   6,F  22)     31.9328         0.009025   
    122. D(O  23,C   7,C   6,F  21)    149.8977         0.009025   
    123. D(O  23,C   7,C   6,C   5)    -89.1001         0.009025   
    124. D(H  28,O  23,C   7,O  24)   -165.4042         0.072368   
    125. D(H  28,O  23,C   7,C   6)     12.0627         0.072368   
    126. D(H  27,O  24,C   7,O  23)    178.6196         0.073052   
    127. D(H  27,O  24,C   7,C   6)      1.1447         0.073052   
    128. D(O  24,H  27,O  25,H  26)    -30.1402         0.254692   
    129. D(O  25,H  27,O  24,C   7)   -163.6837         0.001828   
    130. D(H  30,O  29,O  23,C   7)      7.0188         0.001501   
    -----------------------------------------------------------------

Number of atoms                         .... 31
Number of degrees of freedom            .... 130


         *************************************************************
         *                GEOMETRY OPTIMIZATION CYCLE   1            *
         *************************************************************
---------------------------------
CARTESIAN COORDINATES (ANGSTROEM)
---------------------------------
  C      7.328220   27.755594    2.876578
  C      6.820965   26.309455    3.032926
  C      7.274303   25.165474    2.088433
  C      6.774651   23.685702    2.138104
  C      7.229332   22.496223    1.239361
  C      6.750621   21.031882    1.438646
  C      7.048865   19.957859    0.358182
  C      6.754127   18.506280    0.820075
  F      6.985453   28.256255    1.688590
  F      8.656796   27.805305    2.989728
  F      6.822452   28.584561    3.816476
  F      7.167865   25.948073    4.301633
  F      5.461373   26.393804    2.951212
  F      6.971513   25.609662    0.817270
  F      8.642477   25.102672    2.238850
  F      7.054634   23.270379    3.433068
  F      5.409800   23.767118    1.973555
  F      6.882983   22.843588   -0.042442
  F      8.597429   22.456969    1.332065
  F      7.296910   20.595548    2.606957
  F      5.398590   21.055361    1.595425
  F      6.310776   20.272578   -0.741120
  F      8.360010   20.090043    0.000095
  O      7.695888   17.910855    1.379254
  O      5.592031   18.105045    0.620357
  O      3.319677   19.185173   -0.474923
  H      2.789903   18.388572   -0.559637
  H      4.178908   18.870087   -0.127400
  H      9.203249   18.624564    1.959406
  O     10.028849   19.008740    2.325781
  H      9.895566   19.957418    2.227714

----------------------------
CARTESIAN COORDINATES (A.U.)
----------------------------
  NO LB      ZA    FRAG     MASS         X           Y           Z
   0 C     6.0000    0    12.011   13.848329   52.450471    5.435945
   1 C     6.0000    0    12.011   12.889756   49.717665    5.731400
   2 C     6.0000    0    12.011   13.746440   47.555854    3.946566
   3 C     6.0000    0    12.011   12.802235   44.759490    4.040431
   4 C     6.0000    0    12.011   13.661458   42.511701    2.342053
   5 C     6.0000    0    12.011   12.756825   39.744497    2.718647
   6 C     6.0000    0    12.011   13.320424   37.714888    0.676866
   7 C     6.0000    0    12.011   12.763450   34.971801    1.549717
   8 F     9.0000    0    18.998   13.200593   53.396584    3.190973
   9 F     9.0000    0    18.998   16.358974   52.544412    5.649767
  10 F     9.0000    0    18.998   12.892566   54.016992    7.212094
  11 F     9.0000    0    18.998   13.545302   49.034752    8.128908
  12 F     9.0000    0    18.998   10.320499   49.877061    5.576982
  13 F     9.0000    0    18.998   13.174250   48.395248    1.544416
  14 F     9.0000    0    18.998   16.331915   47.437175    4.230813
  15 F     9.0000    0    18.998   13.331326   43.974643    6.487558
  16 F     9.0000    0    18.998   10.223040   44.913344    3.729478
  17 F     9.0000    0    18.998   13.006953   43.168125   -0.080204
  18 F     9.0000    0    18.998   16.246786   42.437521    2.517238
  19 F     9.0000    0    18.998   13.789162   38.919945    4.926435
  20 F     9.0000    0    18.998   10.201857   39.788866    3.014916
  21 F     9.0000    0    18.998   11.925638   38.309620   -1.400514
  22 F     9.0000    0    18.998   15.798129   37.964679    0.000180
  23 O     8.0000    0    15.999   14.543121   33.846611    2.606412
  24 O     8.0000    0    15.999   10.567407   34.213577    1.172305
  25 O     8.0000    0    15.999    6.273280   36.254723   -0.897474
  26 H     1.0000    0     1.008    5.272153   34.749365   -1.057561
  27 H     1.0000    0     1.008    7.896992   35.659297   -0.240751
  28 H     1.0000    0     1.008   17.391620   35.195325    3.702741
  29 O     8.0000    0    15.999   18.951778   35.921313    4.395089
  30 H     1.0000    0     1.008   18.699910   37.714054    4.209769

--------------------------------
INTERNAL COORDINATES (ANGSTROEM)
--------------------------------
 C      0   0   0     0.000000000000     0.00000000     0.00000000
 C      1   0   0     1.540477308970     0.00000000     0.00000000
 C      2   1   0     1.551217230969   122.29522381     0.00000000
 C      3   2   1     1.562640234132   125.84290269   182.38247360
 C      4   3   2     1.558632119280   127.66760495   181.87312628
 C      5   4   3     1.553439183562   123.74621736   175.11440330
 C      6   5   4     1.552377964080   120.24393672   169.18447371
 C      7   6   5     1.551546720319   113.80241024   168.80212455
 F      1   2   3     1.333966319423   110.98412133    61.07804660
 F      1   2   3     1.334311917730   110.74665843   300.49487566
 F      1   2   3     1.351442121334   112.45834327   180.95223144
 F      2   1   3     1.364021265147   105.03274107   122.21365946
 F      2   1   3     1.364654658901   105.30521507   237.22946652
 F      3   2   1     1.380159460357   105.03000772   304.45836087
 F      3   2   1     1.377849577918   104.91222029    59.82355590
 F      4   3   2     1.388457934514   104.38470197   303.53757407
 F      4   3   2     1.377143126424   104.89877850    58.35149637
 F      5   4   3     1.372457286707   105.76937895   297.75403995
 F      5   4   3     1.371796016010   105.89061880    53.11474459
 F      6   5   4     1.361532086951   106.76987322   291.62916959
 F      6   5   4     1.361293040915   107.73299722    47.16169638
 F      7   6   5     1.360987989692   107.33767092   291.67527354
 F      7   6   5     1.365576845311   107.45774945    46.05756604
 O      8   7   6     1.246645846176   115.90460141   270.89989826
 O      8   7   6     1.245529573300   115.52392469    88.70408998
 O     25   8   7     2.744067687959   135.22075457   359.91190661
 H     26  25   8     0.960421837566    99.52671210   167.61988026
 H     26  25   8     0.978942967841     5.60436904    17.16889930
 H     24   8   7     1.765812578986   126.81190033    12.06269697
 O     29  24   8     0.981548368447   177.24027128   116.83767215
 H     30  29  24     0.963001268048   103.36485664   250.44001968

---------------------------
INTERNAL COORDINATES (A.U.)
---------------------------
 C      0   0   0     0.000000000000     0.00000000     0.00000000
 C      1   0   0     2.911080229472     0.00000000     0.00000000
 C      2   1   0     2.931375740750   122.29522381     0.00000000
 C      3   2   1     2.952962088357   125.84290269   182.38247360
 C      4   3   2     2.945387848972   127.66760495   181.87312628
 C      5   4   3     2.935574622635   123.74621736   175.11440330
 C      6   5   4     2.933569208445   120.24393672   169.18447371
 C      7   6   5     2.931998385387   113.80241024   168.80212455
 F      1   2   3     2.520831015584   110.98412133    61.07804660
 F      1   2   3     2.521484101737   110.74665843   300.49487566
 F      1   2   3     2.553855495168   112.45834327   180.95223144
 F      2   1   3     2.577626631972   105.03274107   122.21365946
 F      2   1   3     2.578823572703   105.30521507   237.22946652
 F      3   2   1     2.608123401215   105.03000772   304.45836087
 F      3   2   1     2.603758356004   104.91222029    59.82355590
 F      4   3   2     2.623805244701   104.38470197   303.53757407
 F      4   3   2     2.602423356154   104.89877850    58.35149637
 F      5   4   3     2.593568402381   105.76937895   297.75403995
 F      5   4   3     2.592318781863   105.89061880    53.11474459
 F      6   5   4     2.572922766884   106.76987322   291.62916959
 F      6   5   4     2.572471035342   107.73299722    47.16169638
 F      7   6   5     2.571894572074   107.33767092   291.67527354
 F      7   6   5     2.580566252462   107.45774945    46.05756604
 O      8   7   6     2.355819235262   115.90460141   270.89989826
 O      8   7   6     2.353709785237   115.52392469    88.70408998
 O     25   8   7     5.185536423185   135.22075457   359.91190661
 H     26  25   8     1.814934246036    99.52671210   167.61988026
 H     26  25   8     1.849934109948     5.60436904    17.16889930
 H     24   8   7     3.336902178117   126.81190033    12.06269697
 O     29  24   8     1.854857603562   177.24027128   116.83767215
 H     30  29  24     1.819808663230   103.36485664   250.44001968

---------------------
BASIS SET INFORMATION
---------------------
There are 4 groups of distinct atoms

 Group   1 Type C   : 11s6p2d1f contracted to 5s3p2d1f pattern {62111/411/11/1}
 Group   2 Type F   : 11s6p2d1f contracted to 5s3p2d1f pattern {62111/411/11/1}
 Group   3 Type O   : 11s6p2d1f contracted to 5s3p2d1f pattern {62111/411/11/1}
 Group   4 Type H   : 5s1p contracted to 3s1p pattern {311/1}

Atom   0C    basis set group =>   1
Atom   1C    basis set group =>   1
Atom   2C    basis set group =>   1
Atom   3C    basis set group =>   1
Atom   4C    basis set group =>   1
Atom   5C    basis set group =>   1
Atom   6C    basis set group =>   1
Atom   7C    basis set group =>   1
Atom   8F    basis set group =>   2
Atom   9F    basis set group =>   2
Atom  10F    basis set group =>   2
Atom  11F    basis set group =>   2
Atom  12F    basis set group =>   2
Atom  13F    basis set group =>   2
Atom  14F    basis set group =>   2
Atom  15F    basis set group =>   2
Atom  16F    basis set group =>   2
Atom  17F    basis set group =>   2
Atom  18F    basis set group =>   2
Atom  19F    basis set group =>   2
Atom  20F    basis set group =>   2
Atom  21F    basis set group =>   2
Atom  22F    basis set group =>   2
Atom  23O    basis set group =>   3
Atom  24O    basis set group =>   3
Atom  25O    basis set group =>   3
Atom  26H    basis set group =>   4
Atom  27H    basis set group =>   4
Atom  28H    basis set group =>   4
Atom  29O    basis set group =>   3
Atom  30H    basis set group =>   4
---------------------------------
AUXILIARY/J BASIS SET INFORMATION
---------------------------------
There are 4 groups of distinct atoms

 Group   1 Type C   : 12s5p4d2f1g contracted to 6s4p3d1f1g pattern {711111/2111/211/2/1}
 Group   2 Type F   : 12s5p4d2f1g contracted to 6s4p3d1f1g pattern {711111/2111/211/2/1}
 Group   3 Type O   : 12s5p4d2f1g contracted to 6s4p3d1f1g pattern {711111/2111/211/2/1}
 Group   4 Type H   : 5s2p1d contracted to 3s1p1d pattern {311/2/1}

Atom   0C    basis set group =>   1
Atom   1C    basis set group =>   1
Atom   2C    basis set group =>   1
Atom   3C    basis set group =>   1
Atom   4C    basis set group =>   1
Atom   5C    basis set group =>   1
Atom   6C    basis set group =>   1
Atom   7C    basis set group =>   1
Atom   8F    basis set group =>   2
Atom   9F    basis set group =>   2
Atom  10F    basis set group =>   2
Atom  11F    basis set group =>   2
Atom  12F    basis set group =>   2
Atom  13F    basis set group =>   2
Atom  14F    basis set group =>   2
Atom  15F    basis set group =>   2
Atom  16F    basis set group =>   2
Atom  17F    basis set group =>   2
Atom  18F    basis set group =>   2
Atom  19F    basis set group =>   2
Atom  20F    basis set group =>   2
Atom  21F    basis set group =>   2
Atom  22F    basis set group =>   2
Atom  23O    basis set group =>   3
Atom  24O    basis set group =>   3
Atom  25O    basis set group =>   3
Atom  26H    basis set group =>   4
Atom  27H    basis set group =>   4
Atom  28H    basis set group =>   4
Atom  29O    basis set group =>   3
Atom  30H    basis set group =>   4


           ************************************************************
           *        Program running with 20 parallel MPI-processes    *
           *              working on a common directory               *
           ************************************************************
------------------------------------------------------------------------------
                             ORCA STARTUP CALCULATIONS
                           -- RI-GTO INTEGRALS CHOSEN --
------------------------------------------------------------------------------
------------------------------------------------------------------------------
                   ___                                                        
                  /   \      - P O W E R E D   B Y -                         
                 /     \                                                     
                 |  |  |   _    _      __       _____    __    __             
                 |  |  |  | |  | |    /  \     |  _  \  |  |  /  |          
                  \  \/   | |  | |   /    \    | | | |  |  | /  /          
                 / \  \   | |__| |  /  /\  \   | |_| |  |  |/  /          
                |  |  |   |  __  | /  /__\  \  |    /   |      \           
                |  |  |   | |  | | |   __   |  |    \   |  |\   \          
                \     /   | |  | | |  |  |  |  | |\  \  |  | \   \       
                 \___/    |_|  |_| |__|  |__|  |_| \__\ |__|  \__/        
                                                                              
                      - O R C A' S   B I G   F R I E N D -                    
                                      &                                       
                       - I N T E G R A L  F E E D E R -                       
                                                                              
 v1 FN, 2020, v2 2021, v3 2022-2024                                           
------------------------------------------------------------------------------


----------------------
SHARK INTEGRAL PACKAGE
----------------------

Number of atoms                             ...     31
Number of basis functions                   ...    861
Number of shells                            ...    313
Maximum angular momentum                    ...      3
Integral batch strategy                     ... SHARK/LIBINT Hybrid
RI-J (if used) integral strategy            ... SPLIT-RIJ (Revised 2003 algorithm where possible)
Printlevel                                  ...      1
Contraction scheme used                     ... SEGMENTED contraction
Prescreening option                         ... SCHWARTZ
   Thresh                                   ... 2.500e-11
   Tcut                                     ... 2.500e-12
   Tpresel                                  ... 2.500e-12 
Coulomb Range Separation                    ... NOT USED
Exchange Range Separation                   ... NOT USED
Multipole approximations                    ... NOT USED
Finite Nucleus Model                        ... NOT USED
CABS basis                                  ... NOT available
Auxiliary Coulomb fitting basis             ... AVAILABLE
   # of basis functions in Aux-J            ...   1367
   # of shells in Aux-J                     ...    425
   Maximum angular momentum in Aux-J        ...      4
Auxiliary J/K fitting basis                 ... NOT available
Auxiliary Correlation fitting basis         ... NOT available
Auxiliary 'external' fitting basis          ... NOT available

Checking pre-screening integrals            ... done (  0.0 sec) Dimension = 313
Check shell pair data                       ... done (  0.0 sec)
Shell pair information
Shell pair cut-off parameter TPreSel        ...   2.5e-12
Total number of shell pairs                 ...     49141
Shell pairs after pre-screening             ...     27842
Total number of primitive shell pairs       ...    159936
Primitive shell pairs kept                  ...     57711
          la=0 lb=0:   5633 shell pairs
          la=1 lb=0:   7791 shell pairs
          la=1 lb=1:   2602 shell pairs
          la=2 lb=0:   4071 shell pairs
          la=2 lb=1:   2865 shell pairs
          la=2 lb=2:    764 shell pairs
          la=3 lb=0:   1848 shell pairs
          la=3 lb=1:   1379 shell pairs
          la=3 lb=2:    720 shell pairs
          la=3 lb=3:    169 shell pairs

Calculating one electron integrals          ... done (  0.0 sec)
Calculating RI/J V-Matrix + Cholesky decomp.... done (  0.1 sec)
Calculating Nuclear repulsion               ... done (  0.0 sec) ENN=   3242.580685860443 Eh

Diagonalization of the overlap matrix:
Smallest eigenvalue                        ... 8.730e-05
Time for diagonalization                   ...    0.171 sec
Threshold for overlap eigenvalues          ... 1.000e-07
Number of eigenvalues below threshold      ... 0
Time for construction of square roots      ...    0.076 sec
Total time needed                          ...    0.257 sec

-------------------
DFT GRID GENERATION
-------------------

General Integration Accuracy     IntAcc      ... 4.388
Radial Grid Type                 RadialGrid  ... OptM3 with GC (2021)
Angular Grid (max. ang.)         AngularGrid ... 4 (Lebedev-302)
Angular grid pruning method      GridPruning ... 4 (adaptive)
Weight generation scheme         WeightScheme... mBecke (2022)
Basis function cutoff            BFCut       ... 1.0000e-11
Integration weight cutoff        WCut        ... 1.0000e-14
Partially contracted basis set               ... off
Rotationally invariant grid construction     ... off
Angular grids for H and He will be reduced by one unit

Total number of grid points                  ...   176533
Total number of batches                      ...     2772
Average number of points per batch           ...       63
Average number of grid points per atom       ...     5695

--------------------
COSX GRID GENERATION
--------------------

GRIDX 1
-------
General Integration Accuracy     IntAcc      ... 3.816
Radial Grid Type                 RadialGrid  ... OptM3 with GC (2021)
Angular Grid (max. ang.)         AngularGrid ... 1 (Lebedev-50)
Angular grid pruning method      GridPruning ... 4 (adaptive)
Weight generation scheme         WeightScheme... mBecke (2022)
Basis function cutoff            BFCut       ... 1.0000e-11
Integration weight cutoff        WCut        ... 1.0000e-14
Partially contracted basis set               ... on
Rotationally invariant grid construction     ... off
Angular grids for H and He will be reduced by one unit

Total number of grid points                  ...    22237
Total number of batches                      ...      187
Average number of points per batch           ...      118
Average number of grid points per atom       ...      717
UseSFitting                                  ... on

GRIDX 2
-------
General Integration Accuracy     IntAcc      ... 4.020
Radial Grid Type                 RadialGrid  ... OptM3 with GC (2021)
Angular Grid (max. ang.)         AngularGrid ... 2 (Lebedev-110)
Angular grid pruning method      GridPruning ... 4 (adaptive)
Weight generation scheme         WeightScheme... mBecke (2022)
Basis function cutoff            BFCut       ... 1.0000e-11
Integration weight cutoff        WCut        ... 1.0000e-14
Partially contracted basis set               ... on
Rotationally invariant grid construction     ... off
Angular grids for H and He will be reduced by one unit

Total number of grid points                  ...    51559
Total number of batches                      ...      416
Average number of points per batch           ...      123
Average number of grid points per atom       ...     1663
UseSFitting                                  ... on

GRIDX 3
-------
General Integration Accuracy     IntAcc      ... 4.338
Radial Grid Type                 RadialGrid  ... OptM3 with GC (2021)
Angular Grid (max. ang.)         AngularGrid ... 3 (Lebedev-194)
Angular grid pruning method      GridPruning ... 4 (adaptive)
Weight generation scheme         WeightScheme... mBecke (2022)
Basis function cutoff            BFCut       ... 1.0000e-11
Integration weight cutoff        WCut        ... 1.0000e-14
Partially contracted basis set               ... on
Rotationally invariant grid construction     ... off
Angular grids for H and He will be reduced by one unit

Total number of grid points                  ...   114000
Total number of batches                      ...      903
Average number of points per batch           ...      126
Average number of grid points per atom       ...     3677
UseSFitting                                  ... on
Initializing property integral containers    ... done (  0.0 sec)

SHARK setup successfully completed in   4.9 seconds

Maximum memory used throughout the entire STARTUP-calculation: 68.7 MB


           ************************************************************
           *        Program running with 20 parallel MPI-processes    *
           *              working on a common directory               *
           ************************************************************
-------------------------------------------------------------------------------
                                 ORCA GUESS
                   Start orbitals & Density for SCF / CASSCF
-------------------------------------------------------------------------------

------------
SCF SETTINGS
------------
Hamiltonian:
 Density Functional     Method          .... DFT(GTOs)
  Functional kind                       .... Exchange
  Functional name                       .... Re-regularized SCAN exchange by Furness et al
  Functional family                     .... MGGA
  Functional refs                              
    [ 0] J. W. Furness, A. D. Kaplan, J. Ning, J. P. Perdew, and J. Sun.,  J. Phys. Chem. Lett. 11, 8208-8215 (2020), doi: 10.1021/acs.jpclett.0c02405
    [ 1] J. W. Furness, A. D. Kaplan, J. Ning, J. P. Perdew, and J. Sun.,  J. Phys. Chem. Lett. 11, 9248-9248 (2020), doi: 10.1021/acs.jpclett.0c03077
  Functional external parameters        .... 6
    Parameter  0 _c1        =  6.670000e-01 : c1 parameter        
    Parameter  1 _c2        =  8.000000e-01 : c2 parameter        
    Parameter  2 _d         =  1.240000e+00 : d parameter         
    Parameter  3 _k1        =  6.500000e-02 : k1 parameter        
    Parameter  4 _eta       =  1.000000e-03 : eta parameter       
    Parameter  5 _dp2       =  3.610000e-01 : dp2 parameter       
  Functional kind                       .... Correlation
  Functional name                       .... Re-regularized SCAN correlation by Furness et al
  Functional family                     .... MGGA
  Functional refs                              
    [ 0] J. W. Furness, A. D. Kaplan, J. Ning, J. P. Perdew, and J. Sun.,  J. Phys. Chem. Lett. 11, 8208-8215 (2020), doi: 10.1021/acs.jpclett.0c02405
    [ 1] J. W. Furness, A. D. Kaplan, J. Ning, J. P. Perdew, and J. Sun.,  J. Phys. Chem. Lett. 11, 9248-9248 (2020), doi: 10.1021/acs.jpclett.0c03077
  Functional external parameters        .... 1
    Parameter  0 _eta       =  1.000000e-03 : Regularization parameter
 Gradients option       PostSCFGGA      .... off
 Hybrid DFT is turned on
   Fraction HF Exchange ScalHFX         ....  0.100000
   Scaling of DF-GGA-X  ScalDFX         ....  0.900000
   Scaling of DF-GGA-C  ScalDFC         ....  1.000000
   Scaling of DF-LDA-C  ScalLDAC        ....  1.000000
   Perturbative correction              ....  0.000000
   NL short-range parameter             .... 11.900000
 RI-approximation to the Coulomb term is turned on
   Number of AuxJ basis functions       .... 1367
   RIJ-COSX (HFX calculated with COS-X)).... on


General Settings:
 Integral files         IntName         .... rf_mecn_2H2O_opt_r2s_sw_004
 Hartree-Fock type      HFTyp           .... UHF
 Total Charge           Charge          ....   -2
 Multiplicity           Mult            ....    2
 Number of Electrons    NEL             ....  221
 Basis Dimension        Dim             ....  861
 Nuclear Repulsion      ENuc            ....   3242.5806858604 Eh

Convergence Acceleration:
 AO-DIIS                CNVDIIS         .... on
   Start iteration      DIISMaxIt       ....     0
   Startup error        DIISStart       ....  0.200000
   # of expansion vecs  DIISMaxEq       ....     5
   Bias factor          DIISBfac        ....   1.050
   Max. coefficient     DIISMaxC        ....  10.000
 MO-DIIS                CNVKDIIS        .... off
 Trust-Rad. Augm. Hess. CNVTRAH         .... auto
   Auto Start mean grad. ratio tolernc. ....  1.125000
   Auto Start start iteration           ....    50
   Auto Start num. interpolation iter.  ....    10
   Max. Number of Micro iterations      ....    24
   Max. Number of Macro iterations      .... Maxiter - #DIIS iter
   Number of Davidson start vectors     ....     2
   Converg. threshold    (grad. norm)   ....   1.000e-05
   Grad. Scal. Fac. for Micro threshold ....   0.100
   Minimum threshold for Micro iter.    ....   1.000e-02
   NR start threshold (gradient norm)   ....   1.000e-04
   Initial trust radius                 ....   0.400
   Minimum AH scaling param. (alpha)    ....   1.000
   Maximum AH scaling param. (alpha)    .... 1000.000
   Quad. conv. algorithm                .... NR
   White noise on init. David. guess    .... on
   Maximum white noise                  ....   0.010
   Pseudo random numbers                .... off
   Inactive MOs                         .... canonical
   Orbital update algorithm             .... Taylor
   Preconditioner                       .... Diag
   Full preconditioner red. dimension   ....   250
 SOSCF                  CNVSOSCF        .... on
   Start iteration      SOSCFMaxIt      ....   150
   Startup grad/error   SOSCFStart      ....  0.001000
   Hessian update       SOSCFHessUp     .... L-BFGS
 Level Shifting         CNVShift        .... on
   Level shift para.    LevelShift      ....    0.2500
   Turn off err/grad.   ShiftErr        ....    0.0000
 Zerner damping         CNVZerner       .... off
 Static damping         CNVDamp         .... on
   Fraction old density DampFac         ....    0.8500
   Max. Damping (<1)    DampMax         ....    0.9800
   Min. Damping (>=0)   DampMin         ....    0.0000
   Turn off err/grad.   DampErr         ....    0.0300

SCF Procedure:
 Maximum # iterations   MaxIter         ....  1500
 SCF integral mode      SCFMode         .... Direct
   Integral package                     .... SHARK and LIBINT hybrid scheme
 Reset frequency        DirectResetFreq ....    20
 Integral Threshold     Thresh          ....  2.500e-11 Eh
 Primitive CutOff       TCut            ....  2.500e-12 Eh

Convergence Tolerance:
 Convergence Check Mode ConvCheckMode   .... Total+1el-Energy
 Convergence forced     ConvForced      .... 0
 Energy Change          TolE            ....  1.000e-08 Eh
 1-El. energy change                    ....  1.000e-05 Eh
 Orbital Gradient       TolG            ....  1.000e-05
 Orbital Rotation angle TolX            ....  1.000e-05
 DIIS Error             TolErr          ....  5.000e-07

------------------------------
INITIAL GUESS: MODEL POTENTIAL
------------------------------
Loading Hartree-Fock densities                     ... done
Calculating cut-offs                               ... done
Initializing the effective Hamiltonian             ... done
Setting up the integral package (SHARK)            ... done
Starting the Coulomb interaction                   ... done (   0.2 sec)
Making the grid                                    ... done (   0.5 sec)
Mapping shells                                     ... done
Starting the XC term evaluation                    ... done (   0.2 sec)
  promolecular density results
     # of electrons  =    218.991577806
     EX              =   -224.645063908
     EC              =     -7.640602558
     EX+EC           =   -232.285666466
Transforming the Hamiltonian                       ... done (   0.1 sec)
Diagonalizing the Hamiltonian                      ... done (   0.2 sec)
Back transforming the eigenvectors                 ... done (   0.0 sec)
Now organizing SCF variables                       ... done
                      ------------------
                      INITIAL GUESS DONE (   1.4 sec)
                      ------------------
             **** ENERGY FILE WAS UPDATED (rf_mecn_2H2O_opt_r2s_sw_004.en.tmp) ****
Finished Guess after   2.3 sec
Maximum memory used throughout the entire GUESS-calculation: 57.8 MB


           ************************************************************
           *        Program running with 20 parallel MPI-processes    *
           *              working on a common directory               *
           ************************************************************

-------------------------------------------------------------------------------------------
                                      ORCA LEAN-SCF
                              memory conserving SCF solver
-------------------------------------------------------------------------------------------

--------------------
CPCM SOLVATION MODEL
--------------------
CPCM parameters:
  Epsilon                                         ...      35.6880
  Refrac                                          ...       1.3442
  Rsolv                                           ...       1.3000
  Surface type                                    ... GAUSSIAN VDW
  Discretization scheme                           ... Constant charge density
    Threshold for H atoms                         ...       5.0000 (charges/Ang^2)
    Threshold for non-H atoms                     ...       5.0000 (charges/Ang^2)
  Epsilon function type                           ...         CPCM
Solvent:                                          ... ACETONITRILE
SMD-CDS solvent descriptors:
  Soln                                            ...       1.3442
  Soln25                                          ...       1.3416
  Sola                                            ...       0.0700
  Solb                                            ...       0.3200
  Solg                                            ...      41.2500
  Solc                                            ...       0.0000
  Solh                                            ...       0.0000
Radii:
  Scheme                                          ... Element-dependent radii
  Radius for C  used is    3.4960 Bohr (=   1.8500 Ang.)
  Radius for F  used is    3.2692 Bohr (=   1.7300 Ang.)
  Radius for O  used is    4.0969 Bohr (=   2.1680 Ang.)
  Radius for H  used is    2.2677 Bohr (=   1.2000 Ang.)
Calculating surface                               ...        done! (  0.0s)
Cavity surface points                             ...         2649
Cavity Volume                                     ...    2623.5303
Cavity Surface-area                               ...    1347.7159
Calculating surface distance matrix               ...        done! (  0.1s)
Performing Cholesky decomposition & store         ...        done! (  0.2s)
Overall time for CPCM initialization              ...                 0.2s

----------------------------------------D-I-I-S--------------------------------------------
Iteration    Energy (Eh)           Delta-E    RMSDP     MaxDP     DIISErr   Damp  Time(sec)
-------------------------------------------------------------------------------------------
               ***  Starting incremental Fock matrix formation  ***
    1    -2105.1370743154966476     0.00e+00  4.92e-04  8.71e-02  1.79e-01  0.850  10.1
Warning: op=0 Small HOMO/LUMO gap (  -0.000) - skipping pre-diagonalization
         Will do a full diagonalization
    2    -2105.3763395377627603    -2.39e-01  6.50e-04  1.41e-01  1.23e-01  0.850   6.8
                               ***Turning on AO-DIIS***
    3    -2105.5117549388405678    -1.35e-01  4.68e-04  1.11e-01  7.64e-02  0.850   5.9
    4    -2105.5926682708577573    -8.09e-02  3.41e-04  8.31e-02  5.67e-02  0.850   5.8
    5    -2105.6498220934772689    -5.72e-02  2.50e-04  5.51e-02  4.48e-02  0.850   5.9
    6    -2105.6943651134461106    -4.45e-02  1.89e-04  3.55e-02  3.67e-02  0.850   5.8
    7    -2105.7306415702751110    -3.63e-02  1.49e-04  2.33e-02  3.08e-02  0.850   5.5
    8    -2105.7607480949718592    -3.01e-02  1.22e-04  1.68e-02  2.60e-02  0.850   5.8
    9    -2105.7859123347134300    -2.52e-02  6.85e-04  8.86e-02  2.18e-02  0.000   5.3
   10    -2105.9219140384202547    -1.36e-01  3.37e-05  7.16e-03  2.82e-03  0.000   6.0
   11    -2105.9221643897044487    -2.50e-04  3.33e-05  6.55e-03  1.32e-03  0.000   5.2
                              *** Initializing SOSCF ***
---------------------------------------S-O-S-C-F--------------------------------------
Iteration    Energy (Eh)           Delta-E    RMSDP     MaxDP     MaxGrad    Time(sec)
--------------------------------------------------------------------------------------
   12    -2105.9222275840502334    -6.32e-05  2.00e-05  4.41e-03  8.45e-04     5.8
               *** Restarting incremental Fock matrix formation ***
   13    -2105.9222544499307332    -2.69e-05  2.94e-05  7.33e-03  7.51e-04     9.7
   14    -2105.9222706704767916    -1.62e-05  2.97e-05  7.47e-03  5.77e-04     7.3
   15    -2105.9222755292166767    -4.86e-06  1.10e-05  2.16e-03  3.21e-04     6.8
   16    -2105.9222784647554363    -2.94e-06  3.36e-06  6.24e-04  9.19e-05     6.5
   17    -2105.9222782567176182     2.08e-07  1.90e-06  4.55e-04  1.58e-04     5.7
   18    -2105.9222786683831146    -4.12e-07  8.10e-07  2.19e-04  2.04e-05     5.3
   19    -2105.9222786454283778     2.30e-08  4.92e-07  1.15e-04  1.98e-05     4.9
   20    -2105.9222786974041810    -5.20e-08  4.68e-07  1.44e-04  2.61e-06     4.6
   21    -2105.9222786792906845     1.81e-08  3.46e-07  1.04e-04  3.22e-06     4.2
   22    -2105.9222786791842736     1.06e-10  1.45e-07  4.72e-05  6.47e-07     3.9
                 **** Energy Check signals convergence ****

               *****************************************************
               *                     SUCCESS                       *
               *           SCF CONVERGED AFTER  22 CYCLES          *
               *****************************************************

Recomputing exchange energy using gridx3       ... done (   11.528 sec)
Old exchange energy                            :    -22.727415498 Eh
New exchange energy                            :    -22.727433108 Eh
Exchange energy change after final integration :     -0.000017610 Eh
Total energy after final integration           :  -2105.922296289 Eh

SMD CDS free energy correction energy :                 2.82688     Kcal/mol
Total Energy after SMD CDS correction =             -2105.917791370 Eh
             **** ENERGY FILE WAS UPDATED (rf_mecn_2H2O_opt_r2s_sw_004.en.tmp) ****

----------------
TOTAL SCF ENERGY
----------------

Total Energy       :      -2105.91779136952300 Eh          -57304.93643 eV

Components:
Nuclear Repulsion  :       3242.58068586044283 Eh           88235.10625 eV
Electronic Energy  :      -5348.27618036772219 Eh         -145533.99367 eV
One Electron Energy:      -9442.41620431320189 Eh         -256941.20756 eV
Two Electron Energy:       4094.14002394547970 Eh          111407.21388 eV
CPCM Dielectric    :         -0.22678417190450 Eh              -6.17111 eV
SMD CDS (Gcds)     :          0.00450491967380 Eh               0.12259 eV

Virial components:
Potential Energy   :      -4204.81143936239641 Eh         -114418.73620 eV
Kinetic Energy     :       2098.89364799287341 Eh           57113.79977 eV
Virial Ratio       :          2.00334659327945

DFT components:
N(Alpha)           :      110.999971375654 electrons
N(Beta)            :      109.999960837499 electrons
N(Total)           :      220.999932213153 electrons
E(X)               :     -205.681803151756 Eh       
E(C)               :       -7.659411282183 Eh       
E(XC)              :     -213.341214433939 Eh       

CPCM Solvation Model Properties:
Surface-charge          :          1.98970948905519
Corrected charge        :          2.00000000000000
Outlying charge corr.   :          0.00000529655176 Eh               0.00014 eV
Free-energy (cav+disp)  :          0.00450491967380 Eh               0.12259 eV

---------------
SCF CONVERGENCE
---------------

  Last Energy change         ...   -1.0641e-10  Tolerance :   1.0000e-08
  Last MAX-Density change    ...    4.7202e-05  Tolerance :   1.0000e-07
  Last RMS-Density change    ...    1.4475e-07  Tolerance :   5.0000e-09
  Last DIIS Error            ...    8.4513e-04  Tolerance :   5.0000e-07
  Last Orbital Gradient      ...    6.4707e-07  Tolerance :   1.0000e-05
  Last Orbital Rotation      ...    2.3015e-06  Tolerance :   1.0000e-05


----------------------
UHF SPIN CONTAMINATION
----------------------

Warning: in a DFT calculation there is little theoretical justification to 
         calculate <S**2> as in Hartree-Fock theory. We will do it anyways
         but you should keep in mind that the values have only limited relevance

Expectation value of <S**2>     :     0.754395
Ideal value S*(S+1) for S=0.5   :     0.750000
Deviation                       :     0.004395

----------------
ORBITAL ENERGIES
----------------
                 SPIN UP ORBITALS
  NO   OCC          E(Eh)            E(eV) 
   0   1.0000     -24.709752      -672.3865 
   1   1.0000     -24.709586      -672.3820 
   2   1.0000     -24.703298      -672.2109 
   3   1.0000     -24.693179      -671.9356 
   4   1.0000     -24.693125      -671.9341 
   5   1.0000     -24.685525      -671.7273 
   6   1.0000     -24.684177      -671.6906 
   7   1.0000     -24.679893      -671.5740 
   8   1.0000     -24.679192      -671.5550 
   9   1.0000     -24.679151      -671.5538 
  10   1.0000     -24.678905      -671.5471 
  11   1.0000     -24.674964      -671.4399 
  12   1.0000     -24.674769      -671.4346 
  13   1.0000     -24.674162      -671.4181 
  14   1.0000     -24.671444      -671.3441 
  15   1.0000     -19.068531      -518.8811 
  16   1.0000     -19.068050      -518.8680 
  17   1.0000     -19.057225      -518.5735 
  18   1.0000     -19.057007      -518.5675 
  19   1.0000     -10.409243      -283.2499 
  20   1.0000     -10.339017      -281.3389 
  21   1.0000     -10.328168      -281.0437 
  22   1.0000     -10.323572      -280.9187 
  23   1.0000     -10.323275      -280.9106 
  24   1.0000     -10.316752      -280.7331 
  25   1.0000     -10.312250      -280.6106 
  26   1.0000     -10.238567      -278.6056 
  27   1.0000      -1.331815       -36.2405 
  28   1.0000      -1.281220       -34.8638 
  29   1.0000      -1.277905       -34.7736 
  30   1.0000      -1.262585       -34.3567 
  31   1.0000      -1.255118       -34.1535 
  32   1.0000      -1.253127       -34.0993 
  33   1.0000      -1.245386       -33.8887 
  34   1.0000      -1.242557       -33.8117 
  35   1.0000      -1.235573       -33.6216 
  36   1.0000      -1.221649       -33.2428 
  37   1.0000      -1.217349       -33.1258 
  38   1.0000      -1.207578       -32.8599 
  39   1.0000      -1.202292       -32.7160 
  40   1.0000      -1.198973       -32.6257 
  41   1.0000      -1.194245       -32.4971 
  42   1.0000      -1.035294       -28.1718 
  43   1.0000      -0.970767       -26.4159 
  44   1.0000      -0.968015       -26.3410 
  45   1.0000      -0.946551       -25.7570 
  46   1.0000      -0.794353       -21.6154 
  47   1.0000      -0.783353       -21.3161 
  48   1.0000      -0.756349       -20.5813 
  49   1.0000      -0.724627       -19.7181 
  50   1.0000      -0.685260       -18.6469 
  51   1.0000      -0.653263       -17.7762 
  52   1.0000      -0.626756       -17.0549 
  53   1.0000      -0.599521       -16.3138 
  54   1.0000      -0.598565       -16.2878 
  55   1.0000      -0.597243       -16.2518 
  56   1.0000      -0.582848       -15.8601 
  57   1.0000      -0.575197       -15.6519 
  58   1.0000      -0.570887       -15.5346 
  59   1.0000      -0.563734       -15.3400 
  60   1.0000      -0.560874       -15.2621 
  61   1.0000      -0.549098       -14.9417 
  62   1.0000      -0.547613       -14.9013 
  63   1.0000      -0.543284       -14.7835 
  64   1.0000      -0.534672       -14.5492 
  65   1.0000      -0.528942       -14.3933 
  66   1.0000      -0.523403       -14.2425 
  67   1.0000      -0.513891       -13.9837 
  68   1.0000      -0.494780       -13.4637 
  69   1.0000      -0.478870       -13.0307 
  70   1.0000      -0.468209       -12.7406 
  71   1.0000      -0.467379       -12.7180 
  72   1.0000      -0.462482       -12.5848 
  73   1.0000      -0.448845       -12.2137 
  74   1.0000      -0.445426       -12.1207 
  75   1.0000      -0.443652       -12.0724 
  76   1.0000      -0.442732       -12.0474 
  77   1.0000      -0.438796       -11.9402 
  78   1.0000      -0.435485       -11.8502 
  79   1.0000      -0.434090       -11.8122 
  80   1.0000      -0.430613       -11.7176 
  81   1.0000      -0.429138       -11.6774 
  82   1.0000      -0.425902       -11.5894 
  83   1.0000      -0.420968       -11.4551 
  84   1.0000      -0.418721       -11.3940 
  85   1.0000      -0.411494       -11.1973 
  86   1.0000      -0.408608       -11.1188 
  87   1.0000      -0.407106       -11.0779 
  88   1.0000      -0.406363       -11.0577 
  89   1.0000      -0.402091       -10.9415 
  90   1.0000      -0.397117       -10.8061 
  91   1.0000      -0.396120       -10.7790 
  92   1.0000      -0.392242       -10.6734 
  93   1.0000      -0.390313       -10.6209 
  94   1.0000      -0.389023       -10.5859 
  95   1.0000      -0.384836       -10.4719 
  96   1.0000      -0.383682       -10.4405 
  97   1.0000      -0.378900       -10.3104 
  98   1.0000      -0.376466       -10.2442 
  99   1.0000      -0.368350       -10.0233 
 100   1.0000      -0.357807        -9.7364 
 101   1.0000      -0.341885        -9.3032 
 102   1.0000      -0.338672        -9.2157 
 103   1.0000      -0.331788        -9.0284 
 104   1.0000      -0.300943        -8.1891 
 105   1.0000      -0.267235        -7.2718 
 106   1.0000      -0.265068        -7.2129 
 107   1.0000      -0.248373        -6.7586 
 108   1.0000      -0.234953        -6.3934 
 109   1.0000      -0.232283        -6.3207 
 110   1.0000      -0.065928        -1.7940 
 111   0.0000       0.009097         0.2475 
 112   0.0000       0.038678         1.0525 
 113   0.0000       0.055999         1.5238 
 114   0.0000       0.066167         1.8005 
 115   0.0000       0.083167         2.2631 
 116   0.0000       0.092580         2.5192 
 117   0.0000       0.101541         2.7631 
 118   0.0000       0.122461         3.3323 
 119   0.0000       0.129895         3.5346 
 120   0.0000       0.138451         3.7674 
 121   0.0000       0.141798         3.8585 

                 SPIN DOWN ORBITALS
  NO   OCC          E(Eh)            E(eV) 
   0   1.0000     -24.709729      -672.3859 
   1   1.0000     -24.709562      -672.3814 
   2   1.0000     -24.702126      -672.1790 
   3   1.0000     -24.692785      -671.9248 
   4   1.0000     -24.692762      -671.9242 
   5   1.0000     -24.685371      -671.7231 
   6   1.0000     -24.683935      -671.6840 
   7   1.0000     -24.679453      -671.5621 
   8   1.0000     -24.678703      -671.5417 
   9   1.0000     -24.678554      -671.5376 
  10   1.0000     -24.678220      -671.5285 
  11   1.0000     -24.674776      -671.4348 
  12   1.0000     -24.674656      -671.4315 
  13   1.0000     -24.673500      -671.4001 
  14   1.0000     -24.670664      -671.3229 
  15   1.0000     -19.068534      -518.8812 
  16   1.0000     -19.068053      -518.8681 
  17   1.0000     -19.056743      -518.5603 
  18   1.0000     -19.056550      -518.5551 
  19   1.0000     -10.407896      -283.2132 
  20   1.0000     -10.336966      -281.2832 
  21   1.0000     -10.326696      -281.0037 
  22   1.0000     -10.320645      -280.8390 
  23   1.0000     -10.320318      -280.8301 
  24   1.0000     -10.313239      -280.6375 
  25   1.0000     -10.311514      -280.5906 
  26   1.0000     -10.238082      -278.5924 
  27   1.0000      -1.330834       -36.2138 
  28   1.0000      -1.279774       -34.8244 
  29   1.0000      -1.276620       -34.7386 
  30   1.0000      -1.261001       -34.3136 
  31   1.0000      -1.254549       -34.1380 
  32   1.0000      -1.251683       -34.0600 
  33   1.0000      -1.245277       -33.8857 
  34   1.0000      -1.240750       -33.7625 
  35   1.0000      -1.233804       -33.5735 
  36   1.0000      -1.220871       -33.2216 
  37   1.0000      -1.216776       -33.1101 
  38   1.0000      -1.206596       -32.8331 
  39   1.0000      -1.201338       -32.6901 
  40   1.0000      -1.198642       -32.6167 
  41   1.0000      -1.192998       -32.4631 
  42   1.0000      -1.034392       -28.1472 
  43   1.0000      -0.970720       -26.4146 
  44   1.0000      -0.968005       -26.3408 
  45   1.0000      -0.945807       -25.7367 
  46   1.0000      -0.784173       -21.3384 
  47   1.0000      -0.775024       -21.0895 
  48   1.0000      -0.746698       -20.3187 
  49   1.0000      -0.717450       -19.5228 
  50   1.0000      -0.680714       -18.5232 
  51   1.0000      -0.650459       -17.6999 
  52   1.0000      -0.623922       -16.9778 
  53   1.0000      -0.598773       -16.2934 
  54   1.0000      -0.595928       -16.2160 
  55   1.0000      -0.593272       -16.1437 
  56   1.0000      -0.579888       -15.7796 
  57   1.0000      -0.570617       -15.5273 
  58   1.0000      -0.569249       -15.4900 
  59   1.0000      -0.562514       -15.3068 
  60   1.0000      -0.556533       -15.1440 
  61   1.0000      -0.547520       -14.8988 
  62   1.0000      -0.543577       -14.7915 
  63   1.0000      -0.540928       -14.7194 
  64   1.0000      -0.533632       -14.5209 
  65   1.0000      -0.524197       -14.2641 
  66   1.0000      -0.520704       -14.1691 
  67   1.0000      -0.512986       -13.9591 
  68   1.0000      -0.494559       -13.4576 
  69   1.0000      -0.478839       -13.0299 
  70   1.0000      -0.467024       -12.7084 
  71   1.0000      -0.466396       -12.6913 
  72   1.0000      -0.461975       -12.5710 
  73   1.0000      -0.448229       -12.1969 
  74   1.0000      -0.444692       -12.1007 
  75   1.0000      -0.443205       -12.0602 
  76   1.0000      -0.442151       -12.0315 
  77   1.0000      -0.438083       -11.9208 
  78   1.0000      -0.434771       -11.8307 
  79   1.0000      -0.433160       -11.7869 
  80   1.0000      -0.429794       -11.6953 
  81   1.0000      -0.428179       -11.6513 
  82   1.0000      -0.425275       -11.5723 
  83   1.0000      -0.420024       -11.4294 
  84   1.0000      -0.417695       -11.3661 
  85   1.0000      -0.410663       -11.1747 
  86   1.0000      -0.407610       -11.0916 
  87   1.0000      -0.406557       -11.0630 
  88   1.0000      -0.405439       -11.0326 
  89   1.0000      -0.401081       -10.9140 
  90   1.0000      -0.396564       -10.7911 
  91   1.0000      -0.394724       -10.7410 
  92   1.0000      -0.391759       -10.6603 
  93   1.0000      -0.388639       -10.5754 
  94   1.0000      -0.384263       -10.4563 
  95   1.0000      -0.383543       -10.4367 
  96   1.0000      -0.381208       -10.3732 
  97   1.0000      -0.376332       -10.2405 
  98   1.0000      -0.371485       -10.1086 
  99   1.0000      -0.361002        -9.8234 
 100   1.0000      -0.352452        -9.5907 
 101   1.0000      -0.341242        -9.2857 
 102   1.0000      -0.338070        -9.1994 
 103   1.0000      -0.328084        -8.9276 
 104   1.0000      -0.298432        -8.1207 
 105   1.0000      -0.267048        -7.2667 
 106   1.0000      -0.265038        -7.2121 
 107   1.0000      -0.246352        -6.7036 
 108   1.0000      -0.233612        -6.3569 
 109   1.0000      -0.231733        -6.3058 
 110   0.0000      -0.013237        -0.3602 
 111   0.0000       0.023812         0.6480 
 112   0.0000       0.044410         1.2085 
 113   0.0000       0.060990         1.6596 
 114   0.0000       0.079739         2.1698 
 115   0.0000       0.084406         2.2968 
 116   0.0000       0.096018         2.6128 
 117   0.0000       0.104759         2.8506 
 118   0.0000       0.127815         3.4780 
 119   0.0000       0.135724         3.6932 
 120   0.0000       0.139752         3.8028 
*Only the first 10 virtual orbitals were printed.

                    ********************************
                    * MULLIKEN POPULATION ANALYSIS *
                    ********************************

--------------------------------------------
MULLIKEN ATOMIC CHARGES AND SPIN POPULATIONS
--------------------------------------------
   0 C :    0.447155    0.061234
   1 C :    0.293625    0.111298
   2 C :    0.235273    0.208395
   3 C :    0.235983    0.243520
   4 C :    0.269014    0.165773
   5 C :    0.255960    0.083697
   6 C :    0.316267    0.040629
   7 C :    0.326217    0.021097
   8 F :   -0.177142   -0.000845
   9 F :   -0.177630   -0.000884
  10 F :   -0.184951    0.012792
  11 F :   -0.204076    0.002501
  12 F :   -0.204393    0.002790
  13 F :   -0.225986    0.003854
  14 F :   -0.223826    0.003584
  15 F :   -0.234272    0.004480
  16 F :   -0.227116    0.003546
  17 F :   -0.219798    0.001492
  18 F :   -0.219886    0.001789
  19 F :   -0.211928    0.000436
  20 F :   -0.209347    0.001429
  21 F :   -0.218355    0.000689
  22 F :   -0.221273    0.001409
  23 O :   -0.553339    0.012290
  24 O :   -0.557009    0.012951
  25 O :   -0.748792   -0.000044
  26 H :    0.333607   -0.000002
  27 H :    0.358533   -0.000078
  28 H :    0.357698   -0.000179
  29 O :   -0.741189   -0.000103
  30 H :    0.330976    0.000462
Sum of atomic charges         :   -2.0000000
Sum of atomic spin populations:    1.0000000

-----------------------------------------------------
MULLIKEN REDUCED ORBITAL CHARGES AND SPIN POPULATIONS
-----------------------------------------------------
CHARGE
  0 C s       :     3.040307  s :     3.040307
      pz      :     0.634157  p :     2.132887
      px      :     0.655850
      py      :     0.842880
      dz2     :     0.071504  d :     0.340342
      dxz     :     0.082365
      dyz     :     0.060194
      dx2y2   :     0.062443
      dxy     :     0.063836
      f0      :     0.007776  f :     0.039309
      f+1     :     0.004983
      f-1     :     0.005389
      f+2     :     0.008110
      f-2     :     0.003859
      f+3     :     0.002846
      f-3     :     0.006346

  1 C s       :     3.101493  s :     3.101493
      pz      :     0.728371  p :     2.292788
      px      :     0.654953
      py      :     0.909464
      dz2     :     0.052720  d :     0.285496
      dxz     :     0.065924
      dyz     :     0.050366
      dx2y2   :     0.061602
      dxy     :     0.054884
      f0      :     0.005652  f :     0.026597
      f+1     :     0.004177
      f-1     :     0.003558
      f+2     :     0.004572
      f-2     :     0.001494
      f+3     :     0.002246
      f-3     :     0.004898

  2 C s       :     3.131971  s :     3.131971
      pz      :     0.718925  p :     2.313702
      px      :     0.677319
      py      :     0.917459
      dz2     :     0.050720  d :     0.293452
      dxz     :     0.061959
      dyz     :     0.060112
      dx2y2   :     0.069169
      dxy     :     0.051491
      f0      :     0.005205  f :     0.025602
      f+1     :     0.004028
      f-1     :     0.003174
      f+2     :     0.004541
      f-2     :     0.001744
      f+3     :     0.002171
      f-3     :     0.004740

  3 C s       :     3.138155  s :     3.138155
      pz      :     0.739805  p :     2.309295
      px      :     0.683970
      py      :     0.885520
      dz2     :     0.052378  d :     0.291182
      dxz     :     0.060725
      dyz     :     0.057659
      dx2y2   :     0.069887
      dxy     :     0.050532
      f0      :     0.005119  f :     0.025386
      f+1     :     0.004203
      f-1     :     0.003272
      f+2     :     0.004297
      f-2     :     0.001591
      f+3     :     0.002189
      f-3     :     0.004715

  4 C s       :     3.128270  s :     3.128270
      pz      :     0.726330  p :     2.290335
      px      :     0.660703
      py      :     0.903302
      dz2     :     0.051735  d :     0.286379
      dxz     :     0.063870
      dyz     :     0.054069
      dx2y2   :     0.065187
      dxy     :     0.051519
      f0      :     0.005489  f :     0.026002
      f+1     :     0.004079
      f-1     :     0.003544
      f+2     :     0.004447
      f-2     :     0.001469
      f+3     :     0.002105
      f-3     :     0.004870

  5 C s       :     3.146080  s :     3.146080
      pz      :     0.739980  p :     2.292015
      px      :     0.623845
      py      :     0.928191
      dz2     :     0.051471  d :     0.279181
      dxz     :     0.061523
      dyz     :     0.050088
      dx2y2   :     0.061064
      dxy     :     0.055035
      f0      :     0.005413  f :     0.026765
      f+1     :     0.003468
      f-1     :     0.003139
      f+2     :     0.005503
      f-2     :     0.002033
      f+3     :     0.002156
      f-3     :     0.005053

  6 C s       :     3.107980  s :     3.107980
      pz      :     0.730777  p :     2.291008
      px      :     0.583533
      py      :     0.976697
      dz2     :     0.047692  d :     0.258584
      dxz     :     0.055956
      dyz     :     0.045677
      dx2y2   :     0.054559
      dxy     :     0.054700
      f0      :     0.004547  f :     0.026162
      f+1     :     0.004216
      f-1     :     0.002384
      f+2     :     0.004856
      f-2     :     0.003147
      f+3     :     0.002599
      f-3     :     0.004412

  7 C s       :     3.019279  s :     3.019279
      pz      :     0.804661  p :     2.380012
      px      :     0.689086
      py      :     0.886265
[...]
      dz2     :     0.000149  d :     0.000352
      dxz     :     0.000086
      dyz     :    -0.000006
      dx2y2   :     0.000011
      dxy     :     0.000113
      f0      :     0.000011  f :     0.000016
      f+1     :    -0.000001
      f-1     :    -0.000001
      f+2     :    -0.000000
      f-2     :     0.000005
      f+3     :     0.000001
      f-3     :     0.000001

 22 F s       :     0.000983  s :     0.000983
      pz      :    -0.000142  p :     0.001814
      px      :     0.001915
      py      :     0.000040
      dz2     :     0.000153  d :     0.000256
      dxz     :    -0.000007
      dyz     :     0.000031
      dx2y2   :     0.000016
      dxy     :     0.000062
      f0      :    -0.000001  f :     0.000012
      f+1     :     0.000008
      f-1     :     0.000001
      f+2     :    -0.000000
      f-2     :    -0.000001
      f+3     :     0.000001
      f-3     :     0.000005

 23 O s       :     0.000320  s :     0.000320
      pz      :     0.010693  p :     0.011045
      px      :     0.001507
      py      :    -0.001155
      dz2     :     0.000457  d :     0.000904
      dxz     :     0.000139
      dyz     :     0.000294
      dx2y2   :     0.000016
      dxy     :    -0.000002
      f0      :    -0.000002  f :     0.000072
      f+1     :     0.000032
      f-1     :     0.000027
      f+2     :    -0.000000
      f-2     :     0.000009
      f+3     :    -0.000003
      f-3     :     0.000008

 24 O s       :     0.000303  s :     0.000303
      pz      :     0.010162  p :     0.011441
      px      :     0.002015
      py      :    -0.000735
      dz2     :     0.000063  d :     0.000902
      dxz     :     0.000635
      dyz     :     0.000122
      dx2y2   :     0.000103
      dxy     :    -0.000021
      f0      :     0.000023  f :     0.000069
      f+1     :     0.000007
      f-1     :     0.000001
      f+2     :     0.000019
      f-2     :     0.000019
      f+3     :    -0.000003
      f-3     :     0.000004

 25 O s       :    -0.000005  s :    -0.000005
      pz      :    -0.000019  p :    -0.000045
      px      :    -0.000015
      py      :    -0.000011
      dz2     :    -0.000000  d :    -0.000000
      dxz     :    -0.000000
      dyz     :     0.000000
      dx2y2   :    -0.000001
      dxy     :     0.000000
      f0      :    -0.000000  f :    -0.000000
      f+1     :    -0.000000
      f-1     :     0.000000
      f+2     :    -0.000000
      f-2     :     0.000000
      f+3     :    -0.000000
      f-3     :    -0.000000

 26 H s       :    -0.000003  s :    -0.000003
      pz      :     0.000000  p :    -0.000001
      px      :    -0.000002
      py      :     0.000001

 27 H s       :    -0.000040  s :    -0.000040
      pz      :    -0.000009  p :    -0.000022
      px      :    -0.000009
      py      :    -0.000004

 28 H s       :    -0.000031  s :    -0.000031
      pz      :     0.000010  p :    -0.000028
      px      :    -0.000038
      py      :     0.000000

 29 O s       :     0.000007  s :     0.000007
      pz      :    -0.000017  p :    -0.000057
      px      :    -0.000045
      py      :     0.000006
      dz2     :     0.000000  d :     0.000002
      dxz     :    -0.000001
      dyz     :     0.000001
      dx2y2   :     0.000001
      dxy     :    -0.000000
      f0      :    -0.000000  f :     0.000000
      f+1     :     0.000000
      f-1     :     0.000000
      f+2     :    -0.000000
      f-2     :    -0.000000
      f+3     :     0.000000
      f-3     :     0.000000

 30 H s       :     0.000246  s :     0.000246
      pz      :     0.000005  p :     0.000024
      px      :    -0.000001
      py      :     0.000020



                      *****************************
                      * MAYER POPULATION ANALYSIS *
                      *****************************

  NA   - Mulliken gross atomic population
  ZA   - Total nuclear charge
  QA   - Mulliken gross atomic charge
  VA   - Mayer's total valence
  BVA  - Mayer's bonded valence
  FA   - Mayer's free valence

  ATOM       NA         ZA         QA         VA         BVA        FA
  0 C      5.5531     6.0000     0.4469     4.4781     4.4729     0.0052
  1 C      5.7038     6.0000     0.2962     4.1647     4.1430     0.0217
  2 C      5.7697     6.0000     0.2303     4.0935     4.0274     0.0661
  3 C      5.7588     6.0000     0.2412     4.0733     3.9866     0.0867
  4 C      5.7351     6.0000     0.2649     4.0812     4.0347     0.0464
  5 C      5.7388     6.0000     0.2612     4.0568     4.0433     0.0135
  6 C      5.6834     6.0000     0.3166     3.9698     3.9672     0.0027
  7 C      5.6742     6.0000     0.3258     4.3710     4.3698     0.0011
  8 F      9.1768     9.0000    -0.1768     1.1267     1.1267     0.0000
  9 F      9.1769     9.0000    -0.1769     1.1266     1.1266     0.0000
 10 F      9.1853     9.0000    -0.1853     1.1019     1.1016     0.0002
 11 F      9.2042     9.0000    -0.2042     1.0811     1.0811     0.0000
 12 F      9.2039     9.0000    -0.2039     1.0817     1.0816     0.0000
 13 F      9.2257     9.0000    -0.2257     1.0435     1.0433     0.0002
 14 F      9.2239     9.0000    -0.2239     1.0471     1.0470     0.0001
 15 F      9.2319     9.0000    -0.2319     1.0299     1.0297     0.0002
 16 F      9.2282     9.0000    -0.2282     1.0354     1.0353     0.0002
 17 F      9.2196     9.0000    -0.2196     1.0543     1.0542     0.0001
 18 F      9.2205     9.0000    -0.2205     1.0512     1.0511     0.0001
 19 F      9.2110     9.0000    -0.2110     1.0783     1.0783     0.0000
 20 F      9.2117     9.0000    -0.2117     1.0797     1.0797     0.0000
 21 F      9.2189     9.0000    -0.2189     1.0593     1.0593     0.0000
 22 F      9.2233     9.0000    -0.2233     1.0495     1.0495     0.0000
 23 O      8.5516     8.0000    -0.5516     1.9098     1.9096     0.0002
 24 O      8.5586     8.0000    -0.5586     1.9053     1.9051     0.0002
 25 O      8.7491     8.0000    -0.7491     1.7104     1.7104     0.0000
 26 H      0.6664     1.0000     0.3336     0.9060     0.9060     0.0000
 27 H      0.6418     1.0000     0.3582     0.9422     0.9422     0.0000
 28 H      0.6426     1.0000     0.3574     0.9477     0.9477     0.0000
 29 O      8.7431     8.0000    -0.7431     1.7302     1.7302     0.0000
 30 H      0.6685     1.0000     0.3315     0.9163     0.9163     0.0000

  Mayer bond orders larger than 0.100000
B(  0-C ,  1-C ) :   0.9441 B(  0-C ,  8-F ) :   1.1256 B(  0-C ,  9-F ) :   1.1252 
B(  0-C , 10-F ) :   1.0841 B(  1-C ,  2-C ) :   0.9135 B(  1-C , 11-F ) :   1.0373 
B(  1-C , 12-F ) :   1.0366 B(  2-C ,  3-C ) :   0.8924 B(  2-C , 13-F ) :   1.0027 
B(  2-C , 14-F ) :   1.0052 B(  3-C ,  4-C ) :   0.8939 B(  3-C , 15-F ) :   0.9871 
B(  3-C , 16-F ) :   0.9950 B(  4-C ,  5-C ) :   0.8742 B(  4-C , 17-F ) :   1.0181 
B(  4-C , 18-F ) :   1.0141 B(  5-C ,  6-C ) :   0.8802 B(  5-C , 19-F ) :   1.0379 
B(  5-C , 20-F ) :   1.0479 B(  6-C ,  7-C ) :   0.8971 B(  6-C , 21-F ) :   1.0311 
B(  6-C , 22-F ) :   1.0226 B(  7-C , 23-O ) :   1.6842 B(  7-C , 24-O ) :   1.6845 
B( 23-O , 28-H ) :   0.1215 B( 24-O , 27-H ) :   0.1160 B( 25-O , 26-H ) :   0.9009 
B( 25-O , 27-H ) :   0.8079 B( 28-H , 29-O ) :   0.8118 B( 29-O , 30-H ) :   0.9004 


-------
TIMINGS
-------

Total SCF time: 0 days 0 hours 0 min 43 sec 

Total time                  ....      43.807 sec
Sum of individual times     ....      43.471 sec  ( 99.2%)

SCF preparation             ....       1.455 sec  (  3.3%)
Fock matrix formation       ....      34.707 sec  ( 79.2%)
  Startup                   ....       0.183 sec  (  0.5% of F)
  Split-RI-J                ....       2.085 sec  (  6.0% of F)
  Chain of spheres X        ....      23.778 sec  ( 68.5% of F)
  XC integration            ....       6.353 sec  ( 18.3% of F)
    XC Preparation          ....       0.000 sec  (  0.0% of XC)
    Basis function eval.    ....       0.372 sec  (  5.9% of XC)
    Density eval.           ....       1.843 sec  ( 29.0% of XC)
    XC-Functional eval.     ....       0.131 sec  (  2.1% of XC)
    XC-Potential eval.      ....       1.837 sec  ( 28.9% of XC)
  CPCM terms                ....       1.910 sec  (  5.5% of F)
Diagonalization             ....       0.000 sec  (  0.0%)
Density matrix formation    ....       0.552 sec  (  1.3%)
Total Energy calculation    ....       0.239 sec  (  0.5%)
Population analysis         ....       0.622 sec  (  1.4%)
Orbital Transformation      ....       1.349 sec  (  3.1%)
Orbital Orthonormalization  ....       0.000 sec  (  0.0%)
DIIS solution               ....       3.121 sec  (  7.1%)
SOSCF solution              ....       1.425 sec  (  3.3%)
Finished LeanSCF after  44.4 sec

Maximum memory used throughout the entire LEANSCF-calculation: 133.4 MB


-------------------------------------------------------------------------------
                          DFT DISPERSION CORRECTION                            
                                                                               
                              DFTD3 V3.1  Rev 1                                
                          USING Becke-Johnson damping                          
-------------------------------------------------------------------------------
The R2SCANh functional is recognized
Active option DFTDOPT                   ...         4   

molecular C6(AA) [au] = 8950.736059 


            DFT-D V3
 parameters
 s6 scaling factor         :     1.0000 
 a1 scaling factor         :     0.4709 
 s8 scaling factor         :     1.1236 
 a2 scaling factor         :     5.9157 
 ad hoc parameters k1-k3   :    16.0000     1.3333    -4.0000 

 Edisp/kcal,au: -6.285964005676  -0.010017320208 
 E6   /kcal   :  -4.628197938 
 E8   /kcal   :  -1.657766068 
 % E8         :  26.372503344 

-------------------------   ----------------
Dispersion correction           -0.010017320
-------------------------   ----------------


-------------------------   --------------------
FINAL SINGLE POINT ENERGY     -2105.928189350483
-------------------------   --------------------

                                *** OPTIMIZATION RUN DONE ***



           ************************************************************
           *        Program running with 20 parallel MPI-processes    *
           *              working on a common directory               *
           ************************************************************

------------------------------------------------------------------------------
                              ORCA PROPERTY CALCULATIONS
------------------------------------------------------------------------------

GBWName                                 ... rf_mecn_2H2O_opt_r2s_sw_004.gbw
Number of atoms                         ...     31
Number of basis functions               ...    861
Max core memory                         ...   8000 MB

Electric properties:
Dipole moment                           ... YES
Quadrupole moment                       ...  NO
Static polarizability (Dipole/Dipole)   ...  NO
Static polarizability (Dipole/Quad.)    ...  NO
Static polarizability (Quad./Quad.)     ...  NO
Static polarizability (Velocity)        ...  NO

Atomic electric properties:
Dipole moment                           ...  NO
Quadrupole moment                       ...  NO
Static polarizability                   ...  NO

Choice of electric origin               ... Center of mass
Position of electric origin             ...    13.200218    43.608255     3.298223

General magnetic properties:
Magnetizability                         ...  NO

EPR properties:
g-Tensor (aka g-matrix)                 ...  NO
Zero-Field splitting spin-orbit         ...  NO
Zero-field splitting spin-spin          ...  NO
Hyperfine couplings                     ...  NO (   0 nuclei)
Quadrupole couplings                    ...  NO (   0 nuclei)
Contact density                         ...  NO (   0 nuclei)

NMR properties:
Chemical shifts                         ...  NO (   0 nuclei)
Spin-rotation constants                 ...  NO (   0 nuclei)
Spin-spin couplings                     ...  NO (   0 nuclei,    0 pairs)

Choice of magnetic origin               ... GIAO
Position of magnetic origin             ...     0.000000     0.000000     0.000000

Properties with geometric perturbations:
SCF Hessian                             ...  NO
IR spectrum                             ...  NO
VCD spectrum                            ...  NO
X-ray spectroscopy properties:
SCF XES/XAS/RIXS spectra                ...  NO


-------------
DIPOLE MOMENT
-------------

Method             : SCF
Type of density    : Electron Density
Multiplicity       :   2
Irrep              :   0
Energy             : -2105.9181720302754002 Eh
Relativity type    : 
Basis              : AO
                                X                 Y                 Z
Electronic contribution:      2.747188774      37.642794860       7.289649674
Nuclear contribution   :     -2.712831469     -30.582374605      -6.049997181
                        -----------------------------------------
Total Dipole Moment    :      0.034357305       7.060420256       1.239652493
                        -----------------------------------------
Magnitude (a.u.)       :      7.168504231
Magnitude (Debye)      :     18.220889718



--------------------
Rotational spectrum 
--------------------
 
Rotational constants in cm-1:             0.013686             0.002983             0.002771 
Rotational constants in MHz :           410.299351            89.430203            83.065544 

Dipole components along the rotational axes: 
x,y,z [a.u.] :    -7.128964    -0.579737     0.478785 
x,y,z [Debye]:   -18.120386    -1.473575     1.216975 

 

Dipole moment calculation done in   0.1 sec 

Maximum memory used throughout the entire PROP-calculation: 69.7 MB

--------------------------------
SUGGESTED CITATIONS FOR THIS RUN
--------------------------------

Below you find a list of papers that are relevant to this ORCA run
We neither can nor want to force you to cite these papers, but we appreciate if you do
You receive ORCA, which is the product of decades of hard work by many enthusiastic individuals, for free
The only thing we kindly ask in return is that you cite our papers,
We deeply appreciate it, if you show your appreciation for ORCA by not just citing the generic ORCA reference.

Please note that relegating all ORCA citations to the supporting information does *not* help us.
SI sections are not indexed - citations you put there will not count into any citation statistics
But we need these citations in order to attract the funding resources that allow us to do what we are doing

Therefore, if you are a happy ORCA user, please consider citing a few of the papers listed below in the main body of your paper

In addition to the list printed below, the program has created the file rf_mecn_2H2O_opt_r2s_sw_004.bibtex that contains the list in bibtex format
You can import this file easily into all common literature databanks and citation aid programs


List of essential papers. We consider these as the minimum necessary citations

  1. Neese,F.
     Software update: the ORCA program system, version 5.0
     WIRES Comput. Molec. Sci., 2022 12(1)e1606
     doi.org/10.1002/wcms.1606

List of papers to cite with high priority. The work reported in these papers was absolutely
necessary for this run to complete.
Our perspective: the developers of density functionals and basis sets usually get cited in chemistry papers
Good! But without the algorithms to do something with them, the functionals or basis sets would not do anything.
Hence, in our opinion, the algorithm design and method developments papers are equally worthy of getting cited

  1. Neese,F.
     An improvement of the resolution of the identity approximation for the formation of the Coulomb matrix
     J. Comp. Chem., 2003 24(14)1740-1747
     doi.org/10.1002/jcc.10318
  2. Neese,F.; Wennmohs,F.; Hansen,A.; Becker,U.
     Efficient, approximate and parallel Hartree-Fock and hybrid DFT calculations. A 'chain-of-spheres' algorithm for the Hartree-Fock exchange
     Chem. Phys., 2009 356(1-3)98-109
     doi.org/10.1016/j.chemphys.2008.10.036
  3. Garcia-Rates,M.; Neese,F.
     Effect of the Solute Cavity on the Solvation Energy and its Derivatives within the Framework of the Gaussian Charge Scheme
     J. Comput. Chem., 2020 41 922-939
     doi.org/10.1002/jcc.26139
  4. Helmich-Paris,B.; de Souza,B.; Neese,F.; Izsák,R.
     An improved chain of spheres for exchange algorithm
     J. Chem. Phys., 2021 155 104109
     doi.org/doi: 10.1063/5.0058766.
  5. Neese,F.
     The SHARK Integral Generation and Digestion System
     J. Comp. Chem., 2022  1-16
     doi.org/10.1002/jcc.26942
  6. Lehtola,S.; Steigemann,C.; Oliveira,M.; Marques,M.
     Recent developments in Libxc - A comprehensive library of functionals for density functional theory
     Software X, 2018 7 
     doi.org/10.1016/j.softx.2017.11.002
  7. Grimme,S.; Antony,J.; Ehrlich,S.; Krieg,H.
     A consistent and accurate ab initio parametrization of density functional dispersion correction (DFT-D) for the 94 elements H-Pu
     J. Chem. Phys., 2010 132 154104
     doi.org/10.1063/1.3382344
  8. Grimme,S.; Ehrlich,S.; Goerigk,L.
     Effect of the damping function in dispersion corrected density functional theory
     J. Comput. Chem., 2011 32(7)1456-1465
     doi.org/10.1002/jcc.21759
  9. Bursch,M.; Neugebauer,H.; Ehlert,S.; Grimme,S.
     Dispersion corrected r2SCAN based global hybrid functionals: r2SCANh, r2SCAN0, and r2SCAN50
     J. Phys. Chem., 2022 156(13)134105
     doi.org/10.1063/5.0086040

List of suggested additional citations. These are papers that are important in the 'surrounding' of 
of this run, or papers that preceded the highly important papers. If you like your results we are grateful for a citation.

  1. Izsak,R.; Neese,F.
     An overlap fitted chain of spheres exchange method
     J. Chem. Phys., 2011 135 144105
     doi.org/10.1063/1.3646921
  2. Izsak,R.; Hansen,A.; Neese,F.
     The resolution of identity and chain of spheres approximations for the LPNO-CCSD singles Fock term
     Molec. Phys., 2012 110 2413-2417
     doi.org/10.1080/00268976.2012.687466
  3. Neese,F.
     The ORCA program system
     WIRES Comput. Molec. Sci., 2012 2(1)73-78
     doi.org/10.1002/wcms.81
  4. Izsak,R.; Neese,F.; Klopper,W.
     Robust fitting techniques in the chain of spheres approximation to the Fock exchange: The role of the complementary space
     J. Chem. Phys., 2013 139 
     doi.org/10.1063/1.4819264
  5. Neese,F.
     Software update: the ORCA program system, version 4.0
     WIRES Comput. Molec. Sci., 2018 8(1)1-6
     doi.org/10.1002/wcms.1327
  6. Neese,F.; Wennmohs,F.; Becker,U.; Riplinger,C.
     The ORCA quantum chemistry program package
     J. Chem. Phys., 2020 152 Art. No. L224108
     doi.org/10.1063/5.0004608
  7. Wittmann,L.; Neugebauer,H.; Grimme,S.; Bursch,M.
     Dispersion-corrected r2SCAN based double-hybrid functionals
     J. Chem. Phys., 2023 159(22)224103
     doi.org/10.1063/5.0174988

List of optional additional citations

  1. Neese,F.
     Approximate second-order SCF convergence for spin unrestricted wavefunctions
     Chem. Phys. Lett., 2000 325(1-3)93-98
     doi.org/10.1016/s0009-2614(00)00662-x

Timings for individual modules:

Sum of individual times          ...     4217.811 sec (=  70.297 min)
Startup calculation              ...      186.931 sec (=   3.116 min)   4.4 %
SCF iterations                   ...     2944.876 sec (=  49.081 min)  69.8 %
Property calculations            ...        0.893 sec (=   0.015 min)   0.0 %
SCF Gradient evaluation          ...     1083.815 sec (=  18.064 min)  25.7 %
Geometry relaxation              ...        1.296 sec (=   0.022 min)   0.0 %
                             ****ORCA TERMINATED NORMALLY****
TOTAL RUN TIME: 0 days 1 hours 10 minutes 46 seconds 375 msec
