
                                 *****************
                                 * O   R   C   A *
                                 *****************

                                            #,                                       
                                            ###                                      
                                            ####                                     
                                            #####                                    
                                            ######                                   
                                           ########,                                 
                                     ,,################,,,,,                         
                               ,,#################################,,                 
                          ,,##########################################,,             
                       ,#########################################, ''#####,          
                    ,#############################################,,   '####,        
                  ,##################################################,,,,####,       
                ,###########''''           ''''###############################       
              ,#####''   ,,,,##########,,,,          '''####'''          '####       
            ,##' ,,,,###########################,,,                        '##       
           ' ,,###''''                  '''############,,,                           
         ,,##''                                '''############,,,,        ,,,,,,###''
      ,#''                                            '''#######################'''  
     '                                                          ''''####''''         
             ,#######,   #######,   ,#######,      ##                                
            ,#'     '#,  ##    ##  ,#'     '#,    #''#        ,####,   ,####,        
            ##       ##  ##   ,#'  ##            #'  '#       #'       #'  '#        
            ##       ##  #######   ##           ,######,      #####,   #    #        
            '#,     ,#'  ##    ##  '#,     ,#' ,#      #,     #,   #   #,  ,#        
             '#######'   ##     ##  '#######'  #'      '#     '####' # '####'        



                #########################################################
                #                        -***-                          #
                #          Department of theory and spectroscopy        #
                #                                                       #
                #                      Frank Neese                      #
                #                                                       #
                #     Directorship, Architecture, Infrastructure        #
                #                    SHARK, DRIVERS                     #
                #        Core code/Algorithms in most modules           #
                #                                                       #
                #        Max Planck Institute fuer Kohlenforschung      #
                #                Kaiser Wilhelm Platz 1                 #
                #                 D-45470 Muelheim/Ruhr                 #
                #                      Germany                          #
                #                                                       #
                #                  All rights reserved                  #
                #                        -***-                          #
                #########################################################


                         Program Version 6.0.1  -  RELEASE   -


 With contributions from (in alphabetic order):
[Max-Planck-Institut fuer Kohlenforschung]                               
  Daniel Aravena         : Magnetic Suceptibility                        
  Michael Atanasov       : Ab Initio Ligand Field Theory (pilot matlab implementation)
  Alexander A. Auer      : GIAO ZORA, VPT2 properties, NMR spectrum      
  Ute Becker             : All parallelization in ORCA, NUMFREQ, NUMCALC 
  Giovanni Bistoni       : ED, misc. LED, open-shell LED, HFLD           
  Martin Brehm           : Molecular dynamics                            
  Dmytro Bykov           : pre 5.0 version of the SCF Hessian            
  Marcos Casanova-Páez   : Triplet and SCS-CIS(D). UHF-(DLPNO)-IP/EA/STEOM-CCSD. UHF-CVS-IP/STEOM-CCSD   
  Vijay G. Chilkuri      : MRCI spin determinant printing, contributions to CSF-ICE 
  Pauline Colinet        : FMM embedding                                 
  Dipayan Datta          : RHF DLPNO-CCSD density                        
  Achintya Kumar Dutta   : EOM-CC, STEOM-CC                              
  Nicolas Foglia         : Exact transition moments, OPA infrastructure, MCD improvements    
  Dmitry Ganyushin       : Spin-Orbit,Spin-Spin,Magnetic field MRCI      
  Miquel Garcia-Rates    : C-PCM and meta-GGA Hessian, CCSD/C-PCM, Gaussian charge scheme 
  Tiago L. C. Gouveia    : GS-ROHF, GS-ROCIS                             
  Yang Guo               : DLPNO-NEVPT2, F12-NEVPT2, CIM, IAO-localization        
  Andreas Hansen         : Spin unrestricted coupled pair/coupled cluster methods 
  Ingolf Harden          : AUTO-CI MPn and infrastructure                
  Benjamin Helmich-Paris : MC-RPA, TRAH-(SCF,CASSCF), AVAS, COSX integrals, SCF dyn. polar. 
  Lee Huntington         : MR-EOM, pCC                                   
  Robert Izsak           : Overlap fitted RIJCOSX, COSX-SCS-MP3, EOM     
  Riya Kayal             : Wick's Theorem for AUTO-CI, AUTO-CI UHF-CCSDT 
  Emily Kempfer          : AUTO-CI, RHF CISDT and CCSDT                  
  Christian Kollmar      : KDIIS, OOCD, Brueckner-CCSD(T), CCSD density, CASPT2, CASPT2-K, improved NEVPT2 
  Axel Koslowski         : Symmetry handling                             
  Simone Kossmann        : meta-GGA functionals, TD-DFT gradient, OOMP2, (MP2 Hessian; deprecated post 5.0) 
  Lucas Lang             : DCDCAS                                        
  Marvin Lechner         : AUTO-CI (C++ implementation), FIC-MRCC        
  Spencer Leger          : CASSCF response                               
  Dagmar Lenk            : GEPOL surface, SMD, ORCA-2-JSON               
  Dimitrios Liakos       : Extrapolation schemes; Compound Job, initial MDCI parallelization 
  Dimitrios Manganas     : Further ROCIS development; embedding schemes. LFT, Crystal Embedding 
  Dimitrios Pantazis     : SARC Basis sets                               
  Anastasios Papadopoulos: AUTO-CI, single reference methods and gradients 
  Taras Petrenko         : pre 6.0 DFT Hessian and TD-DFT gradient, (ASA, deprecated), ECA, 1-Electron XAS/XES, NRVS 
  Peter Pinski           : DLPNO-MP2, DLPNO-MP2 Gradient                 
  Christoph Reimann      : Effective Core Potentials                     
  Marius Retegan         : Local ZFS, SOC                                
  Christoph Riplinger    : Optimizer, TS searches, QM/MM, DLPNO-CCSD(T), (RO)-DLPNO pert. Triples 
  Michael Roemelt        : Original ROCIS implementation                 
  Masaaki Saitow         : Open-shell DLPNO-CCSD energy and density      
  Barbara Sandhoefer     : DKH picture change effects                    
  Kantharuban Sivalingam : CASSCF convergence/infrastructure, NEVPT2 and variants, FIC-MRCI 
  Bernardo de Souza      : ESD, SOC TD-DFT                               
  Georgi L. Stoychev     : AutoAux, RI-MP2 NMR, DLPNO-MP2 response, X2C  
  Van Anh Tran           : RI-MP2 g-tensors                              
  Willem Van den Heuvel  : Paramagnetic NMR                              
  Zikuan Wang            : NOTCH, Electric field optimization            
  Frank Wennmohs         : Technical directorship and infrastructure     
  Hang Xu                : AUTO-CI-Response properties                   
                                                                         
[FACCTs GmbH]                                                            
  Markus Bursch, Miquel Garcia-Rates, Christoph Riplinger, Bernardo de Souza, Georgi L. Stoychev 
                                                                 
  APM, Basis sets (HGBS, AHGBS, def-TZVP (Ac-Lr), def2-XVPD (La-Lu)), CI-OPT, improved COSX, DLPNO-Multilevel,           
  DOCKER, DRACO, updates on ESD, GOAT, IRC, LR-CPCM, MBIS, meta-GGA TD-DFT gradient, ML-optimized integration grids, 
  MM, NACMEs, nearIR, NEB, NEB-TS, NL-DFT gradient (VV10), 2- and 3-layer-ONIOM, interface openCOSMO-RS, QMMM,   
  Crystal-QMMM, SF, symmetry and pop. for TD-DFT, r2SCAN hybrids, SOLVATOR                                   
                                                                         
[Other institutions]                                                     
  V. Asgeirsson          : NEB                                           
  Christoph Bannwarth    : sTDA-DFT, sTD-DFT, PBEh-3c, B97-3c, D3        
  Sebastian Ehlert       : rSCAN, r2SCAN, r2SCAN-3c, D4, dhf basis sets  
  Marvin Friede          : D4 for Fr, Ra, Ac-Lr                          
  Lars Goerigk           : TD-DFT with DH, B97 family of functionals     
  Stefan Grimme          : VdW corrections, initial TS optimization, DFT functionals, gCP, sTDA/sTD-DF 
  Waldemar Hujo          : DFT-NL                                        
  H. Jonsson             : NEB                                           
  Holger Kruse           : gCP                                           
  Marcel Mueller         : wB97X-3c, vDZP basis set                      
  Hagen Neugebauer       : wr2SCAN                                       
  Tobias Risthaus        : range-separated hybrid DFT                    
  Lukas Wittmann         : regularized MP2, r2SCAN double-hybrids, wr2SCAN        
                                                                         
We gratefully acknowledge several colleagues who have allowed us to      
interface, adapt or use parts of their codes:                            
  Ed Valeev, F. Pavosevic, A. Kumar             : LibInt (2-el integral package), F12 methods 
  Garnet Chan, S. Sharma, J. Yang, R. Olivares  : DMRG                   
  Ulf Ekstrom                                   : XCFun DFT Library      
  Mihaly Kallay                                 : mrcc  (arbitrary order and MRCC methods)
  Frank Weinhold                                : gennbo (NPA and NBO analysis)           
  Simon Mueller                                 : openCOSMO-RS                            
  Christopher J. Cramer and Donald G. Truhlar   : smd solvation model                     
  S Lehtola, MJT Oliveira, MAL Marques          : LibXC Library                           
  Liviu Ungur et al                             : ANISO software                          


 Your calculation uses the libint2 library for the computation of 2-el integrals
 For citations please refer to: http://libint.valeyev.net

 Your ORCA version has been built with support for libXC version: 6.2.2
 For citations please refer to: https://libxc.gitlab.io

 This ORCA versions uses:
   CBLAS   interface :  Fast vector & matrix operations
   LAPACKE interface :  Fast linear algebra routines
   SCALAPACK package :  Parallel linear algebra routines
   Shared memory     :  Shared parallel matrices
   BLAS/LAPACK       :  OpenBLAS 0.3.27  USE64BITINT DYNAMIC_ARCH NO_AFFINITY SkylakeX SINGLE_THREADED
        Core in use  :  SkylakeX
   Copyright (c) 2011-2014, The OpenBLAS Project


NOTE: MaxCore=8000 MB was set to SCF,MP2,MDCI,CIPSI,MRCI and CIS
      => If you want to overwrite this, your respective input block should be placed after the MaxCore statement
Your calculation utilizes the atom-pairwise dispersion correction
with the Becke-Johnson damping scheme (D3BJ)


Your calculation utilizes the SMD solvation module
Please cite in your paper:
A.V. Marenich, C.J. Cramer, D.G. Truhlar J. Phys. Chem. B, 113, (2009), 6378 

Warning: RI is on but no J-basis has been assigned. Assigning Def2/J (nothing to worry about!)
================================================================================

----- Orbital basis set information -----
Your calculation utilizes the basis: def2-TZVP
   F. Weigend and R. Ahlrichs, Phys. Chem. Chem. Phys. 7, 3297 (2005).

----- AuxJ basis set information -----
Your calculation utilizes the auxiliary basis: def2/J
   F. Weigend, Phys. Chem. Chem. Phys. 8, 1057 (2006).

================================================================================
                                        WARNINGS
                       Please study these warnings very carefully!
================================================================================



WARNING: SCAN, rSCAN, or r2SCAN functional requested.
  ===> : libXC variant has now been activated.



WARNING: Geometry Optimization
  ===> : Switching off AutoStart
         For restart on a previous wavefunction, please use MOREAD

================================================================================
                                       INPUT FILE
================================================================================
NAME = rf_mecn_1H2O_opt_r2s_sw_003.inp
|  1> !r2scanh def2-TZVP opt d3 TightSCF SlowConv defgrid2
|  2>  
|  3> %pal
|  4> nprocs 20
|  5> end
|  6>  
|  7> %scf
|  8> MaxIter 1500
|  9> end
| 10>  
| 11> %maxcore 8000
| 12>  
| 13> !CPCM
| 14> %cpcm smd true
| 15> SMDsolvent "ACETONITRILE"
| 16> end
| 17>  
| 18> * xyz -1 1
| 19> 6        6.857280945     27.901753127      3.100719684
| 20> 6        6.154044945     26.704598127      2.411135684
| 21> 6        7.086539945     25.482838127      2.185613684
| 22> 6        6.299616945     24.171731127      1.900070684
| 23> 6        7.185881945     23.070259127      1.248991684
| 24> 6        6.565390945     21.647303127      1.360366684
| 25> 6        7.185681945     20.616666127      0.394672684
| 26> 6        6.843394945     19.121603127      0.784430684
| 27> 9        8.006806945     28.182557127      2.503585684
| 28> 9        7.082780945     27.647576127      4.378925684
| 29> 9        6.067588945     28.966668127      3.018348684
| 30> 9        5.116418945     26.361022127      3.182510684
| 31> 9        5.702795945     27.135986127      1.230360684
| 32> 9        7.887905945     25.777720127      1.156931684
| 33> 9        7.829891945     25.318192127      3.287321684
| 34> 9        5.806494945     23.745652127      3.066652684
| 35> 9        5.287431945     24.474179127      1.076603684
| 36> 9        7.350609945     23.413929127     -0.034316316
| 37> 9        8.377622945     23.098911127      1.865134684
| 38> 9        6.756126945     21.255165127      2.631170684
| 39> 9        5.250981945     21.784657127      1.133608684
| 40> 9        6.706596945     20.903759127     -0.845345316
| 41> 9        8.519170945     20.869305127      0.364163684
| 42> 8        7.813741945     18.363469127      0.789215684
| 43> 8        5.634555945     18.967368127      0.997888684
| 44> 8        2.818390092     18.736599843      1.412612662
| 45> 1        2.716934106     17.791620290      1.243555674
| 46> 1        3.748070901     18.906228277      1.215686974
| 47> *
| 48> 
| 49>                          ****END OF INPUT****
================================================================================

                       *****************************
                       * Geometry Optimization Run *
                       *****************************

Geometry optimization settings:
Update method            Update   .... BFGS
Choice of coordinates    CoordSys .... (2022) Redundant Internals
Initial Hessian          InHess   .... Almloef's Model
Max. no of cycles        MaxIter  .... 84

Convergence Tolerances:
Energy Change            TolE     ....  5.0000e-06 Eh
Max. Gradient            TolMAXG  ....  3.0000e-04 Eh/bohr
RMS Gradient             TolRMSG  ....  1.0000e-04 Eh/bohr
Max. Displacement        TolMAXD  ....  4.0000e-03 bohr
RMS Displacement         TolRMSD  ....  2.0000e-03 bohr
Strict Convergence                .... False

------------------------------------------------------------------------------
                        ORCA OPTIMIZATION COORDINATE SETUP
------------------------------------------------------------------------------

The optimization will be done in redundant internal coordinates (2022)
Making redundant internal coordinates   ...  (2022 redundants) done
Evaluating the initial hessian          ...  (Almloef) done
Evaluating the coordinates              ...  done
Calculating the B-matrix                .... done
Calculating the G-matrix                .... done
Diagonalizing the G-matrix              .... done
Small eigenvalue found = 2.494e-03
Small eigenvalue found = 9.182e-03
Small eigenvalue found = 1.155e-02
Small eigenvalue found = 2.495e-02
The first mode is                       ....   42
The number of degrees of freedom        ....   78

    -----------------------------------------------------------------
                    Redundant Internal Coordinates


    -----------------------------------------------------------------
         Definition                    Initial Value    Approx d2E/dq
    -----------------------------------------------------------------
      1. B(C   1,C   0)                  1.5502         0.346804   
      2. B(C   2,C   1)                  1.5534         0.342781   
      3. B(C   3,C   2)                  1.5556         0.340086   
      4. B(C   4,C   3)                  1.5565         0.338954   
      5. B(C   5,C   4)                  1.5563         0.339111   
      6. B(C   6,C   5)                  1.5426         0.356709   
      7. B(C   7,C   6)                  1.5825         0.308055   
      8. B(F   8,C   0)                  1.3255         0.659090   
      9. B(F   9,C   0)                  1.3226         0.666042   
     10. B(F  10,C   0)                  1.3283         0.652181   
     11. B(F  11,C   1)                  1.3378         0.629847   
     12. B(F  12,C   1)                  1.3356         0.634870   
     13. B(F  13,C   2)                  1.3369         0.631928   
     14. B(F  14,C   2)                  1.3392         0.626649   
     15. B(F  15,C   3)                  1.3363         0.633409   
     16. B(F  16,C   3)                  1.3394         0.626090   
     17. B(F  17,C   4)                  1.3387         0.627782   
     18. B(F  18,C   4)                  1.3419         0.620447   
     19. B(F  19,C   5)                  1.3435         0.616728   
     20. B(F  20,C   5)                  1.3409         0.622782   
     21. B(F  21,C   6)                  1.3600         0.580545   
     22. B(F  22,C   6)                  1.3576         0.585779   
     23. B(O  23,C   7)                  1.2314         1.002075   
     24. B(O  24,C   7)                  1.2372         0.981004   
     25. B(H  26,O  25)                  0.9653         0.509876   
     26. B(H  27,O  24)                  1.9000         0.016453   
     27. B(H  27,O  25)                  0.9653         0.509876   
     28. A(C   1,C   0,F   9)          111.0282         0.392261   
     29. A(C   1,C   0,F   8)          110.8930         0.391542   
     30. A(F   8,C   0,F  10)          108.5307         0.433227   
     31. A(F   8,C   0,F   9)          109.1619         0.434870   
     32. A(C   1,C   0,F  10)          108.7739         0.390821   
     33. A(F   9,C   0,F  10)          108.3827         0.434046   
     34. A(C   2,C   1,F  11)          110.3230         0.387660   
     35. A(C   0,C   1,C   2)          113.5553         0.353571   
     36. A(F  11,C   1,F  12)          109.3079         0.427641   
     37. A(C   0,C   1,F  11)          107.0787         0.388450   
     38. A(C   2,C   1,F  12)          109.1769         0.388197   
     39. A(C   0,C   1,F  12)          107.2827         0.388989   
     40. A(C   3,C   2,F  13)          110.3587         0.387350   
     41. A(F  13,C   2,F  14)          109.1107         0.426896   
     42. A(C   1,C   2,F  14)          108.0873         0.387316   
     43. A(C   1,C   2,C   3)          112.6983         0.352402   
     44. A(C   1,C   2,F  13)          107.3405         0.387883   
     45. A(C   3,C   2,F  14)          109.1587         0.386784   
     46. A(F  15,C   3,F  16)          109.2595         0.427007   
     47. A(C   4,C   3,F  16)          109.4458         0.386499   
     48. A(C   2,C   3,F  16)          107.7470         0.386724   
     49. A(C   4,C   3,F  15)          110.4668         0.387282   
     50. A(C   2,C   3,C   4)          112.6559         0.351734   
     51. A(C   2,C   3,F  15)          107.1682         0.387508   
     52. A(C   3,C   4,F  18)          107.3682         0.385890   
     53. A(C   5,C   4,F  17)          110.6326         0.386712   
     54. A(C   3,C   4,F  17)          106.8213         0.386681   
     55. A(C   3,C   4,C   5)          112.9589         0.351563   
     56. A(F  17,C   4,F  18)          108.9895         0.425634   
     57. A(C   5,C   4,F  18)          109.9216         0.385921   
     58. A(C   4,C   5,C   6)          113.9380         0.354615   
     59. A(F  19,C   5,F  20)          109.2091         0.424568   
     60. A(C   6,C   5,F  20)          110.9006         0.389596   
     61. A(C   4,C   5,F  20)          106.5622         0.386174   
     62. A(C   6,C   5,F  19)          109.8795         0.388932   
     63. A(C   4,C   5,F  19)          106.1374         0.385517   
     64. A(C   5,C   6,C   7)          112.9578         0.348903   
     65. A(F  21,C   6,F  22)          106.6335         0.415450   
     66. A(C   7,C   6,F  22)          113.1920         0.375779   
     67. A(C   5,C   6,F  22)          106.5420         0.385457   
     68. A(C   7,C   6,F  21)          110.3532         0.375197   
     69. A(C   5,C   6,F  21)          106.7446         0.384856   
     70. A(O  23,C   7,O  24)          133.8297         0.508781   
     71. A(C   6,C   7,O  24)          111.8150         0.413089   
     72. A(C   6,C   7,O  23)          114.3410         0.414652   
     73. A(C   7,O  24,H  27)          173.6796         0.231741   
     74. A(H  26,O  25,H  27)          103.7396         0.319780   
     75. A(O  24,H  27,O  25)          170.1504         0.195092   
     76. D(F  11,C   1,C   0,F   9)     49.4768         0.009705   
     77. D(C   2,C   1,C   0,F   8)     48.9947         0.009705   
     78. D(F  11,C   1,C   0,F   8)    171.0207         0.009705   
     79. D(F  11,C   1,C   0,F  10)    -69.7011         0.009705   
     80. D(C   2,C   1,C   0,F   9)    -72.5492         0.009705   
     81. D(C   2,C   1,C   0,F  10)    168.2729         0.009705   
     82. D(C   3,C   2,C   1,C   0)    162.7875         0.009500   
     83. D(F  13,C   2,C   1,F  12)     44.1537         0.009500   
     84. D(F  13,C   2,C   1,C   0)    -75.4998         0.009500   
     85. D(F  13,C   2,C   1,F  11)    164.2939         0.009500   
     86. D(C   3,C   2,C   1,F  11)     42.5812         0.009500   
     87. D(C   3,C   2,C   1,F  12)    -77.5590         0.009500   
     88. D(C   4,C   3,C   2,F  13)     42.1846         0.009364   
     89. D(C   4,C   3,C   2,F  14)    -77.7232         0.009364   
     90. D(C   4,C   3,C   2,C   1)    162.1720         0.009364   
     91. D(F  15,C   3,C   2,F  14)     43.9807         0.009364   
     92. D(F  15,C   3,C   2,F  13)    163.8885         0.009364   
     93. D(F  15,C   3,C   2,C   1)    -76.1241         0.009364   
     94. D(F  17,C   4,C   3,F  16)     43.8732         0.009308   
     95. D(F  17,C   4,C   3,F  15)    164.2137         0.009308   
     96. D(F  17,C   4,C   3,C   2)    -75.9715         0.009308   
     97. D(C   5,C   4,C   3,F  16)    -77.9884         0.009308   
     98. D(C   5,C   4,C   3,F  15)     42.3521         0.009308   
     99. D(C   5,C   4,C   3,C   2)    162.1669         0.009308   
    100. D(F  19,C   5,C   4,F  18)     44.0726         0.009315   
    101. D(F  19,C   5,C   4,F  17)    164.4895         0.009315   
    102. D(F  19,C   5,C   4,C   3)    -75.8189         0.009315   
    103. D(C   6,C   5,C   4,F  18)    -76.9753         0.009315   
    104. D(C   6,C   5,C   4,F  17)     43.4416         0.009315   
    105. D(C   6,C   5,C   4,C   3)    163.1331         0.009315   
    106. D(C   7,C   6,C   5,C   4)    164.0956         0.010222   
    107. D(F  21,C   6,C   5,F  20)     45.7788         0.010222   
    108. D(F  21,C   6,C   5,F  19)    166.6154         0.010222   
    109. D(F  21,C   6,C   5,C   4)    -74.4447         0.010222   
    110. D(C   7,C   6,C   5,F  20)    -75.6808         0.010222   
    111. D(C   7,C   6,C   5,F  19)     45.1557         0.010222   
    112. D(O  24,C   7,C   6,F  21)    -70.5516         0.007386   
    113. D(O  24,C   7,C   6,C   5)     48.8461         0.007386   
    114. D(O  23,C   7,C   6,F  22)    -11.1459         0.007386   
    115. D(O  23,C   7,C   6,F  21)    108.2663         0.007386   
    116. D(O  23,C   7,C   6,C   5)   -132.3360         0.007386   
    117. D(H  27,O  24,C   7,O  23)   -158.3762         0.078375   
    118. D(H  27,O  24,C   7,C   6)     20.1307         0.078375   
    119. D(O  24,H  27,O  25,H  26)    -44.6419         0.289652   
    120. D(O  25,H  27,O  24,C   7)    180.0000         0.001625   
    -----------------------------------------------------------------

Number of atoms                         .... 28
Number of degrees of freedom            .... 120


         *************************************************************
         *                GEOMETRY OPTIMIZATION CYCLE   1            *
         *************************************************************
---------------------------------
CARTESIAN COORDINATES (ANGSTROEM)
---------------------------------
  C      6.857281   27.901753    3.100720
  C      6.154045   26.704598    2.411136
  C      7.086540   25.482838    2.185614
  C      6.299617   24.171731    1.900071
  C      7.185882   23.070259    1.248992
  C      6.565391   21.647303    1.360367
  C      7.185682   20.616666    0.394673
  C      6.843395   19.121603    0.784431
  F      8.006807   28.182557    2.503586
  F      7.082781   27.647576    4.378926
  F      6.067589   28.966668    3.018349
  F      5.116419   26.361022    3.182511
  F      5.702796   27.135986    1.230361
  F      7.887906   25.777720    1.156932
  F      7.829892   25.318192    3.287322
  F      5.806495   23.745652    3.066653
  F      5.287432   24.474179    1.076604
  F      7.350610   23.413929   -0.034316
  F      8.377623   23.098911    1.865135
  F      6.756127   21.255165    2.631171
  F      5.250982   21.784657    1.133609
  F      6.706597   20.903759   -0.845345
  F      8.519171   20.869305    0.364164
  O      7.813742   18.363469    0.789216
  O      5.634556   18.967368    0.997889
  O      2.818390   18.736600    1.412613
  H      2.716934   17.791620    1.243556
  H      3.748071   18.906228    1.215687

----------------------------
CARTESIAN COORDINATES (A.U.)
----------------------------
  NO LB      ZA    FRAG     MASS         X           Y           Z
   0 C     6.0000    0    12.011   12.958383   52.726672    5.859511
   1 C     6.0000    0    12.011   11.629460   50.464377    4.556386
   2 C     6.0000    0    12.011   13.391620   48.155585    4.130211
   3 C     6.0000    0    12.011   11.904551   45.677952    3.590613
   4 C     6.0000    0    12.011   13.579349   43.596472    2.360252
   5 C     6.0000    0    12.011   12.406791   40.907474    2.570720
   6 C     6.0000    0    12.011   13.578971   38.959853    0.745823
   7 C     6.0000    0    12.011   12.932142   36.134593    1.482359
   8 F     9.0000    0    18.998   15.130672   53.257315    4.731091
   9 F     9.0000    0    18.998   13.384516   52.246347    8.274970
  10 F     9.0000    0    18.998   11.466081   54.739070    5.703852
  11 F     9.0000    0    18.998    9.668631   49.815112    6.014074
  12 F     9.0000    0    18.998   10.776723   51.279582    2.325045
  13 F     9.0000    0    18.998   14.905982   48.712831    2.186284
  14 F     9.0000    0    18.998   14.796351   47.844449    6.212138
  15 F     9.0000    0    18.998   10.972685   44.872779    5.795134
  16 F     9.0000    0    18.998    9.991798   46.249496    2.034486
  17 F     9.0000    0    18.998   13.890640   44.245914   -0.064848
  18 F     9.0000    0    18.998   15.831413   43.650616    3.524594
  19 F     9.0000    0    18.998   12.767230   40.166441    4.972192
  20 F     9.0000    0    18.998    9.922918   41.167036    2.142210
  21 F     9.0000    0    18.998   12.673632   39.502380   -1.597471
  22 F     9.0000    0    18.998   16.098900   39.437271    0.688170
  23 O     8.0000    0    15.999   14.765832   34.701928    1.491402
  24 O     8.0000    0    15.999   10.647768   35.843131    1.885736
  25 O     8.0000    0    15.999    5.325985   35.407042    2.669451
  26 H     1.0000    0     1.008    5.134261   33.621290    2.349980
  27 H     1.0000    0     1.008    7.082828   35.727594    2.297315

--------------------------------
INTERNAL COORDINATES (ANGSTROEM)
--------------------------------
 C      0   0   0     0.000000000000     0.00000000     0.00000000
 C      1   0   0     1.550240967971     0.00000000     0.00000000
 C      2   1   0     1.553417070561   113.55533844     0.00000000
 C      3   2   1     1.555565549319   112.69827683   162.78749478
 C      4   3   2     1.556473604418   112.65593685   162.17204174
 C      5   4   3     1.556347406475   112.95890429   162.16693919
 C      6   5   4     1.542575266263   113.93798420   163.13314068
 C      7   6   5     1.582493305800   112.95775891   164.09560104
 F      1   2   3     1.325454610708   110.89295443    48.99470066
 F      1   2   3     1.322598493786   111.02821211   287.45080856
 F      1   2   3     1.328323151093   108.77385697   168.27294708
 F      2   1   3     1.337808496862   107.07872998   122.02597894
 F      2   1   3     1.335646235786   107.28270546   239.27402584
 F      3   2   1     1.336910437166   107.34054952   284.50021141
 F      3   2   1     1.339194167581   108.08730739    42.06766241
 F      4   3   2     1.336273244456   107.16821115   283.87589533
 F      4   3   2     1.339436884298   107.74698212    41.35047990
 F      5   4   3     1.338702284210   106.82131950   284.02853646
 F      5   4   3     1.341901540589   107.36821732    40.81959257
 F      6   5   4     1.343538328131   106.13743735   284.18106314
 F      6   5   4     1.340878939786   106.56217547    40.50128759
 F      7   6   5     1.359996128008   106.74461671   285.55525164
 F      7   6   5     1.357553010576   106.54195382    39.20780969
 O      8   7   6     1.231407064536   114.34099629   227.66396244
 O      8   7   6     1.237192176224   111.81500307    48.84611502
 O     25   8   7     2.855878164494   176.99440113    20.13066459
 H     26  25   8     0.965328927296    99.05067288   136.27702780
 H     26  25   8     0.965328927795     6.53484144     0.00000000

---------------------------
INTERNAL COORDINATES (A.U.)
---------------------------
 C      0   0   0     0.000000000000     0.00000000     0.00000000
 C      1   0   0     2.929530871051     0.00000000     0.00000000
 C      2   1   0     2.935532835118   113.55533844     0.00000000
 C      3   2   1     2.939592871575   112.69827683   162.78749478
 C      4   3   2     2.941308847027   112.65593685   162.17204174
 C      5   4   3     2.941070367477   112.95890429   162.16693919
 C      6   5   4     2.915044794198   113.93798420   163.13314068
 C      7   6   5     2.990478956726   112.95775891   164.09560104
 F      1   2   3     2.504746217182   110.89295443    48.99470066
 F      1   2   3     2.499348938392   111.02821211   287.45080856
 F      1   2   3     2.510166972913   108.77385697   168.27294708
 F      2   1   3     2.528091678703   107.07872998   122.02597894
 F      2   1   3     2.524005597439   107.28270546   239.27402584
 F      3   2   1     2.526394591825   107.34054952   284.50021141
 F      3   2   1     2.530710216873   108.08730739    42.06766241
 F      4   3   2     2.525190472108   107.16821115   283.87589533
 F      4   3   2     2.531168884996   107.74698212    41.35047990
 F      5   4   3     2.529780692011   106.82131950   284.02853646
 F      5   4   3     2.535826410399   107.36821732    40.81959257
 F      6   5   4     2.538919490593   106.13743735   284.18106314
 F      6   5   4     2.533893974938   106.56217547    40.50128759
 F      7   6   5     2.570020225129   106.74461671   285.55525164
 F      7   6   5     2.565403402268   106.54195382    39.20780969
 O      8   7   6     2.327022111350   114.34099629   227.66396244
 O      8   7   6     2.337954388093   111.81500307    48.84611502
 O     25   8   7     5.396827602739   176.99440113    20.13066459
 H     26  25   8     1.824207301742    99.05067288   136.27702780
 H     26  25   8     1.824207302685     6.53484144     0.00000000

---------------------
BASIS SET INFORMATION
---------------------
There are 4 groups of distinct atoms

 Group   1 Type C   : 11s6p2d1f contracted to 5s3p2d1f pattern {62111/411/11/1}
 Group   2 Type F   : 11s6p2d1f contracted to 5s3p2d1f pattern {62111/411/11/1}
 Group   3 Type O   : 11s6p2d1f contracted to 5s3p2d1f pattern {62111/411/11/1}
 Group   4 Type H   : 5s1p contracted to 3s1p pattern {311/1}

Atom   0C    basis set group =>   1
Atom   1C    basis set group =>   1
Atom   2C    basis set group =>   1
Atom   3C    basis set group =>   1
Atom   4C    basis set group =>   1
Atom   5C    basis set group =>   1
Atom   6C    basis set group =>   1
Atom   7C    basis set group =>   1
Atom   8F    basis set group =>   2
Atom   9F    basis set group =>   2
Atom  10F    basis set group =>   2
Atom  11F    basis set group =>   2
Atom  12F    basis set group =>   2
Atom  13F    basis set group =>   2
Atom  14F    basis set group =>   2
Atom  15F    basis set group =>   2
Atom  16F    basis set group =>   2
Atom  17F    basis set group =>   2
Atom  18F    basis set group =>   2
Atom  19F    basis set group =>   2
Atom  20F    basis set group =>   2
Atom  21F    basis set group =>   2
Atom  22F    basis set group =>   2
Atom  23O    basis set group =>   3
Atom  24O    basis set group =>   3
Atom  25O    basis set group =>   3
Atom  26H    basis set group =>   4
Atom  27H    basis set group =>   4
---------------------------------
AUXILIARY/J BASIS SET INFORMATION
---------------------------------
There are 4 groups of distinct atoms

 Group   1 Type C   : 12s5p4d2f1g contracted to 6s4p3d1f1g pattern {711111/2111/211/2/1}
 Group   2 Type F   : 12s5p4d2f1g contracted to 6s4p3d1f1g pattern {711111/2111/211/2/1}
 Group   3 Type O   : 12s5p4d2f1g contracted to 6s4p3d1f1g pattern {711111/2111/211/2/1}
 Group   4 Type H   : 5s2p1d contracted to 3s1p1d pattern {311/2/1}

Atom   0C    basis set group =>   1
Atom   1C    basis set group =>   1
Atom   2C    basis set group =>   1
Atom   3C    basis set group =>   1
Atom   4C    basis set group =>   1
Atom   5C    basis set group =>   1
Atom   6C    basis set group =>   1
Atom   7C    basis set group =>   1
Atom   8F    basis set group =>   2
Atom   9F    basis set group =>   2
Atom  10F    basis set group =>   2
Atom  11F    basis set group =>   2
Atom  12F    basis set group =>   2
Atom  13F    basis set group =>   2
Atom  14F    basis set group =>   2
Atom  15F    basis set group =>   2
Atom  16F    basis set group =>   2
Atom  17F    basis set group =>   2
Atom  18F    basis set group =>   2
Atom  19F    basis set group =>   2
Atom  20F    basis set group =>   2
Atom  21F    basis set group =>   2
Atom  22F    basis set group =>   2
Atom  23O    basis set group =>   3
Atom  24O    basis set group =>   3
Atom  25O    basis set group =>   3
Atom  26H    basis set group =>   4
Atom  27H    basis set group =>   4


           ************************************************************
           *        Program running with 20 parallel MPI-processes    *
           *              working on a common directory               *
           ************************************************************
------------------------------------------------------------------------------
                             ORCA STARTUP CALCULATIONS
                           -- RI-GTO INTEGRALS CHOSEN --
------------------------------------------------------------------------------
------------------------------------------------------------------------------
                   ___                                                        
                  /   \      - P O W E R E D   B Y -                         
                 /     \                                                     
                 |  |  |   _    _      __       _____    __    __             
                 |  |  |  | |  | |    /  \     |  _  \  |  |  /  |          
                  \  \/   | |  | |   /    \    | | | |  |  | /  /          
                 / \  \   | |__| |  /  /\  \   | |_| |  |  |/  /          
                |  |  |   |  __  | /  /__\  \  |    /   |      \           
                |  |  |   | |  | | |   __   |  |    \   |  |\   \          
                \     /   | |  | | |  |  |  |  | |\  \  |  | \   \       
                 \___/    |_|  |_| |__|  |__|  |_| \__\ |__|  \__/        
                                                                              
                      - O R C A' S   B I G   F R I E N D -                    
                                      &                                       
                       - I N T E G R A L  F E E D E R -                       
                                                                              
 v1 FN, 2020, v2 2021, v3 2022-2024                                           
------------------------------------------------------------------------------


----------------------
SHARK INTEGRAL PACKAGE
----------------------

Number of atoms                             ...     28
Number of basis functions                   ...    818
Number of shells                            ...    294
Maximum angular momentum                    ...      3
Integral batch strategy                     ... SHARK/LIBINT Hybrid
RI-J (if used) integral strategy            ... SPLIT-RIJ (Revised 2003 algorithm where possible)
Printlevel                                  ...      1
Contraction scheme used                     ... SEGMENTED contraction
Prescreening option                         ... SCHWARTZ
   Thresh                                   ... 2.500e-11
   Tcut                                     ... 2.500e-12
   Tpresel                                  ... 2.500e-12 
Coulomb Range Separation                    ... NOT USED
Exchange Range Separation                   ... NOT USED
Multipole approximations                    ... NOT USED
Finite Nucleus Model                        ... NOT USED
CABS basis                                  ... NOT available
Auxiliary Coulomb fitting basis             ... AVAILABLE
   # of basis functions in Aux-J            ...   1296
   # of shells in Aux-J                     ...    400
   Maximum angular momentum in Aux-J        ...      4
Auxiliary J/K fitting basis                 ... NOT available
Auxiliary Correlation fitting basis         ... NOT available
Auxiliary 'external' fitting basis          ... NOT available

Checking pre-screening integrals            ... done (  0.0 sec) Dimension = 294
Check shell pair data                       ... done (  0.0 sec)
Shell pair information
Shell pair cut-off parameter TPreSel        ...   2.5e-12
Total number of shell pairs                 ...     43365
Shell pairs after pre-screening             ...     25535
Total number of primitive shell pairs       ...    142356
Primitive shell pairs kept                  ...     53484
          la=0 lb=0:   4947 shell pairs
          la=1 lb=0:   7034 shell pairs
          la=1 lb=1:   2417 shell pairs
          la=2 lb=0:   3764 shell pairs
          la=2 lb=1:   2745 shell pairs
          la=2 lb=2:    755 shell pairs
          la=3 lb=0:   1708 shell pairs
          la=3 lb=1:   1309 shell pairs
          la=3 lb=2:    689 shell pairs
          la=3 lb=3:    167 shell pairs

Calculating one electron integrals          ... done (  0.0 sec)
Calculating RI/J V-Matrix + Cholesky decomp.... done (  0.1 sec)
Calculating Nuclear repulsion               ... done (  0.0 sec) ENN=   3082.708906043765 Eh

Diagonalization of the overlap matrix:
Smallest eigenvalue                        ... 5.067e-05
Time for diagonalization                   ...    0.126 sec
Threshold for overlap eigenvalues          ... 1.000e-07
Number of eigenvalues below threshold      ... 0
Time for construction of square roots      ...    0.056 sec
Total time needed                          ...    0.189 sec

-------------------
DFT GRID GENERATION
-------------------

General Integration Accuracy     IntAcc      ... 4.388
Radial Grid Type                 RadialGrid  ... OptM3 with GC (2021)
Angular Grid (max. ang.)         AngularGrid ... 4 (Lebedev-302)
Angular grid pruning method      GridPruning ... 4 (adaptive)
Weight generation scheme         WeightScheme... mBecke (2022)
Basis function cutoff            BFCut       ... 1.0000e-11
Integration weight cutoff        WCut        ... 1.0000e-14
Partially contracted basis set               ... off
Rotationally invariant grid construction     ... off
Angular grids for H and He will be reduced by one unit

Total number of grid points                  ...   164047
Total number of batches                      ...     2576
Average number of points per batch           ...       63
Average number of grid points per atom       ...     5859

--------------------
COSX GRID GENERATION
--------------------

GRIDX 1
-------
General Integration Accuracy     IntAcc      ... 3.816
Radial Grid Type                 RadialGrid  ... OptM3 with GC (2021)
Angular Grid (max. ang.)         AngularGrid ... 1 (Lebedev-50)
Angular grid pruning method      GridPruning ... 4 (adaptive)
Weight generation scheme         WeightScheme... mBecke (2022)
Basis function cutoff            BFCut       ... 1.0000e-11
Integration weight cutoff        WCut        ... 1.0000e-14
Partially contracted basis set               ... on
Rotationally invariant grid construction     ... off
Angular grids for H and He will be reduced by one unit

Total number of grid points                  ...    20660
Total number of batches                      ...      173
Average number of points per batch           ...      119
Average number of grid points per atom       ...      738
UseSFitting                                  ... on

GRIDX 2
-------
General Integration Accuracy     IntAcc      ... 4.020
Radial Grid Type                 RadialGrid  ... OptM3 with GC (2021)
Angular Grid (max. ang.)         AngularGrid ... 2 (Lebedev-110)
Angular grid pruning method      GridPruning ... 4 (adaptive)
Weight generation scheme         WeightScheme... mBecke (2022)
Basis function cutoff            BFCut       ... 1.0000e-11
Integration weight cutoff        WCut        ... 1.0000e-14
Partially contracted basis set               ... on
Rotationally invariant grid construction     ... off
Angular grids for H and He will be reduced by one unit

Total number of grid points                  ...    48341
Total number of batches                      ...      394
Average number of points per batch           ...      122
Average number of grid points per atom       ...     1726
UseSFitting                                  ... on

GRIDX 3
-------
General Integration Accuracy     IntAcc      ... 4.338
Radial Grid Type                 RadialGrid  ... OptM3 with GC (2021)
Angular Grid (max. ang.)         AngularGrid ... 3 (Lebedev-194)
Angular grid pruning method      GridPruning ... 4 (adaptive)
Weight generation scheme         WeightScheme... mBecke (2022)
Basis function cutoff            BFCut       ... 1.0000e-11
Integration weight cutoff        WCut        ... 1.0000e-14
Partially contracted basis set               ... on
Rotationally invariant grid construction     ... off
Angular grids for H and He will be reduced by one unit

Total number of grid points                  ...   106996
Total number of batches                      ...      848
Average number of points per batch           ...      126
Average number of grid points per atom       ...     3821
UseSFitting                                  ... on
Initializing property integral containers    ... done (  0.0 sec)

SHARK setup successfully completed in   3.1 seconds

Maximum memory used throughout the entire STARTUP-calculation: 64.0 MB


           ************************************************************
           *        Program running with 20 parallel MPI-processes    *
           *              working on a common directory               *
           ************************************************************
-------------------------------------------------------------------------------
                                 ORCA GUESS
                   Start orbitals & Density for SCF / CASSCF
-------------------------------------------------------------------------------

------------
SCF SETTINGS
------------
Hamiltonian:
 Density Functional     Method          .... DFT(GTOs)
  Functional kind                       .... Exchange
  Functional name                       .... Re-regularized SCAN exchange by Furness et al
  Functional family                     .... MGGA
  Functional refs                              
    [ 0] J. W. Furness, A. D. Kaplan, J. Ning, J. P. Perdew, and J. Sun.,  J. Phys. Chem. Lett. 11, 8208-8215 (2020), doi: 10.1021/acs.jpclett.0c02405
    [ 1] J. W. Furness, A. D. Kaplan, J. Ning, J. P. Perdew, and J. Sun.,  J. Phys. Chem. Lett. 11, 9248-9248 (2020), doi: 10.1021/acs.jpclett.0c03077
  Functional external parameters        .... 6
    Parameter  0 _c1        =  6.670000e-01 : c1 parameter        
    Parameter  1 _c2        =  8.000000e-01 : c2 parameter        
    Parameter  2 _d         =  1.240000e+00 : d parameter         
    Parameter  3 _k1        =  6.500000e-02 : k1 parameter        
    Parameter  4 _eta       =  1.000000e-03 : eta parameter       
    Parameter  5 _dp2       =  3.610000e-01 : dp2 parameter       
  Functional kind                       .... Correlation
  Functional name                       .... Re-regularized SCAN correlation by Furness et al
  Functional family                     .... MGGA
  Functional refs                              
    [ 0] J. W. Furness, A. D. Kaplan, J. Ning, J. P. Perdew, and J. Sun.,  J. Phys. Chem. Lett. 11, 8208-8215 (2020), doi: 10.1021/acs.jpclett.0c02405
    [ 1] J. W. Furness, A. D. Kaplan, J. Ning, J. P. Perdew, and J. Sun.,  J. Phys. Chem. Lett. 11, 9248-9248 (2020), doi: 10.1021/acs.jpclett.0c03077
  Functional external parameters        .... 1
    Parameter  0 _eta       =  1.000000e-03 : Regularization parameter
 Gradients option       PostSCFGGA      .... off
 Hybrid DFT is turned on
   Fraction HF Exchange ScalHFX         ....  0.100000
   Scaling of DF-GGA-X  ScalDFX         ....  0.900000
   Scaling of DF-GGA-C  ScalDFC         ....  1.000000
   Scaling of DF-LDA-C  ScalLDAC        ....  1.000000
   Perturbative correction              ....  0.000000
   NL short-range parameter             .... 11.900000
 RI-approximation to the Coulomb term is turned on
   Number of AuxJ basis functions       .... 1296
   RIJ-COSX (HFX calculated with COS-X)).... on


General Settings:
 Integral files         IntName         .... rf_mecn_1H2O_opt_r2s_sw_003
 Hartree-Fock type      HFTyp           .... RHF
 Total Charge           Charge          ....   -1
 Multiplicity           Mult            ....    1
 Number of Electrons    NEL             ....  210
 Basis Dimension        Dim             ....  818
 Nuclear Repulsion      ENuc            ....   3082.7089060438 Eh

Convergence Acceleration:
 AO-DIIS                CNVDIIS         .... on
   Start iteration      DIISMaxIt       ....     0
   Startup error        DIISStart       ....  0.200000
   # of expansion vecs  DIISMaxEq       ....     5
   Bias factor          DIISBfac        ....   1.050
   Max. coefficient     DIISMaxC        ....  10.000
 MO-DIIS                CNVKDIIS        .... off
 Trust-Rad. Augm. Hess. CNVTRAH         .... auto
   Auto Start mean grad. ratio tolernc. ....  1.125000
   Auto Start start iteration           ....    50
   Auto Start num. interpolation iter.  ....    10
   Max. Number of Micro iterations      ....    24
   Max. Number of Macro iterations      .... Maxiter - #DIIS iter
   Number of Davidson start vectors     ....     2
   Converg. threshold    (grad. norm)   ....   1.000e-05
   Grad. Scal. Fac. for Micro threshold ....   0.100
   Minimum threshold for Micro iter.    ....   1.000e-02
   NR start threshold (gradient norm)   ....   1.000e-04
   Initial trust radius                 ....   0.400
   Minimum AH scaling param. (alpha)    ....   1.000
   Maximum AH scaling param. (alpha)    .... 1000.000
   Quad. conv. algorithm                .... NR
   White noise on init. David. guess    .... on
   Maximum white noise                  ....   0.010
   Pseudo random numbers                .... off
   Inactive MOs                         .... canonical
   Orbital update algorithm             .... Taylor
   Preconditioner                       .... Diag
   Full preconditioner red. dimension   ....   250
 SOSCF                  CNVSOSCF        .... on
   Start iteration      SOSCFMaxIt      ....   150
   Startup grad/error   SOSCFStart      ....  0.001000
   Hessian update       SOSCFHessUp     .... L-BFGS
 Level Shifting         CNVShift        .... on
   Level shift para.    LevelShift      ....    0.2500
   Turn off err/grad.   ShiftErr        ....    0.0000
 Zerner damping         CNVZerner       .... off
 Static damping         CNVDamp         .... on
   Fraction old density DampFac         ....    0.8500
   Max. Damping (<1)    DampMax         ....    0.9800
   Min. Damping (>=0)   DampMin         ....    0.0000
   Turn off err/grad.   DampErr         ....    0.0300

SCF Procedure:
 Maximum # iterations   MaxIter         ....  1500
 SCF integral mode      SCFMode         .... Direct
   Integral package                     .... SHARK and LIBINT hybrid scheme
 Reset frequency        DirectResetFreq ....    20
 Integral Threshold     Thresh          ....  2.500e-11 Eh
 Primitive CutOff       TCut            ....  2.500e-12 Eh

Convergence Tolerance:
 Convergence Check Mode ConvCheckMode   .... Total+1el-Energy
 Convergence forced     ConvForced      .... 0
 Energy Change          TolE            ....  1.000e-08 Eh
 1-El. energy change                    ....  1.000e-05 Eh
 Orbital Gradient       TolG            ....  1.000e-05
 Orbital Rotation angle TolX            ....  1.000e-05
 DIIS Error             TolErr          ....  5.000e-07

------------------------------
INITIAL GUESS: MODEL POTENTIAL
------------------------------
Loading Hartree-Fock densities                     ... done
Calculating cut-offs                               ... done
Initializing the effective Hamiltonian             ... done
Setting up the integral package (SHARK)            ... done
Starting the Coulomb interaction                   ... done (   0.2 sec)
Making the grid                                    ... done (   0.4 sec)
Mapping shells                                     ... done
Starting the XC term evaluation                    ... done (   0.1 sec)
  promolecular density results
     # of electrons  =    208.999431122
     EX              =   -216.044774468
     EC              =     -7.338096311
     EX+EC           =   -223.382870779
Transforming the Hamiltonian                       ... done (   0.1 sec)
Diagonalizing the Hamiltonian                      ... done (   0.1 sec)
Back transforming the eigenvectors                 ... done (   0.0 sec)
Now organizing SCF variables                       ... done
                      ------------------
                      INITIAL GUESS DONE (   1.1 sec)
                      ------------------
             **** ENERGY FILE WAS UPDATED (rf_mecn_1H2O_opt_r2s_sw_003.en.tmp) ****
Finished Guess after   1.7 sec
Maximum memory used throughout the entire GUESS-calculation: 52.9 MB


           ************************************************************
           *        Program running with 20 parallel MPI-processes    *
           *              working on a common directory               *
           ************************************************************

-------------------------------------------------------------------------------------------
                                      ORCA LEAN-SCF
                              memory conserving SCF solver
-------------------------------------------------------------------------------------------

--------------------
CPCM SOLVATION MODEL
--------------------
CPCM parameters:
  Epsilon                                         ...      35.6880
  Refrac                                          ...       1.3442
  Rsolv                                           ...       1.3000
  Surface type                                    ... GAUSSIAN VDW
  Discretization scheme                           ... Constant charge density
    Threshold for H atoms                         ...       5.0000 (charges/Ang^2)
    Threshold for non-H atoms                     ...       5.0000 (charges/Ang^2)
  Epsilon function type                           ...         CPCM
Solvent:                                          ... ACETONITRILE
SMD-CDS solvent descriptors:
  Soln                                            ...       1.3442
  Soln25                                          ...       1.3416
  Sola                                            ...       0.0700
  Solb                                            ...       0.3200
  Solg                                            ...      41.2500
  Solc                                            ...       0.0000
  Solh                                            ...       0.0000
Radii:
  Scheme                                          ... Element-dependent radii
  Radius for C  used is    3.4960 Bohr (=   1.8500 Ang.)
  Radius for F  used is    3.2692 Bohr (=   1.7300 Ang.)
  Radius for O  used is    4.0969 Bohr (=   2.1680 Ang.)
  Radius for H  used is    2.2677 Bohr (=   1.2000 Ang.)
Calculating surface                               ...        done! (  0.0s)
Cavity surface points                             ...         2380
Cavity Volume                                     ...    2380.5219
Cavity Surface-area                               ...    1244.8621
Calculating surface distance matrix               ...        done! (  0.1s)
Performing Cholesky decomposition & store         ...        done! (  0.1s)
Overall time for CPCM initialization              ...                 0.2s

----------------------------------------D-I-I-S--------------------------------------------
Iteration    Energy (Eh)           Delta-E    RMSDP     MaxDP     DIISErr   Damp  Time(sec)
-------------------------------------------------------------------------------------------
               ***  Starting incremental Fock matrix formation  ***
    1    -2028.9167702889217253     0.00e+00  5.25e-04  8.39e-02  3.24e-01  0.850   6.4
Warning: op=0 Small HOMO/LUMO gap (   0.063) - skipping pre-diagonalization
         Will do a full diagonalization
    2    -2029.0750047973733672    -1.58e-01  6.98e-04  1.67e-01  2.30e-01  0.850   4.0
                               ***Turning on AO-DIIS***
    3    -2029.1634215348922226    -8.84e-02  3.45e-04  7.51e-02  1.46e-01  0.850   3.6
    4    -2029.2172356330120238    -5.38e-02  1.84e-04  2.86e-02  1.11e-01  0.850   3.6
    5    -2029.2556785069609759    -3.84e-02  1.19e-04  8.67e-03  9.03e-02  0.850   3.4
    6    -2029.2860788970456269    -3.04e-02  9.35e-05  8.28e-03  7.64e-02  0.850   3.4
    7    -2029.3112551694730428    -2.52e-02  8.16e-05  7.49e-03  6.55e-02  0.850   3.3
    8    -2029.3324177779813908    -2.12e-02  7.11e-05  6.53e-03  5.57e-02  0.850   3.2
    9    -2029.3500378339977033    -1.76e-02  6.06e-05  5.58e-03  4.65e-02  0.850   3.2
   10    -2029.3646505004398932    -1.46e-02  5.10e-05  4.74e-03  3.86e-02  0.850   3.2
   11    -2029.3768110101700586    -1.22e-02  4.31e-05  4.05e-03  3.21e-02  0.850   3.1
   12    -2029.3869803028228489    -1.02e-02  3.65e-05  3.47e-03  2.69e-02  0.850   3.2
   13    -2029.3955150580723057    -8.53e-03  2.07e-04  1.99e-02  2.27e-02  0.000   3.2
   14    -2029.4421438795197901    -4.66e-02  1.30e-05  2.72e-03  1.96e-03  0.000   3.5
                              *** Initializing SOSCF ***
---------------------------------------S-O-S-C-F--------------------------------------
Iteration    Energy (Eh)           Delta-E    RMSDP     MaxDP     MaxGrad    Time(sec)
--------------------------------------------------------------------------------------
   15    -2029.4421617302077721    -1.79e-05  6.77e-06  1.42e-03  4.70e-04     3.2
               *** Restarting incremental Fock matrix formation ***
   16    -2029.4421372330352824     2.45e-05  4.99e-06  5.76e-04  9.40e-05     6.2
   17    -2029.4421370002683034     2.33e-07  1.36e-06  1.21e-04  1.24e-04     3.6
   18    -2029.4421374359644688    -4.36e-07  1.05e-06  1.84e-04  2.53e-05     3.2
   19    -2029.4421374067096622     2.93e-08  5.70e-07  7.10e-05  4.38e-05     3.0
   20    -2029.4421374385374293    -3.18e-08  3.53e-07  6.90e-05  1.96e-06     2.8
                  *** Gradient check signals convergence ***

               *****************************************************
               *                     SUCCESS                       *
               *           SCF CONVERGED AFTER  20 CYCLES          *
               *****************************************************

Recomputing exchange energy using gridx3       ... done (    7.874 sec)
Old exchange energy                            :    -21.825902833 Eh
New exchange energy                            :    -21.825890322 Eh
Exchange energy change after final integration :      0.000012510 Eh
Total energy after final integration           :  -2029.442124928 Eh

SMD CDS free energy correction energy :                 3.05739     Kcal/mol
Total Energy after SMD CDS correction =             -2029.437252663 Eh
             **** ENERGY FILE WAS UPDATED (rf_mecn_1H2O_opt_r2s_sw_003.en.tmp) ****

----------------
TOTAL SCF ENERGY
----------------

Total Energy       :      -2029.43725266339356 Eh          -55223.79517 eV

Components:
Nuclear Repulsion  :       3082.70890604376473 Eh           83884.77395 eV
Electronic Energy  :      -5112.07331940548102 Eh         -139106.58706 eV
One Electron Energy:      -8984.77627931039387 Eh         -244488.19210 eV
Two Electron Energy:       3872.70295990491240 Eh          105381.60504 eV
CPCM Dielectric    :         -0.07772407682155 Eh              -2.11498 eV
SMD CDS (Gcds)     :          0.00487226469455 Eh               0.13258 eV

Virial components:
Potential Energy   :      -4052.31690058445565 Eh         -110269.14884 eV
Kinetic Energy     :       2022.87964792106209 Eh           55045.35367 eV
Virial Ratio       :          2.00324171769145

DFT components:
N(Alpha)           :      104.999977215536 electrons
N(Beta)            :      104.999977215536 electrons
N(Total)           :      209.999954431072 electrons
E(X)               :     -197.470970115179 Eh       
E(C)               :       -7.304302270111 Eh       
E(XC)              :     -204.775272385290 Eh       

CPCM Solvation Model Properties:
Surface-charge          :          0.99067852479197
Corrected charge        :          1.00000000000000
Outlying charge corr.   :          0.00000449444514 Eh               0.00012 eV
Free-energy (cav+disp)  :          0.00487226469455 Eh               0.13258 eV

---------------
SCF CONVERGENCE
---------------

  Last Energy change         ...    3.1828e-08  Tolerance :   1.0000e-08
  Last MAX-Density change    ...    6.8970e-05  Tolerance :   1.0000e-07
  Last RMS-Density change    ...    3.5328e-07  Tolerance :   5.0000e-09
  Last DIIS Error            ...    4.7008e-04  Tolerance :   5.0000e-07
  Last Orbital Gradient      ...    1.9642e-06  Tolerance :   1.0000e-05
  Last Orbital Rotation      ...    4.2828e-06  Tolerance :   1.0000e-05


----------------
ORBITAL ENERGIES
----------------

  NO   OCC          E(Eh)            E(eV) 
   0   2.0000     -24.731296      -672.9728 
   1   2.0000     -24.730873      -672.9613 
   2   2.0000     -24.730722      -672.9572 
   3   2.0000     -24.729978      -672.9369 
   4   2.0000     -24.729974      -672.9368 
   5   2.0000     -24.729165      -672.9148 
   6   2.0000     -24.728446      -672.8952 
   7   2.0000     -24.727940      -672.8815 
   8   2.0000     -24.727620      -672.8728 
   9   2.0000     -24.722221      -672.7258 
  10   2.0000     -24.722144      -672.7238 
  11   2.0000     -24.712118      -672.4509 
  12   2.0000     -24.711873      -672.4442 
  13   2.0000     -24.690434      -671.8609 
  14   2.0000     -24.689421      -671.8333 
  15   2.0000     -19.083280      -519.2824 
  16   2.0000     -19.062229      -518.7096 
  17   2.0000     -19.059324      -518.6306 
  18   2.0000     -10.437496      -284.0187 
  19   2.0000     -10.383462      -282.5484 
  20   2.0000     -10.382358      -282.5183 
  21   2.0000     -10.380286      -282.4619 
  22   2.0000     -10.373067      -282.2655 
  23   2.0000     -10.359041      -281.8838 
  24   2.0000     -10.324542      -280.9451 
  25   2.0000     -10.245393      -278.7913 
  26   2.0000      -1.362314       -37.0704 
  27   2.0000      -1.339327       -36.4449 
  28   2.0000      -1.323557       -36.0158 
  29   2.0000      -1.315148       -35.7870 
  30   2.0000      -1.311553       -35.6892 
  31   2.0000      -1.300586       -35.3908 
  32   2.0000      -1.274289       -34.6752 
  33   2.0000      -1.273846       -34.6631 
  34   2.0000      -1.267295       -34.4849 
  35   2.0000      -1.265216       -34.4283 
  36   2.0000      -1.259917       -34.2841 
  37   2.0000      -1.256517       -34.1916 
  38   2.0000      -1.252760       -34.0893 
  39   2.0000      -1.242365       -33.8065 
  40   2.0000      -1.215258       -33.0689 
  41   2.0000      -1.041211       -28.3328 
  42   2.0000      -0.985235       -26.8096 
  43   2.0000      -0.959623       -26.1127 
  44   2.0000      -0.844336       -22.9755 
  45   2.0000      -0.821887       -22.3647 
  46   2.0000      -0.792104       -21.5543 
  47   2.0000      -0.753216       -20.4960 
  48   2.0000      -0.709880       -19.3168 
  49   2.0000      -0.681124       -18.5343 
  50   2.0000      -0.664131       -18.0719 
  51   2.0000      -0.641737       -17.4625 
  52   2.0000      -0.636988       -17.3333 
  53   2.0000      -0.629266       -17.1232 
  54   2.0000      -0.620260       -16.8781 
  55   2.0000      -0.615955       -16.7610 
  56   2.0000      -0.614865       -16.7313 
  57   2.0000      -0.602157       -16.3855 
  58   2.0000      -0.597871       -16.2689 
  59   2.0000      -0.593927       -16.1616 
  60   2.0000      -0.587150       -15.9772 
  61   2.0000      -0.575490       -15.6599 
  62   2.0000      -0.572311       -15.5734 
  63   2.0000      -0.566458       -15.4141 
  64   2.0000      -0.559569       -15.2266 
  65   2.0000      -0.543759       -14.7964 
  66   2.0000      -0.504272       -13.7219 
  67   2.0000      -0.500262       -13.6128 
  68   2.0000      -0.497581       -13.5399 
  69   2.0000      -0.494578       -13.4581 
  70   2.0000      -0.490488       -13.3469 
  71   2.0000      -0.486256       -13.2317 
  72   2.0000      -0.482999       -13.1431 
  73   2.0000      -0.478939       -13.0326 
  74   2.0000      -0.473861       -12.8944 
  75   2.0000      -0.469270       -12.7695 
  76   2.0000      -0.466589       -12.6965 
  77   2.0000      -0.464064       -12.6278 
  78   2.0000      -0.458756       -12.4834 
  79   2.0000      -0.456374       -12.4186 
  80   2.0000      -0.451885       -12.2964 
  81   2.0000      -0.447611       -12.1801 
  82   2.0000      -0.444813       -12.1040 
  83   2.0000      -0.438036       -11.9196 
  84   2.0000      -0.437379       -11.9017 
  85   2.0000      -0.434136       -11.8134 
  86   2.0000      -0.430083       -11.7032 
  87   2.0000      -0.428413       -11.6577 
  88   2.0000      -0.425544       -11.5796 
  89   2.0000      -0.424928       -11.5629 
  90   2.0000      -0.421178       -11.4608 
  91   2.0000      -0.420123       -11.4321 
  92   2.0000      -0.413244       -11.2449 
  93   2.0000      -0.407042       -11.0762 
  94   2.0000      -0.402354       -10.9486 
  95   2.0000      -0.400884       -10.9086 
  96   2.0000      -0.386317       -10.5122 
  97   2.0000      -0.384491       -10.4625 
  98   2.0000      -0.356402        -9.6982 
  99   2.0000      -0.352030        -9.5792 
 100   2.0000      -0.323179        -8.7941 
 101   2.0000      -0.278813        -7.5869 
 102   2.0000      -0.254289        -6.9195 
 103   2.0000      -0.240417        -6.5421 
 104   2.0000      -0.229914        -6.2563 
 105   0.0000      -0.010277        -0.2797 
 106   0.0000       0.003975         0.1082 
 107   0.0000       0.019167         0.5216 
 108   0.0000       0.050462         1.3731 
 109   0.0000       0.056656         1.5417 
 110   0.0000       0.077853         2.1185 
 111   0.0000       0.097740         2.6597 
 112   0.0000       0.107353         2.9212 
 113   0.0000       0.115559         3.1445 
 114   0.0000       0.127035         3.4568 
 115   0.0000       0.138106         3.7581 
*Only the first 10 virtual orbitals were printed.

                    ********************************
                    * MULLIKEN POPULATION ANALYSIS *
                    ********************************

-----------------------
MULLIKEN ATOMIC CHARGES
-----------------------
   0 C :    0.469064
   1 C :    0.328398
   2 C :    0.296177
   3 C :    0.321751
   4 C :    0.323526
   5 C :    0.336332
   6 C :    0.316630
   7 C :    0.238656
   8 F :   -0.156323
   9 F :   -0.154373
  10 F :   -0.156165
  11 F :   -0.162710
  12 F :   -0.160162
  13 F :   -0.163396
  14 F :   -0.164838
  15 F :   -0.164237
  16 F :   -0.166514
  17 F :   -0.169397
  18 F :   -0.172087
  19 F :   -0.185085
  20 F :   -0.180022
  21 F :   -0.211140
  22 F :   -0.205393
  23 O :   -0.489378
  24 O :   -0.541550
  25 O :   -0.742465
  26 H :    0.344648
  27 H :    0.370051
Sum of atomic charges:   -1.0000000

--------------------------------
MULLIKEN REDUCED ORBITAL CHARGES
--------------------------------
  0 C s       :     3.020103  s :     3.020103
      pz      :     0.669071  p :     2.110503
      px      :     0.664348
      py      :     0.777084
      dz2     :     0.065990  d :     0.359351
      dxz     :     0.080866
      dyz     :     0.075918
      dx2y2   :     0.070358
      dxy     :     0.066220
      f0      :     0.006332  f :     0.040978
      f+1     :     0.008963
      f-1     :     0.004954
      f+2     :     0.003128
      f-2     :     0.006051
      f+3     :     0.004584
      f-3     :     0.006967

  1 C s       :     3.098615  s :     3.098615
      pz      :     0.631929  p :     2.253406
      px      :     0.720883
      py      :     0.900593
      dz2     :     0.072904  d :     0.291126
      dxz     :     0.063362
      dyz     :     0.058072
      dx2y2   :     0.038424
      dxy     :     0.058364
      f0      :     0.005148  f :     0.028455
      f+1     :     0.006124
      f-1     :     0.002787
      f+2     :     0.004677
      f-2     :     0.004274
      f+3     :     0.002809
      f-3     :     0.002636

  2 C s       :     3.141687  s :     3.141687
      pz      :     0.590014  p :     2.238614
      px      :     0.720758
      py      :     0.927842
      dz2     :     0.080521  d :     0.295151
      dxz     :     0.055768
      dyz     :     0.067135
      dx2y2   :     0.032713
      dxy     :     0.059013
      f0      :     0.006303  f :     0.028371
      f+1     :     0.004341
      f-1     :     0.003341
      f+2     :     0.004934
      f-2     :     0.005186
      f+3     :     0.002219
      f-3     :     0.002046

  3 C s       :     3.133281  s :     3.133281
      pz      :     0.624327  p :     2.222044
      px      :     0.708948
      py      :     0.888769
      dz2     :     0.076928  d :     0.294570
      dxz     :     0.062745
      dyz     :     0.057284
      dx2y2   :     0.039602
      dxy     :     0.058012
      f0      :     0.005310  f :     0.028354
      f+1     :     0.005924
      f-1     :     0.002744
      f+2     :     0.004662
      f-2     :     0.004481
      f+3     :     0.002614
      f-3     :     0.002619

  4 C s       :     3.136216  s :     3.136216
      pz      :     0.611948  p :     2.221673
      px      :     0.690839
      py      :     0.918885
      dz2     :     0.062993  d :     0.290431
      dxz     :     0.070141
      dyz     :     0.062192
      dx2y2   :     0.037288
      dxy     :     0.057817
      f0      :     0.004165  f :     0.028154
      f+1     :     0.007807
      f-1     :     0.003732
      f+2     :     0.002946
      f-2     :     0.003468
      f+3     :     0.002300
      f-3     :     0.003736

  5 C s       :     3.125845  s :     3.125845
      pz      :     0.674311  p :     2.223787
      px      :     0.650831
      py      :     0.898644
      dz2     :     0.056618  d :     0.285988
      dxz     :     0.075972
      dyz     :     0.048963
      dx2y2   :     0.044206
      dxy     :     0.060229
      f0      :     0.005550  f :     0.028048
      f+1     :     0.005440
      f-1     :     0.003744
      f+2     :     0.004030
      f-2     :     0.001968
      f+3     :     0.002724
      f-3     :     0.004593

  6 C s       :     3.135524  s :     3.135524
      pz      :     0.671570  p :     2.264754
      px      :     0.617312
      py      :     0.975872
      dz2     :     0.043252  d :     0.256768
      dxz     :     0.061942
      dyz     :     0.048683
      dx2y2   :     0.046943
      dxy     :     0.055948
      f0      :     0.005605  f :     0.026324
      f+1     :     0.003306
      f-1     :     0.003443
      f+2     :     0.004137
      f-2     :     0.002404
      f+3     :     0.002990
      f-3     :     0.004439

  7 C s       :     3.038204  s :     3.038204
      pz      :     0.811781  p :     2.447952
      px      :     0.745039
      py      :     0.891132
      dz2     :     0.011434  d :     0.250076
      dxz     :     0.071779
      dyz     :     0.016221
      dx2y2   :     0.076990
      dxy     :     0.073654
      f0      :     0.002681  f :     0.025111
      f+1     :     0.002305
      f-1     :     0.001177
      f+2     :     0.002325
      f-2     :     0.002803
      f+3     :     0.006694
      f-3     :     0.007128

  8 F s       :     3.924147  s :     3.924147
      pz      :     1.800452  p :     5.213895
      px      :     1.547224
      py      :     1.866219
      dz2     :     0.002387  d :     0.017503
      dxz     :     0.005658
      dyz     :     0.001086
      dx2y2   :     0.004658
      dxy     :     0.003714
      f0      :     0.000087  f :     0.000778
      f+1     :     0.000138
      f-1     :     0.000014
      f+2     :     0.000182
      f-2     :     0.000097
      f+3     :     0.000129
      f-3     :     0.000130

  9 F s       :     3.922688  s :     3.922688
      pz      :     1.465553  p :     5.213230
      px      :     1.872257
      py      :     1.875420
      dz2     :     0.008459  d :     0.017662
      dxz     :     0.003990
      dyz     :     0.004399
      dx2y2   :     0.000338
      dxy     :     0.000477
      f0      :     0.000322  f :     0.000792
      f+1     :     0.000188
      f-1     :     0.000206
      f+2     :     0.000028
      f-2     :     0.000042
      f+3     :     0.000003
      f-3     :     0.000002

 10 F s       :     3.922847  s :     3.922847
      pz      :     1.890364  p :     5.215153
      px      :     1.736289
      py      :     1.588500
      dz2     :     0.002508  d :     0.017385
      dxz     :     0.001417
      dyz     :     0.002442
      dx2y2   :     0.004198
      dxy     :     0.006820
      f0      :     0.000067  f :     0.000779
      f+1     :     0.000065
      f-1     :     0.000106
      f+2     :     0.000016
      f-2     :     0.000104
      f+3     :     0.000240
      f-3     :     0.000182

 11 F s       :     3.928081  s :     3.928081
      pz      :     1.744147  p :     5.216486
      px      :     1.607564
      py      :     1.864775
      dz2     :     0.002542  d :     0.017410
      dxz     :     0.006067
      dyz     :     0.001881
      dx2y2   :     0.003453
      dxy     :     0.003466
      f0      :     0.000077  f :     0.000732
      f+1     :     0.000152
      f-1     :     0.000026
      f+2     :     0.000167
      f-2     :     0.000140
      f+3     :     0.000075
      f-3     :     0.000095

 12 F s       :     3.926038  s :     3.926038
      pz      :     1.537637  p :     5.215863
      px      :     1.829035
      py      :     1.849191
      dz2     :     0.006185  d :     0.017514
      dxz     :     0.004545
      dyz     :     0.004619
      dx2y2   :     0.000939
      dxy     :     0.001226
      f0      :     0.000183  f :     0.000746
      f+1     :     0.000187
      f-1     :     0.000182
      f+2     :     0.000071
      f-2     :     0.000104
      f+3     :     0.000011
      f-3     :     0.000008

 13 F s       :     3.928077  s :     3.928077
      pz      :     1.624475  p :     5.217046
      px      :     1.716663
      py      :     1.875908
      dz2     :     0.004120  d :     0.017538
      dxz     :     0.006335
      dyz     :     0.002984
      dx2y2   :     0.001920
      dxy     :     0.002179
      f0      :     0.000103  f :     0.000735
      f+1     :     0.000229
      f-1     :     0.000068
      f+2     :     0.000134
      f-2     :     0.000138
      f+3     :     0.000029
      f-3     :     0.000035

 14 F s       :     3.928224  s :     3.928224
      pz      :     1.585605  p :     5.218457
      px      :     1.740431
      py      :     1.892421
      dz2     :     0.004878  d :     0.017427
      dxz     :     0.006328
      dyz     :     0.002979
      dx2y2   :     0.001556
      dxy     :     0.001688
      f0      :     0.000128  f :     0.000729
      f+1     :     0.000258
      f-1     :     0.000071
      f+2     :     0.000121
      f-2     :     0.000112
      f+3     :     0.000018
      f-3     :     0.000022

 15 F s       :     3.927501  s :     3.927501
      pz      :     1.548396  p :     5.218465
      px      :     1.819194
      py      :     1.850876
      dz2     :     0.005915  d :     0.017533
      dxz     :     0.004742
      dyz     :     0.004493
      dx2y2   :     0.001037
      dxy     :     0.001346
      f0      :     0.000168  f :     0.000738
      f+1     :     0.000193
      f-1     :     0.000167
      f+2     :     0.000075
      f-2     :     0.000111
      f+3     :     0.000013
      f-3     :     0.000010

 16 F s       :     3.927836  s :     3.927836
      pz      :     1.725883  p :     5.220587
      px      :     1.622085
      py      :     1.872618
      dz2     :     0.002755  d :     0.017364
      dxz     :     0.006302
      dyz     :     0.001986
      dx2y2   :     0.003170
      dxy     :     0.003151
      f0      :     0.000078  f :     0.000728
      f+1     :     0.000170
      f-1     :     0.000028
      f+2     :     0.000171
      f-2     :     0.000137
      f+3     :     0.000064
      f-3     :     0.000080

 17 F s       :     3.926426  s :     3.926426
      pz      :     1.477588  p :     5.224896
      px      :     1.878038
      py      :     1.869270
      dz2     :     0.007978  d :     0.017344
      dxz     :     0.003606
      dyz     :     0.004793
      dx2y2   :     0.000487
      dxy     :     0.000480
      f0      :     0.000290  f :     0.000731
      f+1     :     0.000152
      f-1     :     0.000210
      f+2     :     0.000037
      f-2     :     0.000037
      f+3     :     0.000003
      f-3     :     0.000003

 18 F s       :     3.927011  s :     3.927011
      pz      :     1.797470  p :     5.227180
      px      :     1.529534
      py      :     1.900177
      dz2     :     0.002181  d :     0.017176
      dxz     :     0.005708
      dyz     :     0.000928
      dx2y2   :     0.004922
      dxy     :     0.003437
      f0      :     0.000079  f :     0.000721
      f+1     :     0.000133
      f-1     :     0.000003
      f+2     :     0.000195
      f-2     :     0.000071
      f+3     :     0.000132
      f-3     :     0.000108

 19 F s       :     3.926720  s :     3.926720
      pz      :     1.493614  p :     5.240762
      px      :     1.882202
      py      :     1.864946
      dz2     :     0.007447  d :     0.016886
      dxz     :     0.003379
      dyz     :     0.004885
      dx2y2   :     0.000662
      dxy     :     0.000513
      f0      :     0.000260  f :     0.000716
      f+1     :     0.000140
      f-1     :     0.000215
      f+2     :     0.000050
      f-2     :     0.000044
      f+3     :     0.000003
      f-3     :     0.000005

 20 F s       :     3.927523  s :     3.927523
      pz      :     1.880538  p :     5.234678
      px      :     1.459081
      py      :     1.895060
      dz2     :     0.002339  d :     0.017096
      dxz     :     0.003894
      dyz     :     0.000265
      dx2y2   :     0.006412
      dxy     :     0.004186
      f0      :     0.000067  f :     0.000724
      f+1     :     0.000134
      f-1     :     0.000012
      f+2     :     0.000117
      f-2     :     0.000019
      f+3     :     0.000207
      f-3     :     0.000168

 21 F s       :     3.923360  s :     3.923360
      pz      :     1.530476  p :     5.271395
      px      :     1.850162
      py      :     1.890757
      dz2     :     0.006167  d :     0.015720
      dxz     :     0.004272
      dyz     :     0.003810
      dx2y2   :     0.000772
      dxy     :     0.000698
      f0      :     0.000191  f :     0.000665
      f+1     :     0.000199
      f-1     :     0.000137
      f+2     :     0.000062
      f-2     :     0.000062
      f+3     :     0.000007
      f-3     :     0.000006

 22 F s       :     3.920841  s :     3.920841
      pz      :     1.894097  p :     5.267854
      px      :     1.482141
      py      :     1.891616
      dz2     :     0.002173  d :     0.016023
      dxz     :     0.003185
      dyz     :     0.000213
      dx2y2   :     0.006091
      dxy     :     0.004361
      f0      :     0.000052  f :     0.000675
      f+1     :     0.000126
      f-1     :     0.000013
      f+2     :     0.000085
      f-2     :     0.000013
      f+3     :     0.000205
      f-3     :     0.000179

 23 O s       :     3.808626  s :     3.808626
      pz      :     1.521916  p :     4.649748
      px      :     1.519302
      py      :     1.608530
      dz2     :     0.002784  d :     0.029164
      dxz     :     0.005889
      dyz     :     0.003818
      dx2y2   :     0.007759
      dxy     :     0.008914
      f0      :     0.000199  f :     0.001839
      f+1     :     0.000154
      f-1     :     0.000095
      f+2     :     0.000034
      f-2     :     0.000375
      f+3     :     0.000505
      f-3     :     0.000477

[...]
      px      :     1.764305
      py      :     1.803394
      dz2     :     0.010664  d :     0.031431
      dxz     :     0.008962
      dyz     :     0.007520
      dx2y2   :     0.002056
      dxy     :     0.002229
      f0      :     0.000354  f :     0.001544
      f+1     :     0.000414
      f-1     :     0.000288
      f+2     :     0.000217
      f-2     :     0.000215
      f+3     :     0.000031
      f-3     :     0.000026

 20 F s       :     3.592216  s :     3.592216
      pz      :     1.806134  p :     5.156325
      px      :     1.530717
      py      :     1.819474
      dz2     :     0.004060  d :     0.031695
      dxz     :     0.006700
      dyz     :     0.000416
      dx2y2   :     0.012404
      dxy     :     0.008115
      f0      :     0.000153  f :     0.001557
      f+1     :     0.000250
      f-1     :     0.000025
      f+2     :     0.000253
      f-2     :     0.000040
      f+3     :     0.000421
      f-3     :     0.000415

 21 F s       :     3.604635  s :     3.604635
      pz      :     1.641990  p :     5.191717
      px      :     1.713490
      py      :     1.836238
      dz2     :     0.006430  d :     0.030520
      dxz     :     0.011521
      dyz     :     0.005301
      dx2y2   :     0.003496
      dxy     :     0.003772
      f0      :     0.000181  f :     0.001467
      f+1     :     0.000440
      f-1     :     0.000128
      f+2     :     0.000295
      f-2     :     0.000287
      f+3     :     0.000073
      f-3     :     0.000063

 22 F s       :     3.600628  s :     3.600628
      pz      :     1.778471  p :     5.186777
      px      :     1.589301
      py      :     1.819005
      dz2     :     0.003138  d :     0.030731
      dxz     :     0.008412
      dyz     :     0.001596
      dx2y2   :     0.009247
      dxy     :     0.008338
      f0      :     0.000137  f :     0.001490
      f+1     :     0.000223
      f-1     :     0.000013
      f+2     :     0.000284
      f-2     :     0.000179
      f+3     :     0.000326
      f-3     :     0.000328

 23 O s       :     3.419345  s :     3.419345
      pz      :     1.435049  p :     4.533713
      px      :     1.531373
      py      :     1.567291
      dz2     :     0.007592  d :     0.063722
      dxz     :     0.012980
      dyz     :     0.003418
      dx2y2   :     0.018502
      dxy     :     0.021230
      f0      :     0.000504  f :     0.005733
      f+1     :     0.000765
      f-1     :     0.000217
      f+2     :     0.000458
      f-2     :     0.000626
      f+3     :     0.001539
      f-3     :     0.001623

 24 O s       :     3.417451  s :     3.417451
      pz      :     1.479694  p :     4.562259
      px      :     1.484485
      py      :     1.598081
      dz2     :     0.007546  d :     0.063268
      dxz     :     0.014368
      dyz     :     0.002357
      dx2y2   :     0.019520
      dxy     :     0.019478
      f0      :     0.000494  f :     0.005492
      f+1     :     0.000788
      f-1     :     0.000136
      f+2     :     0.000657
      f-2     :     0.000422
      f+3     :     0.001489
      f-3     :     0.001505

 25 O s       :     3.460148  s :     3.460148
      pz      :     1.801526  p :     4.873153
      px      :     1.589668
      py      :     1.481959
      dz2     :     0.002915  d :     0.027708
      dxz     :     0.003363
      dyz     :     0.003793
      dx2y2   :     0.014974
      dxy     :     0.002663
      f0      :     0.000453  f :     0.002119
      f+1     :     0.000077
      f-1     :     0.000084
      f+2     :     0.000538
      f-2     :     0.000098
      f+3     :     0.000308
      f-3     :     0.000561

 26 H s       :     0.686091  s :     0.686091
      pz      :     0.050630  p :     0.166140
      px      :     0.036688
      py      :     0.078822

 27 H s       :     0.676006  s :     0.676006
      pz      :     0.049808  p :     0.189731
      px      :     0.105089
      py      :     0.034834



                      *****************************
                      * MAYER POPULATION ANALYSIS *
                      *****************************

  NA   - Mulliken gross atomic population
  ZA   - Total nuclear charge
  QA   - Mulliken gross atomic charge
  VA   - Mayer's total valence
  BVA  - Mayer's bonded valence
  FA   - Mayer's free valence

  ATOM       NA         ZA         QA         VA         BVA        FA
  0 C      5.5288     6.0000     0.4712     4.4682     4.4682    -0.0000
  1 C      5.6710     6.0000     0.3290     4.2134     4.2134    -0.0000
  2 C      5.7000     6.0000     0.3000     4.1889     4.1889    -0.0000
  3 C      5.6746     6.0000     0.3254     4.1892     4.1892    -0.0000
  4 C      5.6740     6.0000     0.3260     4.1918     4.1918    -0.0000
  5 C      5.7040     6.0000     0.2960     4.1137     4.1137    -0.0000
  6 C      5.6814     6.0000     0.3186     3.9793     3.9793    -0.0000
  7 C      5.7239     6.0000     0.2761     4.4704     4.4704    -0.0000
  8 F      9.1560     9.0000    -0.1560     1.1646     1.1646    -0.0000
  9 F      9.1540     9.0000    -0.1540     1.1663     1.1663     0.0000
 10 F      9.1533     9.0000    -0.1533     1.1647     1.1647    -0.0000
 11 F      9.1630     9.0000    -0.1630     1.1592     1.1592    -0.0000
 12 F      9.1596     9.0000    -0.1596     1.1612     1.1612    -0.0000
 13 F      9.1637     9.0000    -0.1637     1.1599     1.1599    -0.0000
 14 F      9.1638     9.0000    -0.1638     1.1574     1.1574     0.0000
 15 F      9.1649     9.0000    -0.1649     1.1576     1.1576    -0.0000
 16 F      9.1655     9.0000    -0.1655     1.1556     1.1556    -0.0000
 17 F      9.1686     9.0000    -0.1686     1.1512     1.1512    -0.0000
 18 F      9.1702     9.0000    -0.1702     1.1469     1.1469    -0.0000
 19 F      9.1812     9.0000    -0.1812     1.1323     1.1323     0.0000
 20 F      9.1822     9.0000    -0.1822     1.1320     1.1320    -0.0000
 21 F      9.2087     9.0000    -0.2087     1.0707     1.0707    -0.0000
 22 F      9.2021     9.0000    -0.2021     1.0914     1.0914     0.0000
 23 O      8.4870     8.0000    -0.4870     2.0036     2.0036     0.0000
 24 O      8.5511     8.0000    -0.5511     1.8795     1.8795    -0.0000
 25 O      8.7413     8.0000    -0.7413     1.7353     1.7353    -0.0000
 26 H      0.6653     1.0000     0.3347     0.9110     0.9110    -0.0000
 27 H      0.6411     1.0000     0.3589     0.9422     0.9422     0.0000

  Mayer bond orders larger than 0.100000
B(  0-C ,  1-C ) :   0.9538 B(  0-C ,  8-F ) :   1.1278 B(  0-C ,  9-F ) :   1.1426 
B(  0-C , 10-F ) :   1.1344 B(  1-C ,  2-C ) :   0.9356 B(  1-C , 11-F ) :   1.0829 
B(  1-C , 12-F ) :   1.0989 B(  2-C ,  3-C ) :   0.9288 B(  2-C , 13-F ) :   1.0809 
B(  2-C , 14-F ) :   1.0892 B(  3-C ,  4-C ) :   0.9360 B(  3-C , 15-F ) :   1.0807 
B(  3-C , 16-F ) :   1.0794 B(  4-C ,  5-C ) :   0.9232 B(  4-C , 17-F ) :   1.0826 
B(  4-C , 18-F ) :   1.0720 B(  5-C ,  6-C ) :   0.9262 B(  5-C , 19-F ) :   1.0696 
B(  5-C , 20-F ) :   1.0575 B(  6-C ,  7-C ) :   0.8617 B(  6-C , 21-F ) :   1.0260 
B(  6-C , 22-F ) :   1.0466 B(  7-C , 23-O ) :   1.8940 B(  7-C , 24-O ) :   1.6534 
B( 24-O , 27-H ) :   0.1106 B( 25-O , 26-H ) :   0.8998 B( 25-O , 27-H ) :   0.8188 


-------
TIMINGS
-------

Total SCF time: 0 days 0 hours 0 min 31 sec 

Total time                  ....      31.655 sec
Sum of individual times     ....      30.673 sec  ( 96.9%)

SCF preparation             ....       1.257 sec  (  4.0%)
Fock matrix formation       ....      27.058 sec  ( 85.5%)
  Startup                   ....       0.065 sec  (  0.2% of F)
  Split-RI-J                ....       1.535 sec  (  5.7% of F)
  Chain of spheres X        ....      20.450 sec  ( 75.6% of F)
  XC integration            ....       3.566 sec  ( 13.2% of F)
    XC Preparation          ....       0.000 sec  (  0.0% of XC)
    Basis function eval.    ....       0.286 sec  (  8.0% of XC)
    Density eval.           ....       0.809 sec  ( 22.7% of XC)
    XC-Functional eval.     ....       0.094 sec  (  2.6% of XC)
    XC-Potential eval.      ....       0.800 sec  ( 22.4% of XC)
  CPCM terms                ....       1.289 sec  (  4.8% of F)
Diagonalization             ....       0.000 sec  (  0.0%)
Density matrix formation    ....       0.162 sec  (  0.5%)
Total Energy calculation    ....       0.106 sec  (  0.3%)
Population analysis         ....       0.612 sec  (  1.9%)
Orbital Transformation      ....       0.254 sec  (  0.8%)
Orbital Orthonormalization  ....       0.000 sec  (  0.0%)
DIIS solution               ....       0.350 sec  (  1.1%)
SOSCF solution              ....       0.873 sec  (  2.8%)
Finished LeanSCF after  32.4 sec

Maximum memory used throughout the entire LEANSCF-calculation: 113.4 MB


-------------------------------------------------------------------------------
                          DFT DISPERSION CORRECTION                            
                                                                               
                              DFTD3 V3.1  Rev 1                                
                          USING Becke-Johnson damping                          
-------------------------------------------------------------------------------
The R2SCANh functional is recognized
Active option DFTDOPT                   ...         4   

molecular C6(AA) [au] = 7740.304984 


            DFT-D V3
 parameters
 s6 scaling factor         :     1.0000 
 a1 scaling factor         :     0.4709 
 s8 scaling factor         :     1.1236 
 a2 scaling factor         :     5.9157 
 ad hoc parameters k1-k3   :    16.0000     1.3333    -4.0000 

 Edisp/kcal,au: -5.937069556211  -0.009461321571 
 E6   /kcal   :  -4.356114842 
 E8   /kcal   :  -1.580954714 
 % E8         :  26.628536171 

-------------------------   ----------------
Dispersion correction           -0.009461322
-------------------------   ----------------


-------------------------   --------------------
FINAL SINGLE POINT ENERGY     -2029.451901837997
-------------------------   --------------------

                                *** OPTIMIZATION RUN DONE ***



           ************************************************************
           *        Program running with 20 parallel MPI-processes    *
           *              working on a common directory               *
           ************************************************************

------------------------------------------------------------------------------
                              ORCA PROPERTY CALCULATIONS
------------------------------------------------------------------------------

GBWName                                 ... rf_mecn_1H2O_opt_r2s_sw_003.gbw
Number of atoms                         ...     28
Number of basis functions               ...    818
Max core memory                         ...   8000 MB

Electric properties:
Dipole moment                           ... YES
Quadrupole moment                       ...  NO
Static polarizability (Dipole/Dipole)   ...  NO
Static polarizability (Dipole/Quad.)    ...  NO
Static polarizability (Quad./Quad.)     ...  NO
Static polarizability (Velocity)        ...  NO

Atomic electric properties:
Dipole moment                           ...  NO
Quadrupole moment                       ...  NO
Static polarizability                   ...  NO

Choice of electric origin               ... Center of mass
Position of electric origin             ...    12.407968    44.572004     3.347590

General magnetic properties:
Magnetizability                         ...  NO

EPR properties:
g-Tensor (aka g-matrix)                 ...  NO
Zero-Field splitting spin-orbit         ...  NO
Zero-field splitting spin-spin          ...  NO
Hyperfine couplings                     ...  NO (   0 nuclei)
Quadrupole couplings                    ...  NO (   0 nuclei)
Contact density                         ...  NO (   0 nuclei)

NMR properties:
Chemical shifts                         ...  NO (   0 nuclei)
Spin-rotation constants                 ...  NO (   0 nuclei)
Spin-spin couplings                     ...  NO (   0 nuclei,    0 pairs)

Choice of magnetic origin               ... GIAO
Position of magnetic origin             ...     0.000000     0.000000     0.000000

Properties with geometric perturbations:
SCF Hessian                             ...  NO
IR spectrum                             ...  NO
VCD spectrum                            ...  NO
X-ray spectroscopy properties:
SCF XES/XAS/RIXS spectra                ...  NO


-------------
DIPOLE MOMENT
-------------

Method             : SCF
Type of density    : Electron Density
Multiplicity       :   1
Irrep              :   0
Energy             : -2029.4424405164265863 Eh
Relativity type    : 
Basis              : AO
                                X                 Y                 Z
Electronic contribution:      7.541622279      28.608630892       4.929250407
Nuclear contribution   :     -6.867281227     -19.577822650      -3.988282980
                        -----------------------------------------
Total Dipole Moment    :      0.674341051       9.030808242       0.940967426
                        -----------------------------------------
Magnitude (a.u.)       :      9.104704995
Magnitude (Debye)      :     23.142320948



--------------------
Rotational spectrum 
--------------------
 
Rotational constants in cm-1:             0.017133             0.003500             0.003341 
Rotational constants in MHz :           513.628341           104.933590           100.175498 

Dipole components along the rotational axes: 
x,y,z [a.u.] :     9.031063     0.396492    -1.085521 
x,y,z [Debye]:    22.955137     1.007802    -2.759176 

 

Dipole moment calculation done in   0.2 sec 

Maximum memory used throughout the entire PROP-calculation: 64.5 MB

--------------------------------
SUGGESTED CITATIONS FOR THIS RUN
--------------------------------

Below you find a list of papers that are relevant to this ORCA run
We neither can nor want to force you to cite these papers, but we appreciate if you do
You receive ORCA, which is the product of decades of hard work by many enthusiastic individuals, for free
The only thing we kindly ask in return is that you cite our papers,
We deeply appreciate it, if you show your appreciation for ORCA by not just citing the generic ORCA reference.

Please note that relegating all ORCA citations to the supporting information does *not* help us.
SI sections are not indexed - citations you put there will not count into any citation statistics
But we need these citations in order to attract the funding resources that allow us to do what we are doing

Therefore, if you are a happy ORCA user, please consider citing a few of the papers listed below in the main body of your paper

In addition to the list printed below, the program has created the file rf_mecn_1H2O_opt_r2s_sw_003.bibtex that contains the list in bibtex format
You can import this file easily into all common literature databanks and citation aid programs


List of essential papers. We consider these as the minimum necessary citations

  1. Neese,F.
     Software update: the ORCA program system, version 5.0
     WIRES Comput. Molec. Sci., 2022 12(1)e1606
     doi.org/10.1002/wcms.1606

List of papers to cite with high priority. The work reported in these papers was absolutely
necessary for this run to complete.
Our perspective: the developers of density functionals and basis sets usually get cited in chemistry papers
Good! But without the algorithms to do something with them, the functionals or basis sets would not do anything.
Hence, in our opinion, the algorithm design and method developments papers are equally worthy of getting cited

  1. Neese,F.
     An improvement of the resolution of the identity approximation for the formation of the Coulomb matrix
     J. Comp. Chem., 2003 24(14)1740-1747
     doi.org/10.1002/jcc.10318
  2. Neese,F.; Wennmohs,F.; Hansen,A.; Becker,U.
     Efficient, approximate and parallel Hartree-Fock and hybrid DFT calculations. A 'chain-of-spheres' algorithm for the Hartree-Fock exchange
     Chem. Phys., 2009 356(1-3)98-109
     doi.org/10.1016/j.chemphys.2008.10.036
  3. Garcia-Rates,M.; Neese,F.
     Effect of the Solute Cavity on the Solvation Energy and its Derivatives within the Framework of the Gaussian Charge Scheme
     J. Comput. Chem., 2020 41 922-939
     doi.org/10.1002/jcc.26139
  4. Helmich-Paris,B.; de Souza,B.; Neese,F.; Izsák,R.
     An improved chain of spheres for exchange algorithm
     J. Chem. Phys., 2021 155 104109
     doi.org/doi: 10.1063/5.0058766.
  5. Neese,F.
     The SHARK Integral Generation and Digestion System
     J. Comp. Chem., 2022  1-16
     doi.org/10.1002/jcc.26942
  6. Lehtola,S.; Steigemann,C.; Oliveira,M.; Marques,M.
     Recent developments in Libxc - A comprehensive library of functionals for density functional theory
     Software X, 2018 7 
     doi.org/10.1016/j.softx.2017.11.002
  7. Grimme,S.; Antony,J.; Ehrlich,S.; Krieg,H.
     A consistent and accurate ab initio parametrization of density functional dispersion correction (DFT-D) for the 94 elements H-Pu
     J. Chem. Phys., 2010 132 154104
     doi.org/10.1063/1.3382344
  8. Grimme,S.; Ehrlich,S.; Goerigk,L.
     Effect of the damping function in dispersion corrected density functional theory
     J. Comput. Chem., 2011 32(7)1456-1465
     doi.org/10.1002/jcc.21759
  9. Bursch,M.; Neugebauer,H.; Ehlert,S.; Grimme,S.
     Dispersion corrected r2SCAN based global hybrid functionals: r2SCANh, r2SCAN0, and r2SCAN50
     J. Phys. Chem., 2022 156(13)134105
     doi.org/10.1063/5.0086040

List of suggested additional citations. These are papers that are important in the 'surrounding' of 
of this run, or papers that preceded the highly important papers. If you like your results we are grateful for a citation.

  1. Izsak,R.; Neese,F.
     An overlap fitted chain of spheres exchange method
     J. Chem. Phys., 2011 135 144105
     doi.org/10.1063/1.3646921
  2. Izsak,R.; Hansen,A.; Neese,F.
     The resolution of identity and chain of spheres approximations for the LPNO-CCSD singles Fock term
     Molec. Phys., 2012 110 2413-2417
     doi.org/10.1080/00268976.2012.687466
  3. Neese,F.
     The ORCA program system
     WIRES Comput. Molec. Sci., 2012 2(1)73-78
     doi.org/10.1002/wcms.81
  4. Izsak,R.; Neese,F.; Klopper,W.
     Robust fitting techniques in the chain of spheres approximation to the Fock exchange: The role of the complementary space
     J. Chem. Phys., 2013 139 
     doi.org/10.1063/1.4819264
  5. Neese,F.
     Software update: the ORCA program system, version 4.0
     WIRES Comput. Molec. Sci., 2018 8(1)1-6
     doi.org/10.1002/wcms.1327
  6. Neese,F.; Wennmohs,F.; Becker,U.; Riplinger,C.
     The ORCA quantum chemistry program package
     J. Chem. Phys., 2020 152 Art. No. L224108
     doi.org/10.1063/5.0004608
  7. Wittmann,L.; Neugebauer,H.; Grimme,S.; Bursch,M.
     Dispersion-corrected r2SCAN based double-hybrid functionals
     J. Chem. Phys., 2023 159(22)224103
     doi.org/10.1063/5.0174988

List of optional additional citations

  1. Neese,F.
     Approximate second-order SCF convergence for spin unrestricted wavefunctions
     Chem. Phys. Lett., 2000 325(1-3)93-98
     doi.org/10.1016/s0009-2614(00)00662-x

Timings for individual modules:

Sum of individual times          ...     5255.689 sec (=  87.595 min)
Startup calculation              ...      261.397 sec (=   4.357 min)   5.0 %
SCF iterations                   ...     3687.093 sec (=  61.452 min)  70.2 %
Property calculations            ...        0.897 sec (=   0.015 min)   0.0 %
SCF Gradient evaluation          ...     1304.879 sec (=  21.748 min)  24.8 %
Geometry relaxation              ...        1.423 sec (=   0.024 min)   0.0 %
                             ****ORCA TERMINATED NORMALLY****
TOTAL RUN TIME: 0 days 1 hours 28 minutes 21 seconds 185 msec
