
                                 *****************
                                 * O   R   C   A *
                                 *****************

                                            #,                                       
                                            ###                                      
                                            ####                                     
                                            #####                                    
                                            ######                                   
                                           ########,                                 
                                     ,,################,,,,,                         
                               ,,#################################,,                 
                          ,,##########################################,,             
                       ,#########################################, ''#####,          
                    ,#############################################,,   '####,        
                  ,##################################################,,,,####,       
                ,###########''''           ''''###############################       
              ,#####''   ,,,,##########,,,,          '''####'''          '####       
            ,##' ,,,,###########################,,,                        '##       
           ' ,,###''''                  '''############,,,                           
         ,,##''                                '''############,,,,        ,,,,,,###''
      ,#''                                            '''#######################'''  
     '                                                          ''''####''''         
             ,#######,   #######,   ,#######,      ##                                
            ,#'     '#,  ##    ##  ,#'     '#,    #''#        ,####,   ,####,        
            ##       ##  ##   ,#'  ##            #'  '#       #'       #'  '#        
            ##       ##  #######   ##           ,######,      #####,   #    #        
            '#,     ,#'  ##    ##  '#,     ,#' ,#      #,     #,   #   #,  ,#        
             '#######'   ##     ##  '#######'  #'      '#     '####' # '####'        



                #########################################################
                #                        -***-                          #
                #          Department of theory and spectroscopy        #
                #                                                       #
                #                      Frank Neese                      #
                #                                                       #
                #     Directorship, Architecture, Infrastructure        #
                #                    SHARK, DRIVERS                     #
                #        Core code/Algorithms in most modules           #
                #                                                       #
                #        Max Planck Institute fuer Kohlenforschung      #
                #                Kaiser Wilhelm Platz 1                 #
                #                 D-45470 Muelheim/Ruhr                 #
                #                      Germany                          #
                #                                                       #
                #                  All rights reserved                  #
                #                        -***-                          #
                #########################################################


                         Program Version 6.0.1  -  RELEASE   -


 With contributions from (in alphabetic order):
[Max-Planck-Institut fuer Kohlenforschung]                               
  Daniel Aravena         : Magnetic Suceptibility                        
  Michael Atanasov       : Ab Initio Ligand Field Theory (pilot matlab implementation)
  Alexander A. Auer      : GIAO ZORA, VPT2 properties, NMR spectrum      
  Ute Becker             : All parallelization in ORCA, NUMFREQ, NUMCALC 
  Giovanni Bistoni       : ED, misc. LED, open-shell LED, HFLD           
  Martin Brehm           : Molecular dynamics                            
  Dmytro Bykov           : pre 5.0 version of the SCF Hessian            
  Marcos Casanova-Páez   : Triplet and SCS-CIS(D). UHF-(DLPNO)-IP/EA/STEOM-CCSD. UHF-CVS-IP/STEOM-CCSD   
  Vijay G. Chilkuri      : MRCI spin determinant printing, contributions to CSF-ICE 
  Pauline Colinet        : FMM embedding                                 
  Dipayan Datta          : RHF DLPNO-CCSD density                        
  Achintya Kumar Dutta   : EOM-CC, STEOM-CC                              
  Nicolas Foglia         : Exact transition moments, OPA infrastructure, MCD improvements    
  Dmitry Ganyushin       : Spin-Orbit,Spin-Spin,Magnetic field MRCI      
  Miquel Garcia-Rates    : C-PCM and meta-GGA Hessian, CCSD/C-PCM, Gaussian charge scheme 
  Tiago L. C. Gouveia    : GS-ROHF, GS-ROCIS                             
  Yang Guo               : DLPNO-NEVPT2, F12-NEVPT2, CIM, IAO-localization        
  Andreas Hansen         : Spin unrestricted coupled pair/coupled cluster methods 
  Ingolf Harden          : AUTO-CI MPn and infrastructure                
  Benjamin Helmich-Paris : MC-RPA, TRAH-(SCF,CASSCF), AVAS, COSX integrals, SCF dyn. polar. 
  Lee Huntington         : MR-EOM, pCC                                   
  Robert Izsak           : Overlap fitted RIJCOSX, COSX-SCS-MP3, EOM     
  Riya Kayal             : Wick's Theorem for AUTO-CI, AUTO-CI UHF-CCSDT 
  Emily Kempfer          : AUTO-CI, RHF CISDT and CCSDT                  
  Christian Kollmar      : KDIIS, OOCD, Brueckner-CCSD(T), CCSD density, CASPT2, CASPT2-K, improved NEVPT2 
  Axel Koslowski         : Symmetry handling                             
  Simone Kossmann        : meta-GGA functionals, TD-DFT gradient, OOMP2, (MP2 Hessian; deprecated post 5.0) 
  Lucas Lang             : DCDCAS                                        
  Marvin Lechner         : AUTO-CI (C++ implementation), FIC-MRCC        
  Spencer Leger          : CASSCF response                               
  Dagmar Lenk            : GEPOL surface, SMD, ORCA-2-JSON               
  Dimitrios Liakos       : Extrapolation schemes; Compound Job, initial MDCI parallelization 
  Dimitrios Manganas     : Further ROCIS development; embedding schemes. LFT, Crystal Embedding 
  Dimitrios Pantazis     : SARC Basis sets                               
  Anastasios Papadopoulos: AUTO-CI, single reference methods and gradients 
  Taras Petrenko         : pre 6.0 DFT Hessian and TD-DFT gradient, (ASA, deprecated), ECA, 1-Electron XAS/XES, NRVS 
  Peter Pinski           : DLPNO-MP2, DLPNO-MP2 Gradient                 
  Christoph Reimann      : Effective Core Potentials                     
  Marius Retegan         : Local ZFS, SOC                                
  Christoph Riplinger    : Optimizer, TS searches, QM/MM, DLPNO-CCSD(T), (RO)-DLPNO pert. Triples 
  Michael Roemelt        : Original ROCIS implementation                 
  Masaaki Saitow         : Open-shell DLPNO-CCSD energy and density      
  Barbara Sandhoefer     : DKH picture change effects                    
  Kantharuban Sivalingam : CASSCF convergence/infrastructure, NEVPT2 and variants, FIC-MRCI 
  Bernardo de Souza      : ESD, SOC TD-DFT                               
  Georgi L. Stoychev     : AutoAux, RI-MP2 NMR, DLPNO-MP2 response, X2C  
  Van Anh Tran           : RI-MP2 g-tensors                              
  Willem Van den Heuvel  : Paramagnetic NMR                              
  Zikuan Wang            : NOTCH, Electric field optimization            
  Frank Wennmohs         : Technical directorship and infrastructure     
  Hang Xu                : AUTO-CI-Response properties                   
                                                                         
[FACCTs GmbH]                                                            
  Markus Bursch, Miquel Garcia-Rates, Christoph Riplinger, Bernardo de Souza, Georgi L. Stoychev 
                                                                 
  APM, Basis sets (HGBS, AHGBS, def-TZVP (Ac-Lr), def2-XVPD (La-Lu)), CI-OPT, improved COSX, DLPNO-Multilevel,           
  DOCKER, DRACO, updates on ESD, GOAT, IRC, LR-CPCM, MBIS, meta-GGA TD-DFT gradient, ML-optimized integration grids, 
  MM, NACMEs, nearIR, NEB, NEB-TS, NL-DFT gradient (VV10), 2- and 3-layer-ONIOM, interface openCOSMO-RS, QMMM,   
  Crystal-QMMM, SF, symmetry and pop. for TD-DFT, r2SCAN hybrids, SOLVATOR                                   
                                                                         
[Other institutions]                                                     
  V. Asgeirsson          : NEB                                           
  Christoph Bannwarth    : sTDA-DFT, sTD-DFT, PBEh-3c, B97-3c, D3        
  Sebastian Ehlert       : rSCAN, r2SCAN, r2SCAN-3c, D4, dhf basis sets  
  Marvin Friede          : D4 for Fr, Ra, Ac-Lr                          
  Lars Goerigk           : TD-DFT with DH, B97 family of functionals     
  Stefan Grimme          : VdW corrections, initial TS optimization, DFT functionals, gCP, sTDA/sTD-DF 
  Waldemar Hujo          : DFT-NL                                        
  H. Jonsson             : NEB                                           
  Holger Kruse           : gCP                                           
  Marcel Mueller         : wB97X-3c, vDZP basis set                      
  Hagen Neugebauer       : wr2SCAN                                       
  Tobias Risthaus        : range-separated hybrid DFT                    
  Lukas Wittmann         : regularized MP2, r2SCAN double-hybrids, wr2SCAN        
                                                                         
We gratefully acknowledge several colleagues who have allowed us to      
interface, adapt or use parts of their codes:                            
  Ed Valeev, F. Pavosevic, A. Kumar             : LibInt (2-el integral package), F12 methods 
  Garnet Chan, S. Sharma, J. Yang, R. Olivares  : DMRG                   
  Ulf Ekstrom                                   : XCFun DFT Library      
  Mihaly Kallay                                 : mrcc  (arbitrary order and MRCC methods)
  Frank Weinhold                                : gennbo (NPA and NBO analysis)           
  Simon Mueller                                 : openCOSMO-RS                            
  Christopher J. Cramer and Donald G. Truhlar   : smd solvation model                     
  S Lehtola, MJT Oliveira, MAL Marques          : LibXC Library                           
  Liviu Ungur et al                             : ANISO software                          


 Your calculation uses the libint2 library for the computation of 2-el integrals
 For citations please refer to: http://libint.valeyev.net

 Your ORCA version has been built with support for libXC version: 6.2.2
 For citations please refer to: https://libxc.gitlab.io

 This ORCA versions uses:
   CBLAS   interface :  Fast vector & matrix operations
   LAPACKE interface :  Fast linear algebra routines
   SCALAPACK package :  Parallel linear algebra routines
   Shared memory     :  Shared parallel matrices
   BLAS/LAPACK       :  OpenBLAS 0.3.27  USE64BITINT DYNAMIC_ARCH NO_AFFINITY SkylakeX SINGLE_THREADED
        Core in use  :  SkylakeX
   Copyright (c) 2011-2014, The OpenBLAS Project


NOTE: MaxCore=8000 MB was set to SCF,MP2,MDCI,CIPSI,MRCI and CIS
      => If you want to overwrite this, your respective input block should be placed after the MaxCore statement
Your calculation utilizes the atom-pairwise dispersion correction
with the Becke-Johnson damping scheme (D3BJ)


Your calculation utilizes the SMD solvation module
Please cite in your paper:
A.V. Marenich, C.J. Cramer, D.G. Truhlar J. Phys. Chem. B, 113, (2009), 6378 

Warning: RI is on but no J-basis has been assigned. Assigning Def2/J (nothing to worry about!)
================================================================================

----- Orbital basis set information -----
Your calculation utilizes the basis: def2-TZVP
   F. Weigend and R. Ahlrichs, Phys. Chem. Chem. Phys. 7, 3297 (2005).

----- AuxJ basis set information -----
Your calculation utilizes the auxiliary basis: def2/J
   F. Weigend, Phys. Chem. Chem. Phys. 8, 1057 (2006).

================================================================================
                                        WARNINGS
                       Please study these warnings very carefully!
================================================================================


================================================================================
                                       INPUT FILE
================================================================================
NAME = rf_mecn_1H2O_freq_B3L_con_01.inp
|  1> !B3LYP def2-TZVP freq d3 TightSCF SlowConv defgrid2
|  2>  
|  3> %pal
|  4> nprocs 20
|  5> end
|  6>  
|  7> %scf
|  8> MaxIter 1500
|  9> end
| 10>  
| 11> %maxcore 8000
| 12>  
| 13> !CPCM
| 14> %cpcm smd true
| 15> SMDsolvent "ACETONITRILE"
| 16> end
| 17>  
| 18> * xyz -1 1
| 19> 6        6.886647000     27.972150000      2.963062000
| 20> 6        6.116906000     26.696167000      2.490808000
| 21> 6        7.044147000     25.489399000      2.120530000
| 22> 6        6.286233000     24.115682000      2.069377000
| 23> 6        7.066810000     23.007812000      1.277120000
| 24> 6        6.585285000     21.551276000      1.593689000
| 25> 6        7.016630000     20.475962000      0.554650000
| 26> 6        6.908080000     19.011070000      1.136803000
| 27> 9        7.853985000     28.285659000      2.098119000
| 28> 9        7.423943000     27.785901000      4.168052000
| 29> 9        6.026967000     28.990445000      3.033762000
| 30> 9        5.279885000     26.336129000      3.484422000
| 31> 9        5.390588000     27.033476000      1.409518000
| 32> 9        7.597244000     25.740414000      0.917167000
| 33> 9        8.028263000     25.399591000      3.037026000
| 34> 9        6.087381000     23.701585000      3.336619000
| 35> 9        5.086909000     24.301075000      1.481696000
| 36> 9        6.909535000     23.251543000     -0.040666000
| 37> 9        8.378549000     23.107220000      1.580283000
| 38> 9        7.095450000     21.203291000      2.800702000
| 39> 9        5.237545000     21.562237000      1.691890000
| 40> 9        6.225118000     20.612306000     -0.549446000
| 41> 9        8.288616000     20.767491000      0.162204000
| 42> 8        7.979656000     18.446221000      1.362146000
| 43> 8        5.731397000     18.626637000      1.301824000
| 44> 8        3.184827000     19.327843000      0.484795000
| 45> 1        2.824612000     18.444105000      0.345204000
| 46> 1        4.117543000     19.174630000      0.749264000
| 47> *
| 48> 
| 49>                          ****END OF INPUT****
================================================================================

                       ****************************
                       * Single Point Calculation *
                       ****************************

---------------------------------
CARTESIAN COORDINATES (ANGSTROEM)
---------------------------------
  C      6.886647   27.972150    2.963062
  C      6.116906   26.696167    2.490808
  C      7.044147   25.489399    2.120530
  C      6.286233   24.115682    2.069377
  C      7.066810   23.007812    1.277120
  C      6.585285   21.551276    1.593689
  C      7.016630   20.475962    0.554650
  C      6.908080   19.011070    1.136803
  F      7.853985   28.285659    2.098119
  F      7.423943   27.785901    4.168052
  F      6.026967   28.990445    3.033762
  F      5.279885   26.336129    3.484422
  F      5.390588   27.033476    1.409518
  F      7.597244   25.740414    0.917167
  F      8.028263   25.399591    3.037026
  F      6.087381   23.701585    3.336619
  F      5.086909   24.301075    1.481696
  F      6.909535   23.251543   -0.040666
  F      8.378549   23.107220    1.580283
  F      7.095450   21.203291    2.800702
  F      5.237545   21.562237    1.691890
  F      6.225118   20.612306   -0.549446
  F      8.288616   20.767491    0.162204
  O      7.979656   18.446221    1.362146
  O      5.731397   18.626637    1.301824
  O      3.184827   19.327843    0.484795
  H      2.824612   18.444105    0.345204
  H      4.117543   19.174630    0.749264

----------------------------
CARTESIAN COORDINATES (A.U.)
----------------------------
  NO LB      ZA    FRAG     MASS         X           Y           Z
   0 C     6.0000    0    12.011   13.013877   52.859703    5.599376
   1 C     6.0000    0    12.011   11.559277   50.448444    4.706945
   2 C     6.0000    0    12.011   13.311509   48.167983    4.007221
   3 C     6.0000    0    12.011   11.879259   45.572035    3.910556
   4 C     6.0000    0    12.011   13.354336   43.478464    2.413407
   5 C     6.0000    0    12.011   12.444385   40.726009    3.011636
   6 C     6.0000    0    12.011   13.259509   38.693961    1.048137
   7 C     6.0000    0    12.011   13.054379   35.925716    2.148246
   8 F     9.0000    0    18.998   14.841881   53.452149    3.964870
   9 F     9.0000    0    18.998   14.029219   52.507743    7.876477
  10 F     9.0000    0    18.998   11.389317   54.784002    5.732979
  11 F     9.0000    0    18.998    9.977537   49.768071    6.584603
  12 F     9.0000    0    18.998   10.186735   51.085866    2.663603
  13 F     9.0000    0    18.998   14.356711   48.642333    1.733194
  14 F     9.0000    0    18.998   15.171218   47.998271    5.739147
  15 F     9.0000    0    18.998   11.503483   44.789505    6.305296
  16 F     9.0000    0    18.998    9.612865   45.922377    2.800000
  17 F     9.0000    0    18.998   13.057129   43.939048   -0.076848
  18 F     9.0000    0    18.998   15.833163   43.666318    2.986302
  19 F     9.0000    0    18.998   13.408457   40.068413    5.292560
  20 F     9.0000    0    18.998    9.897526   40.746723    3.197209
  21 F     9.0000    0    18.998   11.763768   38.951613   -1.038302
  22 F     9.0000    0    18.998   15.663214   39.244870    0.306521
  23 O     8.0000    0    15.999   15.079364   34.858306    2.574083
  24 O     8.0000    0    15.999   10.830771   35.199243    2.460091
  25 O     8.0000    0    15.999    6.018451   36.524330    0.916130
  26 H     1.0000    0     1.008    5.337743   34.854307    0.652341
  27 H     1.0000    0     1.008    7.781029   36.234799    1.415904

--------------------------------
INTERNAL COORDINATES (ANGSTROEM)
--------------------------------
 C      0   0   0     0.000000000000     0.00000000     0.00000000
 C      1   0   0     1.563220286424     0.00000000     0.00000000
 C      2   1   0     1.566260091808   114.13038474     0.00000000
 C      3   2   1     1.569760700519   113.33604117   162.67864317
 C      4   3   2     1.569824048700   113.20114687   161.72452027
 C      5   4   3     1.566390556880   113.66459955   161.31072373
 C      6   5   4     1.556265000295   114.98387376   162.75075977
 C      7   6   5     1.580061324624   112.05935253   162.01974247
 F      1   2   3     1.334974566265   110.65618081    50.30473831
 F      1   2   3     1.332432580552   110.95728472   289.09836184
 F      1   2   3     1.334530966079   108.76184789   169.73701031
 F      2   1   3     1.348146986378   107.52083696   121.83949232
 F      2   1   3     1.345549427819   107.69484105   239.06199831
 F      3   2   1     1.347964143219   108.08848614   284.09601105
 F      3   2   1     1.347781397830   108.83545892    41.93233470
 F      4   3   2     1.347932019754   108.02514309   282.93648553
 F      4   3   2     1.348375904259   108.86441232    40.81933214
 F      5   4   3     1.349333230815   107.90540203   282.62030380
 F      5   4   3     1.349981095851   108.53298027    40.14870874
 F      6   5   4     1.355817933802   107.63236016   283.42358838
 F      6   5   4     1.351357350046   108.28426935    40.20170299
 F      7   6   5     1.365323738055   108.07289400   284.04390696
 F      7   6   5     1.362700042178   107.64829564    38.90950492
 O      8   7   6     1.232115653754   115.63638831   250.91411712
 O      8   7   6     1.248840880344   113.50378560    70.30304356
 O     25   8   7     2.764822780248   138.65298950    16.74319701
 H     26  25   8     0.964486052854    98.88095784   139.85554531
 H     26  25   8     0.981517810325     6.02367521   339.98571037

---------------------------
INTERNAL COORDINATES (A.U.)
---------------------------
 C      0   0   0     0.000000000000     0.00000000     0.00000000
 C      1   0   0     2.954058228330     0.00000000     0.00000000
 C      2   1   0     2.959802628007   114.13038474     0.00000000
 C      3   2   1     2.966417819773   113.33604117   162.67864317
 C      4   3   2     2.966537530487   113.20114687   161.72452027
 C      5   4   3     2.960049171263   113.66459955   161.31072373
 C      6   5   4     2.940914642364   114.98387376   162.75075977
 C      7   6   5     2.985883178340   112.05935253   162.01974247
 F      1   2   3     2.522736325991   110.65618081    50.30473831
 F      1   2   3     2.517932669158   110.95728472   289.09836184
 F      1   2   3     2.521898043128   108.76184789   169.73701031
 F      2   1   3     2.547628592526   107.52083696   121.83949232
 F      2   1   3     2.542719918233   107.69484105   239.06199831
 F      3   2   1     2.547283069029   108.08848614   284.09601105
 F      3   2   1     2.546937730292   108.83545892    41.93233470
 F      4   3   2     2.547222364478   108.02514309   282.93648553
 F      4   3   2     2.548061184628   108.86441232    40.81933214
 F      5   4   3     2.549870269640   107.90540203   282.62030380
 F      5   4   3     2.551094557129   108.53298027    40.14870874
 F      6   5   4     2.562124582345   107.63236016   283.42358838
 F      6   5   4     2.553695300648   108.28426935    40.20170299
 F      7   6   5     2.580087949065   108.07289400   284.04390696
 F      7   6   5     2.575129882400   107.64829564    38.90950492
 O      8   7   6     2.328361150913   115.63638831   250.91411712
 O      8   7   6     2.359967248696   113.50378560    70.30304356
 O     25   8   7     5.224757863495   138.65298950    16.74319701
 H     26  25   8     1.822614499881    98.88095784   139.85554531
 H     26  25   8     1.854799857081     6.02367521   339.98571037

---------------------
BASIS SET INFORMATION
---------------------
There are 4 groups of distinct atoms

 Group   1 Type C   : 11s6p2d1f contracted to 5s3p2d1f pattern {62111/411/11/1}
 Group   2 Type F   : 11s6p2d1f contracted to 5s3p2d1f pattern {62111/411/11/1}
 Group   3 Type O   : 11s6p2d1f contracted to 5s3p2d1f pattern {62111/411/11/1}
 Group   4 Type H   : 5s1p contracted to 3s1p pattern {311/1}

Atom   0C    basis set group =>   1
Atom   1C    basis set group =>   1
Atom   2C    basis set group =>   1
Atom   3C    basis set group =>   1
Atom   4C    basis set group =>   1
Atom   5C    basis set group =>   1
Atom   6C    basis set group =>   1
Atom   7C    basis set group =>   1
Atom   8F    basis set group =>   2
Atom   9F    basis set group =>   2
Atom  10F    basis set group =>   2
Atom  11F    basis set group =>   2
Atom  12F    basis set group =>   2
Atom  13F    basis set group =>   2
Atom  14F    basis set group =>   2
Atom  15F    basis set group =>   2
Atom  16F    basis set group =>   2
Atom  17F    basis set group =>   2
Atom  18F    basis set group =>   2
Atom  19F    basis set group =>   2
Atom  20F    basis set group =>   2
Atom  21F    basis set group =>   2
Atom  22F    basis set group =>   2
Atom  23O    basis set group =>   3
Atom  24O    basis set group =>   3
Atom  25O    basis set group =>   3
Atom  26H    basis set group =>   4
Atom  27H    basis set group =>   4
---------------------------------
AUXILIARY/J BASIS SET INFORMATION
---------------------------------
There are 4 groups of distinct atoms

 Group   1 Type C   : 12s5p4d2f1g contracted to 6s4p3d1f1g pattern {711111/2111/211/2/1}
 Group   2 Type F   : 12s5p4d2f1g contracted to 6s4p3d1f1g pattern {711111/2111/211/2/1}
 Group   3 Type O   : 12s5p4d2f1g contracted to 6s4p3d1f1g pattern {711111/2111/211/2/1}
 Group   4 Type H   : 5s2p1d contracted to 3s1p1d pattern {311/2/1}

Atom   0C    basis set group =>   1
Atom   1C    basis set group =>   1
Atom   2C    basis set group =>   1
Atom   3C    basis set group =>   1
Atom   4C    basis set group =>   1
Atom   5C    basis set group =>   1
Atom   6C    basis set group =>   1
Atom   7C    basis set group =>   1
Atom   8F    basis set group =>   2
Atom   9F    basis set group =>   2
Atom  10F    basis set group =>   2
Atom  11F    basis set group =>   2
Atom  12F    basis set group =>   2
Atom  13F    basis set group =>   2
Atom  14F    basis set group =>   2
Atom  15F    basis set group =>   2
Atom  16F    basis set group =>   2
Atom  17F    basis set group =>   2
Atom  18F    basis set group =>   2
Atom  19F    basis set group =>   2
Atom  20F    basis set group =>   2
Atom  21F    basis set group =>   2
Atom  22F    basis set group =>   2
Atom  23O    basis set group =>   3
Atom  24O    basis set group =>   3
Atom  25O    basis set group =>   3
Atom  26H    basis set group =>   4
Atom  27H    basis set group =>   4


           ************************************************************
           *        Program running with 20 parallel MPI-processes    *
           *              working on a common directory               *
           ************************************************************
------------------------------------------------------------------------------
                             ORCA STARTUP CALCULATIONS
                           -- RI-GTO INTEGRALS CHOSEN --
------------------------------------------------------------------------------
------------------------------------------------------------------------------
                   ___                                                        
                  /   \      - P O W E R E D   B Y -                         
                 /     \                                                     
                 |  |  |   _    _      __       _____    __    __             
                 |  |  |  | |  | |    /  \     |  _  \  |  |  /  |          
                  \  \/   | |  | |   /    \    | | | |  |  | /  /          
                 / \  \   | |__| |  /  /\  \   | |_| |  |  |/  /          
                |  |  |   |  __  | /  /__\  \  |    /   |      \           
                |  |  |   | |  | | |   __   |  |    \   |  |\   \          
                \     /   | |  | | |  |  |  |  | |\  \  |  | \   \       
                 \___/    |_|  |_| |__|  |__|  |_| \__\ |__|  \__/        
                                                                              
                      - O R C A' S   B I G   F R I E N D -                    
                                      &                                       
                       - I N T E G R A L  F E E D E R -                       
                                                                              
 v1 FN, 2020, v2 2021, v3 2022-2024                                           
------------------------------------------------------------------------------


----------------------
SHARK INTEGRAL PACKAGE
----------------------

Number of atoms                             ...     28
Number of basis functions                   ...    818
Number of shells                            ...    294
Maximum angular momentum                    ...      3
Integral batch strategy                     ... SHARK/LIBINT Hybrid
RI-J (if used) integral strategy            ... SPLIT-RIJ (Revised 2003 algorithm where possible)
Printlevel                                  ...      1
Contraction scheme used                     ... SEGMENTED contraction
Prescreening option                         ... SCHWARTZ
   Thresh                                   ... 2.500e-11
   Tcut                                     ... 2.500e-12
   Tpresel                                  ... 2.500e-12 
Coulomb Range Separation                    ... NOT USED
Exchange Range Separation                   ... NOT USED
Multipole approximations                    ... NOT USED
Finite Nucleus Model                        ... NOT USED
CABS basis                                  ... NOT available
Auxiliary Coulomb fitting basis             ... AVAILABLE
   # of basis functions in Aux-J            ...   1296
   # of shells in Aux-J                     ...    400
   Maximum angular momentum in Aux-J        ...      4
Auxiliary J/K fitting basis                 ... NOT available
Auxiliary Correlation fitting basis         ... NOT available
Auxiliary 'external' fitting basis          ... NOT available

Checking pre-screening integrals            ... done (  0.0 sec) Dimension = 294
Check shell pair data                       ... done (  0.0 sec)
Shell pair information
Shell pair cut-off parameter TPreSel        ...   2.5e-12
Total number of shell pairs                 ...     43365
Shell pairs after pre-screening             ...     25615
Total number of primitive shell pairs       ...    142356
Primitive shell pairs kept                  ...     53756
          la=0 lb=0:   4990 shell pairs
          la=1 lb=0:   7074 shell pairs
          la=1 lb=1:   2419 shell pairs
          la=2 lb=0:   3769 shell pairs
          la=2 lb=1:   2726 shell pairs
          la=2 lb=2:    756 shell pairs
          la=3 lb=0:   1710 shell pairs
          la=3 lb=1:   1314 shell pairs
          la=3 lb=2:    691 shell pairs
          la=3 lb=3:    166 shell pairs

Calculating one electron integrals          ... done (  0.0 sec)
Calculating RI/J V-Matrix + Cholesky decomp.... done (  0.1 sec)
Calculating Nuclear repulsion               ... done (  0.0 sec) ENN=   3072.695103571910 Eh

Diagonalization of the overlap matrix:
Smallest eigenvalue                        ... 5.957e-05
Time for diagonalization                   ...    0.130 sec
Threshold for overlap eigenvalues          ... 1.000e-07
Number of eigenvalues below threshold      ... 0
Time for construction of square roots      ...    0.059 sec
Total time needed                          ...    0.196 sec

-------------------
DFT GRID GENERATION
-------------------

General Integration Accuracy     IntAcc      ... 4.388
Radial Grid Type                 RadialGrid  ... OptM3 with GC (2021)
Angular Grid (max. ang.)         AngularGrid ... 4 (Lebedev-302)
Angular grid pruning method      GridPruning ... 4 (adaptive)
Weight generation scheme         WeightScheme... mBecke (2022)
Basis function cutoff            BFCut       ... 1.0000e-11
Integration weight cutoff        WCut        ... 1.0000e-14
Partially contracted basis set               ... off
Rotationally invariant grid construction     ... off
Angular grids for H and He will be reduced by one unit

Total number of grid points                  ...   164044
Total number of batches                      ...     2578
Average number of points per batch           ...       63
Average number of grid points per atom       ...     5859

--------------------
COSX GRID GENERATION
--------------------

GRIDX 1
-------
General Integration Accuracy     IntAcc      ... 3.816
Radial Grid Type                 RadialGrid  ... OptM3 with GC (2021)
Angular Grid (max. ang.)         AngularGrid ... 1 (Lebedev-50)
Angular grid pruning method      GridPruning ... 4 (adaptive)
Weight generation scheme         WeightScheme... mBecke (2022)
Basis function cutoff            BFCut       ... 1.0000e-11
Integration weight cutoff        WCut        ... 1.0000e-14
Partially contracted basis set               ... on
Rotationally invariant grid construction     ... off
Angular grids for H and He will be reduced by one unit

Total number of grid points                  ...    20645
Total number of batches                      ...      173
Average number of points per batch           ...      119
Average number of grid points per atom       ...      737
UseSFitting                                  ... on

GRIDX 2
-------
General Integration Accuracy     IntAcc      ... 4.020
Radial Grid Type                 RadialGrid  ... OptM3 with GC (2021)
Angular Grid (max. ang.)         AngularGrid ... 2 (Lebedev-110)
Angular grid pruning method      GridPruning ... 4 (adaptive)
Weight generation scheme         WeightScheme... mBecke (2022)
Basis function cutoff            BFCut       ... 1.0000e-11
Integration weight cutoff        WCut        ... 1.0000e-14
Partially contracted basis set               ... on
Rotationally invariant grid construction     ... off
Angular grids for H and He will be reduced by one unit

Total number of grid points                  ...    48352
Total number of batches                      ...      392
Average number of points per batch           ...      123
Average number of grid points per atom       ...     1727
UseSFitting                                  ... on

GRIDX 3
-------
General Integration Accuracy     IntAcc      ... 4.338
Radial Grid Type                 RadialGrid  ... OptM3 with GC (2021)
Angular Grid (max. ang.)         AngularGrid ... 3 (Lebedev-194)
Angular grid pruning method      GridPruning ... 4 (adaptive)
Weight generation scheme         WeightScheme... mBecke (2022)
Basis function cutoff            BFCut       ... 1.0000e-11
Integration weight cutoff        WCut        ... 1.0000e-14
Partially contracted basis set               ... on
Rotationally invariant grid construction     ... off
Angular grids for H and He will be reduced by one unit

Total number of grid points                  ...   107005
Total number of batches                      ...      850
Average number of points per batch           ...      125
Average number of grid points per atom       ...     3822
UseSFitting                                  ... on
Initializing property integral containers    ... done (  0.0 sec)

SHARK setup successfully completed in   3.3 seconds

Maximum memory used throughout the entire STARTUP-calculation: 64.1 MB


           ************************************************************
           *        Program running with 20 parallel MPI-processes    *
           *              working on a common directory               *
           ************************************************************
-------------------------------------------------------------------------------
                                 ORCA GUESS
                   Start orbitals & Density for SCF / CASSCF
-------------------------------------------------------------------------------

------------
SCF SETTINGS
------------
Hamiltonian:
 Density Functional     Method          .... DFT(GTOs)
 Exchange Functional    Exchange        .... B88
   X-Alpha parameter    XAlpha          ....  0.666667
   Becke's b parameter  XBeta           ....  0.004200
 Correlation Functional Correlation     .... LYP
 LDA part of GGA corr.  LDAOpt          .... VWN-5
 Gradients option       PostSCFGGA      .... off
 Hybrid DFT is turned on
   Fraction HF Exchange ScalHFX         ....  0.200000
   Scaling of DF-GGA-X  ScalDFX         ....  0.720000
   Scaling of DF-GGA-C  ScalDFC         ....  0.810000
   Scaling of DF-LDA-C  ScalLDAC        ....  1.000000
   Perturbative correction              ....  0.000000
   NL short-range parameter             ....  4.800000
 RI-approximation to the Coulomb term is turned on
   Number of AuxJ basis functions       .... 1296
   RIJ-COSX (HFX calculated with COS-X)).... on


General Settings:
 Integral files         IntName         .... rf_mecn_1H2O_freq_B3L_con_01
 Hartree-Fock type      HFTyp           .... RHF
 Total Charge           Charge          ....   -1
 Multiplicity           Mult            ....    1
 Number of Electrons    NEL             ....  210
 Basis Dimension        Dim             ....  818
 Nuclear Repulsion      ENuc            ....   3072.6951035719 Eh

Convergence Acceleration:
 AO-DIIS                CNVDIIS         .... on
   Start iteration      DIISMaxIt       ....     0
   Startup error        DIISStart       ....  0.200000
   # of expansion vecs  DIISMaxEq       ....     5
   Bias factor          DIISBfac        ....   1.050
   Max. coefficient     DIISMaxC        ....  10.000
 MO-DIIS                CNVKDIIS        .... off
 Trust-Rad. Augm. Hess. CNVTRAH         .... auto
   Auto Start mean grad. ratio tolernc. ....  1.125000
   Auto Start start iteration           ....    50
   Auto Start num. interpolation iter.  ....    10
   Max. Number of Micro iterations      ....    24
   Max. Number of Macro iterations      .... Maxiter - #DIIS iter
   Number of Davidson start vectors     ....     2
   Converg. threshold    (grad. norm)   ....   1.000e-05
   Grad. Scal. Fac. for Micro threshold ....   0.100
   Minimum threshold for Micro iter.    ....   1.000e-02
   NR start threshold (gradient norm)   ....   1.000e-04
   Initial trust radius                 ....   0.400
   Minimum AH scaling param. (alpha)    ....   1.000
   Maximum AH scaling param. (alpha)    .... 1000.000
   Quad. conv. algorithm                .... NR
   White noise on init. David. guess    .... on
   Maximum white noise                  ....   0.010
   Pseudo random numbers                .... off
   Inactive MOs                         .... canonical
   Orbital update algorithm             .... Taylor
   Preconditioner                       .... Diag
   Full preconditioner red. dimension   ....   250
 SOSCF                  CNVSOSCF        .... on
   Start iteration      SOSCFMaxIt      ....   150
   Startup grad/error   SOSCFStart      ....  0.001000
   Hessian update       SOSCFHessUp     .... L-BFGS
 Level Shifting         CNVShift        .... on
   Level shift para.    LevelShift      ....    0.2500
   Turn off err/grad.   ShiftErr        ....    0.0000
 Zerner damping         CNVZerner       .... off
 Static damping         CNVDamp         .... on
   Fraction old density DampFac         ....    0.8500
   Max. Damping (<1)    DampMax         ....    0.9800
   Min. Damping (>=0)   DampMin         ....    0.0000
   Turn off err/grad.   DampErr         ....    0.0300

SCF Procedure:
 Maximum # iterations   MaxIter         ....  1500
 SCF integral mode      SCFMode         .... Direct
   Integral package                     .... SHARK and LIBINT hybrid scheme
 Reset frequency        DirectResetFreq ....    20
 Integral Threshold     Thresh          ....  2.500e-11 Eh
 Primitive CutOff       TCut            ....  2.500e-12 Eh

Convergence Tolerance:
 Convergence Check Mode ConvCheckMode   .... Total+1el-Energy
 Convergence forced     ConvForced      .... 0
 Energy Change          TolE            ....  1.000e-08 Eh
 1-El. energy change                    ....  1.000e-05 Eh
 Orbital Gradient       TolG            ....  1.000e-05
 Orbital Rotation angle TolX            ....  1.000e-05
 DIIS Error             TolErr          ....  5.000e-07

------------------------------
INITIAL GUESS: MODEL POTENTIAL
------------------------------
Loading Hartree-Fock densities                     ... done
Calculating cut-offs                               ... done
Initializing the effective Hamiltonian             ... done
Setting up the integral package (SHARK)            ... done
Starting the Coulomb interaction                   ... done (   0.2 sec)
Making the grid                                    ... done (   0.5 sec)
Mapping shells                                     ... done
Starting the XC term evaluation                    ... done (   0.2 sec)
  promolecular density results
     # of electrons  =    209.001072460
     EX              =   -217.137124260
     EC              =     -7.844189963
     EX+EC           =   -224.981314222
Transforming the Hamiltonian                       ... done (   0.1 sec)
Diagonalizing the Hamiltonian                      ... done (   0.2 sec)
Back transforming the eigenvectors                 ... done (   0.0 sec)
Now organizing SCF variables                       ... done
                      ------------------
                      INITIAL GUESS DONE (   1.2 sec)
                      ------------------
             **** ENERGY FILE WAS UPDATED (rf_mecn_1H2O_freq_B3L_con_01.en.tmp) ****
Finished Guess after   1.8 sec
Maximum memory used throughout the entire GUESS-calculation: 53.2 MB


           ************************************************************
           *        Program running with 20 parallel MPI-processes    *
           *              working on a common directory               *
           ************************************************************

-------------------------------------------------------------------------------------------
                                      ORCA LEAN-SCF
                              memory conserving SCF solver
-------------------------------------------------------------------------------------------

--------------------
CPCM SOLVATION MODEL
--------------------
CPCM parameters:
  Epsilon                                         ...      35.6880
  Refrac                                          ...       1.3442
  Rsolv                                           ...       1.3000
  Surface type                                    ... GAUSSIAN VDW
  Discretization scheme                           ... Constant charge density
    Threshold for H atoms                         ...       5.0000 (charges/Ang^2)
    Threshold for non-H atoms                     ...       5.0000 (charges/Ang^2)
  Epsilon function type                           ...         CPCM
Solvent:                                          ... ACETONITRILE
SMD-CDS solvent descriptors:
  Soln                                            ...       1.3442
  Soln25                                          ...       1.3416
  Sola                                            ...       0.0700
  Solb                                            ...       0.3200
  Solg                                            ...      41.2500
  Solc                                            ...       0.0000
  Solh                                            ...       0.0000
Radii:
  Scheme                                          ... Element-dependent radii
  Radius for C  used is    3.4960 Bohr (=   1.8500 Ang.)
  Radius for F  used is    3.2692 Bohr (=   1.7300 Ang.)
  Radius for O  used is    4.0969 Bohr (=   2.1680 Ang.)
  Radius for H  used is    2.2677 Bohr (=   1.2000 Ang.)
Calculating surface                               ...        done! (  0.0s)
Cavity surface points                             ...         2369
Cavity Volume                                     ...    2386.8587
Cavity Surface-area                               ...    1228.3033
Calculating surface distance matrix               ...        done! (  0.1s)
Performing Cholesky decomposition & store         ...        done! (  0.1s)
Overall time for CPCM initialization              ...                 0.2s

----------------------------------------D-I-I-S--------------------------------------------
Iteration    Energy (Eh)           Delta-E    RMSDP     MaxDP     DIISErr   Damp  Time(sec)
-------------------------------------------------------------------------------------------
               ***  Starting incremental Fock matrix formation  ***
    1    -2028.9318623192611994     0.00e+00  5.18e-04  5.79e-02  3.51e-01  0.850   6.5
Warning: op=0 Small HOMO/LUMO gap (   0.057) - skipping pre-diagonalization
         Will do a full diagonalization
    2    -2029.1370794377298807    -2.05e-01  6.52e-04  1.27e-01  2.46e-01  0.850   4.0
                               ***Turning on AO-DIIS***
    3    -2029.2491862353026590    -1.12e-01  3.43e-04  7.11e-02  1.54e-01  0.850   3.7
    4    -2029.3166902682933141    -6.75e-02  1.88e-04  3.38e-02  1.16e-01  0.850   3.5
    5    -2029.3647445799033449    -4.81e-02  1.14e-04  1.43e-02  9.49e-02  0.850   3.4
    6    -2029.4027207450571950    -3.80e-02  8.08e-05  5.78e-03  8.04e-02  0.850   3.2
    7    -2029.4341550728713628    -3.14e-02  6.71e-05  4.71e-03  6.89e-02  0.850   3.2
    8    -2029.4605518070065955    -2.64e-02  5.86e-05  4.18e-03  5.85e-02  0.850   3.2
    9    -2029.4825272353491528    -2.20e-02  5.04e-05  3.55e-03  4.88e-02  0.850   3.1
   10    -2029.5007555351521660    -1.82e-02  4.24e-05  2.99e-03  4.04e-02  0.850   3.2
   11    -2029.5159253351730513    -1.52e-02  3.54e-05  2.55e-03  3.36e-02  0.850   3.1
   12    -2029.5286087292952288    -1.27e-02  2.96e-05  2.20e-03  2.82e-02  0.850   3.0
   13    -2029.5392511923428174    -1.06e-02  1.66e-04  1.26e-02  2.36e-02  0.000   3.0
   14    -2029.5973932318902371    -5.81e-02  1.17e-05  1.74e-03  2.19e-03  0.000   3.3
                              *** Initializing SOSCF ***
---------------------------------------S-O-S-C-F--------------------------------------
Iteration    Energy (Eh)           Delta-E    RMSDP     MaxDP     MaxGrad    Time(sec)
--------------------------------------------------------------------------------------
   15    -2029.5974180942703242    -2.49e-05  6.68e-06  1.42e-03  4.16e-04     3.1
               *** Restarting incremental Fock matrix formation ***
   16    -2029.5974325146244155    -1.44e-05  7.48e-06  8.26e-04  8.57e-05     6.1
   17    -2029.5974322705042141     2.44e-07  1.45e-06  1.34e-04  1.21e-04     4.0
   18    -2029.5974327659641858    -4.95e-07  9.34e-07  1.24e-04  1.94e-05     3.2
   19    -2029.5974327653193541     6.45e-10  4.60e-07  3.78e-05  3.61e-05     3.1
                 **** Energy Check signals convergence ****

               *****************************************************
               *                     SUCCESS                       *
               *           SCF CONVERGED AFTER  19 CYCLES          *
               *****************************************************

Recomputing exchange energy using gridx3       ... done (    8.830 sec)
Old exchange energy                            :    -43.602992353 Eh
New exchange energy                            :    -43.603004446 Eh
Exchange energy change after final integration :     -0.000012093 Eh
Total energy after final integration           :  -2029.597444858 Eh

SMD CDS free energy correction energy :                 3.02199     Kcal/mol
Total Energy after SMD CDS correction =             -2029.592629005 Eh
             **** ENERGY FILE WAS UPDATED (rf_mecn_1H2O_freq_B3L_con_01.en.tmp) ****

----------------
TOTAL SCF ENERGY
----------------

Total Energy       :      -2029.59262900513249 Eh          -55228.02317 eV

Components:
Nuclear Repulsion  :       3072.69510357191029 Eh           83612.28453 eV
Electronic Energy  :      -5102.21161696597119 Eh         -138838.23650 eV
One Electron Energy:      -8964.50529776008625 Eh         -243936.59065 eV
Two Electron Energy:       3862.29368079411552 Eh          105098.35415 eV
CPCM Dielectric    :         -0.08091937125920 Eh              -2.20193 eV
SMD CDS (Gcds)     :          0.00481585292577 Eh               0.13105 eV

Virial components:
Potential Energy   :      -4052.31130685002609 Eh         -110268.99663 eV
Kinetic Energy     :       2022.71867784489382 Eh           55040.97345 eV
Virial Ratio       :          2.00339837231718

DFT components:
N(Alpha)           :      104.999964753858 electrons
N(Beta)            :      104.999964753858 electrons
N(Total)           :      209.999929507716 electrons
E(X)               :     -173.770312164985 Eh       
E(C)               :       -9.206416927255 Eh       
E(XC)              :     -182.976729092240 Eh       

CPCM Solvation Model Properties:
Surface-charge          :          0.98987948727330
Corrected charge        :          1.00000000000000
Outlying charge corr.   :          0.00000534145841 Eh               0.00015 eV
Free-energy (cav+disp)  :          0.00481585292577 Eh               0.13105 eV

---------------
SCF CONVERGENCE
---------------

  Last Energy change         ...   -6.4483e-10  Tolerance :   1.0000e-08
  Last MAX-Density change    ...    3.7846e-05  Tolerance :   1.0000e-07
  Last RMS-Density change    ...    4.6035e-07  Tolerance :   5.0000e-09
  Last DIIS Error            ...    4.1599e-04  Tolerance :   5.0000e-07
  Last Orbital Gradient      ...    3.6051e-05  Tolerance :   1.0000e-05
  Last Orbital Rotation      ...    3.9031e-05  Tolerance :   1.0000e-05


----------------
ORBITAL ENERGIES
----------------

  NO   OCC          E(Eh)            E(eV) 
   0   2.0000     -24.744791      -673.3400 
   1   2.0000     -24.743672      -673.3095 
   2   2.0000     -24.743670      -673.3095 
   3   2.0000     -24.743265      -673.2985 
   4   2.0000     -24.743131      -673.2948 
   5   2.0000     -24.743111      -673.2943 
   6   2.0000     -24.742264      -673.2712 
   7   2.0000     -24.740781      -673.2309 
   8   2.0000     -24.740483      -673.2228 
   9   2.0000     -24.735786      -673.0950 
  10   2.0000     -24.735282      -673.0812 
  11   2.0000     -24.725489      -672.8148 
  12   2.0000     -24.725199      -672.8069 
  13   2.0000     -24.702246      -672.1823 
  14   2.0000     -24.702162      -672.1800 
  15   2.0000     -19.086086      -519.3588 
  16   2.0000     -19.073757      -519.0233 
  17   2.0000     -19.070502      -518.9348 
  18   2.0000     -10.461150      -284.6624 
  19   2.0000     -10.408248      -283.2228 
  20   2.0000     -10.407174      -283.1936 
  21   2.0000     -10.405307      -283.1428 
  22   2.0000     -10.398775      -282.9651 
  23   2.0000     -10.384257      -282.5700 
  24   2.0000     -10.349246      -281.6173 
  25   2.0000     -10.264703      -279.3168 
  26   2.0000      -1.353709       -36.8363 
  27   2.0000      -1.330599       -36.2074 
  28   2.0000      -1.315719       -35.8025 
  29   2.0000      -1.307549       -35.5802 
  30   2.0000      -1.304182       -35.4886 
  31   2.0000      -1.293721       -35.2039 
  32   2.0000      -1.267546       -34.4917 
  33   2.0000      -1.267045       -34.4780 
  34   2.0000      -1.260731       -34.3062 
  35   2.0000      -1.260148       -34.2904 
  36   2.0000      -1.253621       -34.1128 
  37   2.0000      -1.250127       -34.0177 
  38   2.0000      -1.246442       -33.9174 
  39   2.0000      -1.235879       -33.6300 
  40   2.0000      -1.209611       -32.9152 
  41   2.0000      -1.036231       -28.1973 
  42   2.0000      -0.971337       -26.4314 
  43   2.0000      -0.952069       -25.9071 
  44   2.0000      -0.847089       -23.0505 
  45   2.0000      -0.825929       -22.4747 
  46   2.0000      -0.797222       -21.6935 
  47   2.0000      -0.760036       -20.6816 
  48   2.0000      -0.718569       -19.5532 
  49   2.0000      -0.690171       -18.7805 
  50   2.0000      -0.672503       -18.2997 
  51   2.0000      -0.651240       -17.7211 
  52   2.0000      -0.646329       -17.5875 
  53   2.0000      -0.638330       -17.3699 
  54   2.0000      -0.630348       -17.1527 
  55   2.0000      -0.626445       -17.0464 
  56   2.0000      -0.624378       -16.9902 
  57   2.0000      -0.611981       -16.6529 
  58   2.0000      -0.608945       -16.5702 
  59   2.0000      -0.604982       -16.4624 
  60   2.0000      -0.597161       -16.2496 
  61   2.0000      -0.585903       -15.9432 
  62   2.0000      -0.584403       -15.9024 
  63   2.0000      -0.577963       -15.7272 
  64   2.0000      -0.570155       -15.5147 
  65   2.0000      -0.554436       -15.0870 
  66   2.0000      -0.517513       -14.0822 
  67   2.0000      -0.513903       -13.9840 
  68   2.0000      -0.508379       -13.8337 
  69   2.0000      -0.505637       -13.7591 
  70   2.0000      -0.503353       -13.6969 
  71   2.0000      -0.500569       -13.6212 
  72   2.0000      -0.497164       -13.5285 
  73   2.0000      -0.493286       -13.4230 
  74   2.0000      -0.487589       -13.2680 
  75   2.0000      -0.483593       -13.1592 
  76   2.0000      -0.480819       -13.0838 
  77   2.0000      -0.477834       -13.0025 
  78   2.0000      -0.471744       -12.8368 
  79   2.0000      -0.469944       -12.7878 
  80   2.0000      -0.463626       -12.6159 
  81   2.0000      -0.461917       -12.5694 
  82   2.0000      -0.460184       -12.5222 
  83   2.0000      -0.453479       -12.3398 
  84   2.0000      -0.452601       -12.3159 
  85   2.0000      -0.449374       -12.2281 
  86   2.0000      -0.445049       -12.1104 
  87   2.0000      -0.444169       -12.0864 
  88   2.0000      -0.441384       -12.0107 
  89   2.0000      -0.439866       -11.9694 
  90   2.0000      -0.435586       -11.8529 
  91   2.0000      -0.435092       -11.8395 
  92   2.0000      -0.427732       -11.6392 
  93   2.0000      -0.419494       -11.4150 
  94   2.0000      -0.416615       -11.3367 
  95   2.0000      -0.412217       -11.2170 
  96   2.0000      -0.403684       -10.9848 
  97   2.0000      -0.394725       -10.7410 
  98   2.0000      -0.375079       -10.2064 
  99   2.0000      -0.353802        -9.6274 
 100   2.0000      -0.344198        -9.3661 
 101   2.0000      -0.283710        -7.7201 
 102   2.0000      -0.261084        -7.1045 
 103   2.0000      -0.251627        -6.8471 
 104   2.0000      -0.246613        -6.7107 
 105   0.0000      -0.009925        -0.2701 
 106   0.0000       0.004602         0.1252 
 107   0.0000       0.023552         0.6409 
 108   0.0000       0.049019         1.3339 
 109   0.0000       0.055379         1.5069 
 110   0.0000       0.063497         1.7279 
 111   0.0000       0.094141         2.5617 
 112   0.0000       0.100886         2.7452 
 113   0.0000       0.101476         2.7613 
 114   0.0000       0.113804         3.0968 
 115   0.0000       0.129842         3.5332 
*Only the first 10 virtual orbitals were printed.

                    ********************************
                    * MULLIKEN POPULATION ANALYSIS *
                    ********************************

-----------------------
MULLIKEN ATOMIC CHARGES
-----------------------
   0 C :    0.476149
   1 C :    0.323800
   2 C :    0.312331
   3 C :    0.332182
   4 C :    0.334971
   5 C :    0.310450
   6 C :    0.342649
   7 C :    0.188597
   8 F :   -0.155053
   9 F :   -0.152605
  10 F :   -0.152602
  11 F :   -0.165619
  12 F :   -0.162673
  13 F :   -0.168449
  14 F :   -0.167792
  15 F :   -0.169502
  16 F :   -0.169847
  17 F :   -0.173972
  18 F :   -0.175153
  19 F :   -0.188396
  20 F :   -0.181872
  21 F :   -0.212749
  22 F :   -0.206954
  23 O :   -0.450105
  24 O :   -0.517607
  25 O :   -0.729885
  26 H :    0.325360
  27 H :    0.354345
Sum of atomic charges:   -1.0000000

--------------------------------
MULLIKEN REDUCED ORBITAL CHARGES
--------------------------------
  0 C s       :     3.023959  s :     3.023959
      pz      :     0.647781  p :     2.114499
      px      :     0.676651
      py      :     0.790068
      dz2     :     0.072013  d :     0.344972
      dxz     :     0.070453
      dyz     :     0.072538
      dx2y2   :     0.069023
      dxy     :     0.060946
      f0      :     0.007775  f :     0.040421
      f+1     :     0.006548
      f-1     :     0.004476
      f+2     :     0.004205
      f-2     :     0.007646
      f+3     :     0.004523
      f-3     :     0.005249

  1 C s       :     3.129173  s :     3.129173
      pz      :     0.612834  p :     2.239256
      px      :     0.731003
      py      :     0.895419
      dz2     :     0.075428  d :     0.279660
      dxz     :     0.054852
      dyz     :     0.057303
      dx2y2   :     0.036489
      dxy     :     0.055589
      f0      :     0.005881  f :     0.028111
      f+1     :     0.004768
      f-1     :     0.002884
      f+2     :     0.005292
      f-2     :     0.004800
      f+3     :     0.002375
      f-3     :     0.002111

  2 C s       :     3.152371  s :     3.152371
      pz      :     0.591401  p :     2.221408
      px      :     0.712595
      py      :     0.917412
      dz2     :     0.073679  d :     0.285795
      dxz     :     0.056255
      dyz     :     0.063940
      dx2y2   :     0.033132
      dxy     :     0.058789
      f0      :     0.005554  f :     0.028095
      f+1     :     0.005636
      f-1     :     0.003589
      f+2     :     0.004040
      f-2     :     0.004803
      f+3     :     0.002166
      f-3     :     0.002307

  3 C s       :     3.148891  s :     3.148891
      pz      :     0.636771  p :     2.206201
      px      :     0.686105
      py      :     0.883325
      dz2     :     0.064765  d :     0.284679
      dxz     :     0.068656
      dyz     :     0.052912
      dx2y2   :     0.038741
      dxy     :     0.059605
      f0      :     0.004592  f :     0.028046
      f+1     :     0.007226
      f-1     :     0.003316
      f+2     :     0.003253
      f-2     :     0.003500
      f+3     :     0.002803
      f-3     :     0.003356

  4 C s       :     3.151441  s :     3.151441
      pz      :     0.640159  p :     2.203925
      px      :     0.655121
      py      :     0.908645
      dz2     :     0.049338  d :     0.281740
      dxz     :     0.074827
      dyz     :     0.059790
      dx2y2   :     0.040523
      dxy     :     0.057262
      f0      :     0.004941  f :     0.027923
      f+1     :     0.006320
      f-1     :     0.004436
      f+2     :     0.003240
      f-2     :     0.001946
      f+3     :     0.002453
      f-3     :     0.004588

  5 C s       :     3.155471  s :     3.155471
      pz      :     0.706213  p :     2.229677
      px      :     0.613312
      py      :     0.910151
      dz2     :     0.052507  d :     0.276660
      dxz     :     0.068469
      dyz     :     0.046949
      dx2y2   :     0.048684
      dxy     :     0.060050
      f0      :     0.005852  f :     0.027743
      f+1     :     0.003774
      f-1     :     0.003521
      f+2     :     0.005142
      f-2     :     0.002009
      f+3     :     0.002353
      f-3     :     0.005091

  6 C s       :     3.130144  s :     3.130144
      pz      :     0.694400  p :     2.249426
      px      :     0.583023
      py      :     0.972003
      dz2     :     0.046922  d :     0.251255
      dxz     :     0.052768
      dyz     :     0.047510
      dx2y2   :     0.049813
      dxy     :     0.054242
      f0      :     0.004417  f :     0.026526
      f+1     :     0.004548
      f-1     :     0.002322
      f+2     :     0.004201
      f-2     :     0.003988
      f+3     :     0.003176
      f-3     :     0.003875

  7 C s       :     3.058636  s :     3.058636
      pz      :     0.828749  p :     2.476777
      px      :     0.756698
      py      :     0.891330
      dz2     :     0.011518  d :     0.250963
      dxz     :     0.074772
      dyz     :     0.015506
      dx2y2   :     0.073986
      dxy     :     0.075180
      f0      :     0.002298  f :     0.025027
      f+1     :     0.002631
      f-1     :     0.001178
      f+2     :     0.002525
      f-2     :     0.003100
      f+3     :     0.008291
      f-3     :     0.005003

  8 F s       :     3.912306  s :     3.912306
      pz      :     1.706932  p :     5.225344
      px      :     1.650822
      py      :     1.867589
      dz2     :     0.002856  d :     0.016647
      dxz     :     0.006343
      dyz     :     0.001952
      dx2y2   :     0.002787
      dxy     :     0.002708
      f0      :     0.000086  f :     0.000757
      f+1     :     0.000190
      f-1     :     0.000033
      f+2     :     0.000179
      f-2     :     0.000139
      f+3     :     0.000060
      f-3     :     0.000070

  9 F s       :     3.910908  s :     3.910908
      pz      :     1.522336  p :     5.224120
      px      :     1.814541
      py      :     1.887243
      dz2     :     0.006445  d :     0.016806
      dxz     :     0.005328
      dyz     :     0.003378
      dx2y2   :     0.000737
      dxy     :     0.000918
      f0      :     0.000210  f :     0.000770
      f+1     :     0.000267
      f-1     :     0.000125
      f+2     :     0.000070
      f-2     :     0.000082
      f+3     :     0.000007
      f-3     :     0.000009

 10 F s       :     3.911348  s :     3.911348
      pz      :     1.891900  p :     5.223783
      px      :     1.711798
      py      :     1.620084
      dz2     :     0.002396  d :     0.016704
      dxz     :     0.001569
      dyz     :     0.002059
      dx2y2   :     0.003810
      dxy     :     0.006870
      f0      :     0.000064  f :     0.000767
      f+1     :     0.000073
      f-1     :     0.000096
      f+2     :     0.000011
      f-2     :     0.000105
      f+3     :     0.000225
      f-3     :     0.000192

 11 F s       :     3.916258  s :     3.916258
      pz      :     1.653323  p :     5.232119
      px      :     1.709670
      py      :     1.869126
      dz2     :     0.003463  d :     0.016531
      dxz     :     0.006029
      dyz     :     0.002759
      dx2y2   :     0.001959
      dxy     :     0.002320
      f0      :     0.000085  f :     0.000712
      f+1     :     0.000208
      f-1     :     0.000064
      f+2     :     0.000132
      f-2     :     0.000148
      f+3     :     0.000032
      f-3     :     0.000042

 12 F s       :     3.913991  s :     3.913991
      pz      :     1.604183  p :     5.231282
      px      :     1.751590
      py      :     1.875509
      dz2     :     0.004399  d :     0.016673
      dxz     :     0.005813
      dyz     :     0.003158
      dx2y2   :     0.001473
      dxy     :     0.001830
      f0      :     0.000110  f :     0.000726
      f+1     :     0.000233
      f-1     :     0.000092
      f+2     :     0.000111
      f-2     :     0.000135
      f+3     :     0.000020
      f-3     :     0.000026

 13 F s       :     3.916795  s :     3.916795
      pz      :     1.533624  p :     5.234324
      px      :     1.809247
      py      :     1.891453
      dz2     :     0.006011  d :     0.016616
      dxz     :     0.005137
      dyz     :     0.003506
      dx2y2   :     0.000875
      dxy     :     0.001087
      f0      :     0.000184  f :     0.000713
      f+1     :     0.000239
      f-1     :     0.000118
      f+2     :     0.000070
      f-2     :     0.000086
      f+3     :     0.000008
      f-3     :     0.000009

 14 F s       :     3.916730  s :     3.916730
      pz      :     1.687788  p :     5.233718
      px      :     1.641392
      py      :     1.904538
      dz2     :     0.002916  d :     0.016629
      dxz     :     0.006697
      dyz     :     0.001822
      dx2y2   :     0.002829
      dxy     :     0.002366
      f0      :     0.000080  f :     0.000714
      f+1     :     0.000209
      f-1     :     0.000019
      f+2     :     0.000192
      f-2     :     0.000108
      f+3     :     0.000053
      f-3     :     0.000052

 15 F s       :     3.916232  s :     3.916232
      pz      :     1.494883  p :     5.235963
      px      :     1.879202
      py      :     1.861877
      dz2     :     0.007234  d :     0.016593
      dxz     :     0.003376
      dyz     :     0.004805
      dx2y2   :     0.000589
      dxy     :     0.000588
      f0      :     0.000253  f :     0.000714
      f+1     :     0.000138
      f-1     :     0.000219
      f+2     :     0.000046
      f-2     :     0.000050
      f+3     :     0.000004
      f-3     :     0.000003

 16 F s       :     3.916240  s :     3.916240
      pz      :     1.813235  p :     5.236332
      px      :     1.526640
      py      :     1.896457
      dz2     :     0.002122  d :     0.016563
      dxz     :     0.005343
      dyz     :     0.000857
      dx2y2   :     0.004750
      dxy     :     0.003491
      f0      :     0.000080  f :     0.000712
      f+1     :     0.000123
      f-1     :     0.000007
      f+2     :     0.000181
      f-2     :     0.000074
      f+3     :     0.000129
      f-3     :     0.000118

 17 F s       :     3.915148  s :     3.915148
      pz      :     1.460186  p :     5.241652
      px      :     1.887665
      py      :     1.893801
      dz2     :     0.008250  d :     0.016461
      dxz     :     0.003394
      dyz     :     0.004207
      dx2y2   :     0.000348
      dxy     :     0.000262
      f0      :     0.000324  f :     0.000711
      f+1     :     0.000155
      f-1     :     0.000185
      f+2     :     0.000024
      f-2     :     0.000019
      f+3     :     0.000002
      f-3     :     0.000002

 18 F s       :     3.915570  s :     3.915570
      pz      :     1.872601  p :     5.242447
      px      :     1.463896
      py      :     1.905950
      dz2     :     0.002180  d :     0.016430
      dxz     :     0.003958
      dyz     :     0.000309
      dx2y2   :     0.006166
      dxy     :     0.003818
      f0      :     0.000068  f :     0.000707
      f+1     :     0.000128
      f-1     :     0.000009
      f+2     :     0.000131
      f-2     :     0.000021
      f+3     :     0.000204
      f-3     :     0.000145

 19 F s       :     3.915370  s :     3.915370
      pz      :     1.540109  p :     5.256324
      px      :     1.837108
      py      :     1.879106
      dz2     :     0.005818  d :     0.016010
      dxz     :     0.004446
      dyz     :     0.003932
      dx2y2   :     0.000923
      dxy     :     0.000891
      f0      :     0.000171  f :     0.000692
      f+1     :     0.000203
      f-1     :     0.000145
      f+2     :     0.000073
      f-2     :     0.000083
      f+3     :     0.000009
      f-3     :     0.000009

 20 F s       :     3.919042  s :     3.919042
      pz      :     1.892463  p :     5.245906
      px      :     1.445941
      py      :     1.907502
      dz2     :     0.002282  d :     0.016224
      dxz     :     0.003417
      dyz     :     0.000172
      dx2y2   :     0.006560
      dxy     :     0.003793
      f0      :     0.000059  f :     0.000701
      f+1     :     0.000142
      f-1     :     0.000011
      f+2     :     0.000098
      f-2     :     0.000008
      f+3     :     0.000233
      f-3     :     0.000149

 21 F s       :     3.911666  s :     3.911666
      pz      :     1.611000  p :     5.285221
      px      :     1.760997
      py      :     1.913224
      dz2     :     0.003973  d :     0.015198
      dxz     :     0.005815
      dyz     :     0.002568
      dx2y2   :     0.001535
      dxy     :     0.001307
      f0      :     0.000095  f :     0.000665
      f+1     :     0.000243
      f-1     :     0.000060
      f+2     :     0.000133
      f-2     :     0.000092
      f+3     :     0.000024
      f-3     :     0.000018

 22 F s       :     3.909424  s :     3.909424
      pz      :     1.859379  p :     5.281378
      px      :     1.528308
      py      :     1.893691
      dz2     :     0.001902  d :     0.015480
      dxz     :     0.003942
      dyz     :     0.000613
      dx2y2   :     0.005136
      dxy     :     0.003886
      f0      :     0.000065  f :     0.000672
      f+1     :     0.000105
      f-1     :     0.000007
      f+2     :     0.000124
      f-2     :     0.000055
      f+3     :     0.000166
      f-3     :     0.000150

 23 O s       :     3.770509  s :     3.770509
      pz      :     1.525428  p :     4.650235
      px      :     1.472003
      py      :     1.652804
      dz2     :     0.003074  d :     0.027661
      dxz     :     0.007211
      dyz     :     0.002163
      dx2y2   :     0.007239
      dxy     :     0.007973
      f0      :     0.000156  f :     0.001699
      f+1     :     0.000210
      f-1     :     0.000060
      f+2     :     0.000156
      f-2     :     0.000258
      f+3     :     0.000465
      f-3     :     0.000396

 24 O s       :     3.805202  s :     3.805202
      pz      :     1.586281  p :     4.686037
      px      :     1.358143
      py      :     1.741613
      dz2     :     0.002512  d :     0.024732
      dxz     :     0.007292
      dyz     :     0.001221
      dx2y2   :     0.006494
      dxy     :     0.007214
      f0      :     0.000174  f :     0.001637
      f+1     :     0.000213
      f-1     :     0.000038
      f+2     :     0.000251
      f-2     :     0.000120
      f+3     :     0.000427
      f-3     :     0.000413

 25 O s       :     3.795368  s :     3.795368
      pz      :     1.919737  p :     4.914386
      px      :     1.475829
      py      :     1.518820
      dz2     :     0.003353  d :     0.018909
      dxz     :     0.001500
      dyz     :     0.001878
      dx2y2   :     0.008471
      dxy     :     0.003707
      f0      :     0.000217  f :     0.001223
      f+1     :     0.000215
      f-1     :     0.000244
      f+2     :     0.000143
      f-2     :     0.000061
      f+3     :     0.000334
      f-3     :     0.000008

 26 H s       :     0.627741  s :     0.627741
      pz      :     0.015873  p :     0.046899
      px      :     0.012672
      py      :     0.018355

 27 H s       :     0.591788  s :     0.591788
      pz      :     0.015230  p :     0.053866
      px      :     0.028249
      py      :     0.010387



                     *******************************
                     * LOEWDIN POPULATION ANALYSIS *
                     *******************************

----------------------
LOEWDIN ATOMIC CHARGES
----------------------
   0 C :   -0.664204
   1 C :   -0.463253
   2 C :   -0.456852
   3 C :   -0.454582
   4 C :   -0.453695
   5 C :   -0.453984
   6 C :   -0.439874
   7 C :   -0.669400
   8 F :    0.225325
   9 F :    0.226986
  10 F :    0.225673
  11 F :    0.223447
  12 F :    0.224685
  13 F :    0.224673
  14 F :    0.224433
  15 F :    0.223324
  16 F :    0.222517
  17 F :    0.218247
  18 F :    0.217269
  19 F :    0.205396
  20 F :    0.214035
  21 F :    0.163977
  22 F :    0.171667
  23 O :   -0.026030
  24 O :   -0.053170
  25 O :   -0.370565
  26 H :    0.155038
  27 H :    0.138915

-------------------------------
LOEWDIN REDUCED ORBITAL CHARGES
-------------------------------
  0 C s       :     2.758705  s :     2.758705
      pz      :     0.794508  p :     2.510754
      px      :     0.819205
      py      :     0.897040
      dz2     :     0.247818  d :     1.138225
      dxz     :     0.264722
      dyz     :     0.191517
      dx2y2   :     0.185421
      dxy     :     0.248746
      f0      :     0.044391  f :     0.256521
      f+1     :     0.045301
      f-1     :     0.031212
      f+2     :     0.031532
      f-2     :     0.041763
      f+3     :     0.030112
      f-3     :     0.032211

  1 C s       :     2.764592  s :     2.764592
      pz      :     0.765863  p :     2.604321
      px      :     0.854332
      py      :     0.984126
      dz2     :     0.211804  d :     0.915399
      dxz     :     0.231492
      dyz     :     0.165589
      dx2y2   :     0.107024
      dxy     :     0.199490
      f0      :     0.032863  f :     0.178941
      f+1     :     0.036308
      f-1     :     0.020887
      f+2     :     0.034414
      f-2     :     0.028228
      f+3     :     0.013511
      f-3     :     0.012730

  2 C s       :     2.761208  s :     2.761208
      pz      :     0.746046  p :     2.600344
      px      :     0.851468
      py      :     1.002829
      dz2     :     0.232554  d :     0.916430
      dxz     :     0.229873
      dyz     :     0.147054
      dx2y2   :     0.116706
      dxy     :     0.190243
      f0      :     0.032706  f :     0.178870
      f+1     :     0.039444
      f-1     :     0.023763
      f+2     :     0.030745
      f-2     :     0.026736
      f+3     :     0.012466
      f-3     :     0.013010

  3 C s       :     2.761641  s :     2.761641
      pz      :     0.787385  p :     2.599686
      px      :     0.830764
      py      :     0.981538
      dz2     :     0.216748  d :     0.914597
      dxz     :     0.208581
      dyz     :     0.163228
      dx2y2   :     0.143168
      dxy     :     0.182872
      f0      :     0.032548  f :     0.178657
      f+1     :     0.039299
      f-1     :     0.023765
      f+2     :     0.025712
      f-2     :     0.020062
      f+3     :     0.017911
      f-3     :     0.019361

  4 C s       :     2.762406  s :     2.762406
      pz      :     0.791461  p :     2.600156
      px      :     0.801600
      py      :     1.007096
      dz2     :     0.215862  d :     0.912971
      dxz     :     0.200189
      dyz     :     0.160785
      dx2y2   :     0.175612
      dxy     :     0.160524
      f0      :     0.035245  f :     0.178162
      f+1     :     0.037227
      f-1     :     0.026285
      f+2     :     0.021616
      f-2     :     0.013997
      f+3     :     0.018886
      f-3     :     0.024905

  5 C s       :     2.763892  s :     2.763892
      pz      :     0.843129  p :     2.600984
      px      :     0.764749
      py      :     0.993106
      dz2     :     0.192583  d :     0.912055
      dxz     :     0.196165
      dyz     :     0.162141
      dx2y2   :     0.206417
      dxy     :     0.154749
      f0      :     0.033260  f :     0.177053
      f+1     :     0.031804
      f-1     :     0.020731
      f+2     :     0.027010
      f-2     :     0.015203
      f+3     :     0.020674
      f-3     :     0.028371

  6 C s       :     2.781777  s :     2.781777
      pz      :     0.830396  p :     2.605413
      px      :     0.731128
      py      :     1.043889
      dz2     :     0.153963  d :     0.881475
      dxz     :     0.214565
      dyz     :     0.172873
      dx2y2   :     0.197157
      dxy     :     0.142918
      f0      :     0.027013  f :     0.171209
      f+1     :     0.035097
      f-1     :     0.013606
      f+2     :     0.025459
      f-2     :     0.024034
      f+3     :     0.021592
      f-3     :     0.024408

  7 C s       :     2.772661  s :     2.772661
      pz      :     0.801890  p :     2.723543
      px      :     1.000484
      py      :     0.921169
      dz2     :     0.071510  d :     1.020051
      dxz     :     0.239639
      dyz     :     0.070317
      dx2y2   :     0.355081
      dxy     :     0.283503
      f0      :     0.009983  f :     0.153145
      f+1     :     0.019295
      f-1     :     0.005296
      f+2     :     0.012846
      f-2     :     0.023761
      f+3     :     0.053580
      f-3     :     0.028384

  8 F s       :     3.594896  s :     3.594896
      pz      :     1.697764  p :     5.147298
      px      :     1.657594
      py      :     1.791941
      dz2     :     0.004936  d :     0.030836
      dxz     :     0.012380
      dyz     :     0.003529
      dx2y2   :     0.004737
      dxy     :     0.005254
      f0      :     0.000197  f :     0.001645
      f+1     :     0.000402
      f-1     :     0.000071
      f+2     :     0.000371
      f-2     :     0.000312
      f+3     :     0.000123
      f-3     :     0.000169

  9 F s       :     3.593677  s :     3.593677
      pz      :     1.575795  p :     5.146598
      px      :     1.762338
      py      :     1.808465
      dz2     :     0.012139  d :     0.031073
      dxz     :     0.010184
      dyz     :     0.006011
      dx2y2   :     0.001171
      dxy     :     0.001569
      f0      :     0.000443  f :     0.001666
      f+1     :     0.000564
      f-1     :     0.000283
      f+2     :     0.000146
      f-2     :     0.000198
      f+3     :     0.000012
      f-3     :     0.000020

 10 F s       :     3.595056  s :     3.595056
      pz      :     1.813757  p :     5.146647
      px      :     1.700814
      py      :     1.632077
      dz2     :     0.004602  d :     0.030959
      dxz     :     0.002602
      dyz     :     0.003121
      dx2y2   :     0.007146
      dxy     :     0.013488
      f0      :     0.000142  f :     0.001665
      f+1     :     0.000144
      f-1     :     0.000201
      f+2     :     0.000020
      f-2     :     0.000233
      f+3     :     0.000481
      f-3     :     0.000443

 11 F s       :     3.592768  s :     3.592768
      pz      :     1.661836  p :     5.151118
      px      :     1.689427
      py      :     1.799855
      dz2     :     0.006094  d :     0.031102
      dxz     :     0.011574
      dyz     :     0.005375
      dx2y2   :     0.003475
      dxy     :     0.004584
      f0      :     0.000205  f :     0.001564
      f+1     :     0.000416
      f-1     :     0.000141
      f+2     :     0.000289
      f-2     :     0.000338
      f+3     :     0.000074
      f-3     :     0.000102

 12 F s       :     3.591773  s :     3.591773
      pz      :     1.629931  p :     5.150588
      px      :     1.716922
      py      :     1.803735
      dz2     :     0.007859  d :     0.031365
      dxz     :     0.011187
      dyz     :     0.006235
      dx2y2   :     0.002555
      dxy     :     0.003528
      f0      :     0.000261  f :     0.001589
      f+1     :     0.000463
      f-1     :     0.000202
      f+2     :     0.000242
      f-2     :     0.000317
      f+3     :     0.000043
      f-3     :     0.000062

 13 F s       :     3.591489  s :     3.591489
      pz      :     1.583454  p :     5.151039
      px      :     1.756011
      py      :     1.811575
      dz2     :     0.010920  d :     0.031234
      dxz     :     0.009740
      dyz     :     0.007188
      dx2y2   :     0.001338
      dxy     :     0.002047
      f0      :     0.000399  f :     0.001565
      f+1     :     0.000484
      f-1     :     0.000279
      f+2     :     0.000150
      f-2     :     0.000215
      f+3     :     0.000018
      f-3     :     0.000020

 14 F s       :     3.591613  s :     3.591613
      pz      :     1.685056  p :     5.151112
      px      :     1.645398
      py      :     1.820658
      dz2     :     0.004940  d :     0.031275
      dxz     :     0.012717
      dyz     :     0.003793
      dx2y2   :     0.005155
      dxy     :     0.004670
      f0      :     0.000189  f :     0.001567
      f+1     :     0.000417
      f-1     :     0.000045
      f+2     :     0.000380
      f-2     :     0.000288
      f+3     :     0.000102
      f-3     :     0.000146

 15 F s       :     3.591328  s :     3.591328
      pz      :     1.555640  p :     5.152546
      px      :     1.803935
      py      :     1.792971
      dz2     :     0.013855  d :     0.031236
      dxz     :     0.005857
      dyz     :     0.009501
      dx2y2   :     0.001046
      dxy     :     0.000977
      f0      :     0.000541  f :     0.001565
      f+1     :     0.000314
      f-1     :     0.000471
      f+2     :     0.000105
      f-2     :     0.000117
      f+3     :     0.000012
      f-3     :     0.000004

 16 F s       :     3.591638  s :     3.591638
      pz      :     1.765650  p :     5.153093
      px      :     1.571365
      py      :     1.816078
      dz2     :     0.003886  d :     0.031190
      dxz     :     0.009630
      dyz     :     0.001650
      dx2y2   :     0.009085
      dxy     :     0.006939
      f0      :     0.000152  f :     0.001562
      f+1     :     0.000290
      f-1     :     0.000017
      f+2     :     0.000358
      f-2     :     0.000181
      f+3     :     0.000256
      f-3     :     0.000308

 17 F s       :     3.592226  s :     3.592226
      pz      :     1.530167  p :     5.156970
      px      :     1.812476
      py      :     1.814328
      dz2     :     0.015875  d :     0.031005
      dxz     :     0.005497
      dyz     :     0.008646
      dx2y2   :     0.000569
      dxy     :     0.000418
      f0      :     0.000660  f :     0.001553
      f+1     :     0.000331
      f-1     :     0.000453
      f+2     :     0.000066
      f-2     :     0.000036
      f+3     :     0.000003
      f-3     :     0.000004

 18 F s       :     3.592345  s :     3.592345
      pz      :     1.803954  p :     5.157840
[...]
 24:    213.16   0.001257    6.35  0.001840  (-0.038324 -0.007778  0.017633)
 25:    233.84   0.000338    1.71  0.000451  ( 0.020127  0.005841  0.003467)
 26:    245.44   0.000009    0.04  0.000011  (-0.000155  0.003015 -0.001337)
 27:    255.78   0.000239    1.21  0.000292  ( 0.015701 -0.005657  0.003674)
 28:    258.14   0.000451    2.28  0.000545  ( 0.023060  0.003385  0.001179)
 29:    266.69   0.001841    9.30  0.002154  ( 0.042219  0.014210  0.013039)
 30:    286.78   0.001219    6.16  0.001326  ( 0.012158 -0.032988 -0.009488)
 31:    303.09   0.000036    0.18  0.000037  ( 0.000949 -0.003392  0.005005)
 32:    311.86   0.000211    1.07  0.000211  (-0.013223  0.002206  0.005582)
 33:    333.64   0.000174    0.88  0.000163  ( 0.005868  0.007827  0.008177)
 34:    347.20   0.000455    2.30  0.000409  (-0.007235 -0.006580 -0.017707)
 35:    358.66   0.000136    0.69  0.000118  ( 0.001658  0.003415 -0.010198)
 36:    364.00   0.000695    3.51  0.000596  ( 0.015585  0.017643  0.006461)
 37:    368.93   0.002055   10.38  0.001738  (-0.027705 -0.028132 -0.013381)
 38:    369.52   0.001705    8.61  0.001440  ( 0.029929  0.020532  0.011057)
 39:    377.69   0.000094    0.48  0.000078  ( 0.002127 -0.008502 -0.001128)
 40:    398.02   0.010613   53.63  0.008321  ( 0.081823  0.027562  0.029428)
 41:    413.86   0.006148   31.07  0.004636  ( 0.060782  0.024989  0.017805)
 42:    463.42   0.001401    7.08  0.000943  (-0.013130 -0.011721 -0.025169)
 43:    508.37   0.008143   41.15  0.004998  (-0.001761  0.065517  0.026511)
 44:    524.62   0.008132   41.10  0.004837  (-0.032741  0.058670  0.017978)
 45:    538.91   0.009387   47.44  0.005436  ( 0.005088 -0.056787 -0.046745)
 46:    554.55   0.011962   60.45  0.006732  ( 0.033729  0.074652 -0.004576)
 47:    555.71   0.001555    7.86  0.000873  (-0.020851  0.008654  0.019073)
 48:    577.52   0.001090    5.51  0.000589  (-0.016381  0.011781 -0.013484)
 49:    595.97   0.003033   15.33  0.001588  (-0.000601 -0.037158 -0.014384)
 50:    610.18   0.000286    1.45  0.000146  (-0.010465  0.002603  0.005490)
 51:    640.12   0.026079  131.79  0.012714  ( 0.006005  0.108631  0.029614)
 52:    660.60   0.022080  111.59  0.010431  (-0.009993  0.100170  0.017229)
 53:    682.56   0.000863    4.36  0.000395  ( 0.003666  0.018818  0.005210)
 54:    689.23   0.025680  129.77  0.011627  ( 0.038266  0.002617 -0.100777)
 55:    719.26   0.000499    2.52  0.000217  (-0.006457  0.011693 -0.006180)
 56:    726.82   0.004584   23.17  0.001968  (-0.001264  0.041067  0.016739)
 57:    768.57   0.001039    5.25  0.000422  ( 0.012408 -0.016251  0.001905)
 58:    802.22   0.019431   98.20  0.007559  (-0.006436 -0.071366  0.049235)
 59:    873.66   0.004125   20.85  0.001473  (-0.005619  0.037922  0.001958)
 60:   1000.18   0.009578   48.41  0.002989  ( 0.001081 -0.044421 -0.031846)
 61:   1090.11   0.017063   86.23  0.004885  ( 0.049161  0.045336 -0.020309)
 62:   1099.89   0.048149  243.32  0.013661  ( 0.089045 -0.007977  0.075287)
 63:   1116.41   0.022568  114.05  0.006308  ( 0.020651  0.002211 -0.076661)
 64:   1118.34   0.006699   33.85  0.001869  ( 0.005101  0.007149 -0.042334)
 65:   1128.22   0.048962  247.43  0.013543  ( 0.094574  0.039208 -0.055329)
 66:   1136.91   0.117903  595.83  0.032362  (-0.178788 -0.013134  0.014996)
 67:   1146.85   0.060312  304.79  0.016411  (-0.066520  0.008908 -0.109119)
 68:   1148.65   0.008135   41.11  0.002210  ( 0.045815  0.006322 -0.008434)
 69:   1155.38   0.128967  651.75  0.034833  ( 0.058198 -0.041334  0.172447)
 70:   1160.97   0.079404  401.28  0.021343  ( 0.128227 -0.025325 -0.065269)
 71:   1170.11   0.072303  365.39  0.019283  ( 0.044293 -0.053405  0.120287)
 72:   1184.11   0.044344  224.10  0.011686  ( 0.012098  0.032678 -0.102334)
 73:   1194.07   0.008718   44.06  0.002279  ( 0.035297 -0.011482  0.030013)
 74:   1216.70   0.009813   49.59  0.002517  (-0.016030  0.044722 -0.016121)
 75:   1249.33   0.003336   16.86  0.000833  ( 0.020961 -0.019200  0.005033)
 76:   1266.27   0.003162   15.98  0.000779  ( 0.021490 -0.017789 -0.001031)
 77:   1288.97   0.007966   40.26  0.001929  ( 0.021184 -0.020873 -0.032313)
 78:   1342.14   0.040032  202.30  0.009308  (-0.023299 -0.093409 -0.006308)
 79:   1381.73   0.032045  161.94  0.007237  (-0.032183 -0.077914  0.011448)
 80:   1654.82   0.023406  118.29  0.004414  ( 0.033309 -0.056938  0.007904)
 81:   1725.23   0.191523  967.88  0.034643  ( 0.184336 -0.023314  0.010960)
 82:   3460.88   0.207035  1046.27  0.018668  ( 0.133013 -0.002457  0.031139)
 83:   3803.31   0.016955   85.68  0.001391  ( 0.029397  0.021458  0.008158)

* The epsilon (eps) is given for a Dirac delta lineshape.
** The dipole moment derivative (T) already includes vibrational overlap.

The first frequency considered to be a vibration is 7
The total number of vibrations considered is 77


--------------------------
THERMOCHEMISTRY AT 298.15K
--------------------------

Temperature         ...   298.15 K
Pressure            ...     1.00 atm
Total Mass          ...   431.07 AMU
Quasi RRHO          ...     True
Cut-Off Frequency   ...     1.00 cm^-1

Throughout the following assumptions are being made:
  (1) The electronic state is orbitally nondegenerate
  (2) There are no thermally accessible electronically excited states
  (3) Hindered rotations indicated by low frequency modes are not
      treated as such but are treated as vibrations and this may
      cause some error
  (4) All equations used are the standard statistical mechanics
      equations for an ideal gas
  (5) All vibrations are strictly harmonic

freq.      20.67  E(vib)   ...       0.56 
freq.      30.97  E(vib)   ...       0.55 
freq.      35.39  E(vib)   ...       0.54 
freq.      36.63  E(vib)   ...       0.54 
freq.      44.21  E(vib)   ...       0.53 
freq.      54.55  E(vib)   ...       0.52 
freq.      57.28  E(vib)   ...       0.51 
freq.      67.86  E(vib)   ...       0.50 
freq.      70.88  E(vib)   ...       0.50 
freq.      73.68  E(vib)   ...       0.49 
freq.     117.29  E(vib)   ...       0.44 
freq.     133.97  E(vib)   ...       0.42 
freq.     162.52  E(vib)   ...       0.39 
freq.     180.04  E(vib)   ...       0.37 
freq.     192.67  E(vib)   ...       0.36 
freq.     203.25  E(vib)   ...       0.35 
freq.     204.53  E(vib)   ...       0.35 
freq.     213.16  E(vib)   ...       0.34 
freq.     233.84  E(vib)   ...       0.32 
freq.     245.44  E(vib)   ...       0.31 
freq.     255.78  E(vib)   ...       0.30 
freq.     258.14  E(vib)   ...       0.30 
freq.     266.69  E(vib)   ...       0.29 
freq.     286.78  E(vib)   ...       0.27 
freq.     303.09  E(vib)   ...       0.26 
freq.     311.86  E(vib)   ...       0.25 
freq.     333.64  E(vib)   ...       0.24 
freq.     347.20  E(vib)   ...       0.23 
freq.     358.66  E(vib)   ...       0.22 
freq.     364.00  E(vib)   ...       0.22 
freq.     368.93  E(vib)   ...       0.21 
freq.     369.52  E(vib)   ...       0.21 
freq.     377.69  E(vib)   ...       0.21 
freq.     398.02  E(vib)   ...       0.20 
freq.     413.86  E(vib)   ...       0.19 
freq.     463.42  E(vib)   ...       0.16 
freq.     508.37  E(vib)   ...       0.14 
freq.     524.62  E(vib)   ...       0.13 
freq.     538.91  E(vib)   ...       0.12 
freq.     554.55  E(vib)   ...       0.12 
freq.     555.71  E(vib)   ...       0.12 
freq.     577.52  E(vib)   ...       0.11 
freq.     595.97  E(vib)   ...       0.10 
freq.     610.18  E(vib)   ...       0.10 
freq.     640.12  E(vib)   ...       0.09 
freq.     660.60  E(vib)   ...       0.08 
freq.     682.56  E(vib)   ...       0.08 
freq.     689.23  E(vib)   ...       0.07 
freq.     719.26  E(vib)   ...       0.07 
freq.     726.82  E(vib)   ...       0.06 
freq.     768.57  E(vib)   ...       0.06 
freq.     802.22  E(vib)   ...       0.05 
freq.     873.66  E(vib)   ...       0.04 
freq.    1000.18  E(vib)   ...       0.02 
freq.    1090.11  E(vib)   ...       0.02 
freq.    1099.89  E(vib)   ...       0.02 
freq.    1116.41  E(vib)   ...       0.01 
freq.    1118.34  E(vib)   ...       0.01 
freq.    1128.22  E(vib)   ...       0.01 
freq.    1136.91  E(vib)   ...       0.01 
freq.    1146.85  E(vib)   ...       0.01 
freq.    1148.65  E(vib)   ...       0.01 
freq.    1155.38  E(vib)   ...       0.01 
freq.    1160.97  E(vib)   ...       0.01 
freq.    1170.11  E(vib)   ...       0.01 
freq.    1184.11  E(vib)   ...       0.01 
freq.    1194.07  E(vib)   ...       0.01 
freq.    1216.70  E(vib)   ...       0.01 
freq.    1249.33  E(vib)   ...       0.01 
freq.    1266.27  E(vib)   ...       0.01 
freq.    1288.97  E(vib)   ...       0.01 
freq.    1342.14  E(vib)   ...       0.01 
freq.    1381.73  E(vib)   ...       0.01 
freq.    1654.82  E(vib)   ...       0.00 
freq.    1725.23  E(vib)   ...       0.00 
freq.    3460.88  E(vib)   ...       0.00 
freq.    3803.31  E(vib)   ...       0.00 

------------
INNER ENERGY
------------

The inner energy is: U= E(el) + E(ZPE) + E(vib) + E(rot) + E(trans)
    E(el)   - is the total energy from the electronic structure calculation
              = E(kin-el) + E(nuc-el) + E(el-el) + E(nuc-nuc)
    E(ZPE)  - the the zero temperature vibrational energy from the frequency calculation
    E(vib)  - the the finite temperature correction to E(ZPE) due to population
              of excited vibrational states
    E(rot)  - is the rotational thermal energy
    E(trans)- is the translational thermal energy

Summary of contributions to the inner energy U:
Electronic energy                ...  -2029.63984456 Eh
Zero point energy                ...      0.12102668 Eh      75.95 kcal/mol
Thermal vibrational correction   ...      0.02298583 Eh      14.42 kcal/mol
Thermal rotational correction    ...      0.00141627 Eh       0.89 kcal/mol
Thermal translational correction ...      0.00141627 Eh       0.89 kcal/mol
-----------------------------------------------------------------------
Total thermal energy                  -2029.49299952 Eh


Summary of corrections to the electronic energy:
(perhaps to be used in another calculation)
Total thermal correction                  0.02581837 Eh      16.20 kcal/mol
Non-thermal (ZPE) correction              0.12102668 Eh      75.95 kcal/mol
-----------------------------------------------------------------------
Total correction                          0.14684505 Eh      92.15 kcal/mol


--------
ENTHALPY
--------

The enthalpy is H = U + kB*T
                kB is Boltzmann's constant
Total thermal energy              ...  -2029.49299952 Eh 
Thermal Enthalpy correction       ...      0.00094421 Eh       0.59 kcal/mol
-----------------------------------------------------------------------
Total Enthalpy                    ...  -2029.49205531 Eh


Note: Only C1 symmetry has been detected, increase convergence thresholds 
      if your molecule has a higher symmetry. Symmetry factor of 1.0 is   
      used for the rotational entropy correction. 
 

Note: Rotational entropy computed according to Herzberg 
Infrared and Raman Spectra, Chapter V,1, Van Nostrand Reinhold, 1945 
Point Group:  C1, Symmetry Number:   1  
Rotational constants in cm-1:     0.016754     0.003413     0.003246 

Vibrational entropy computed according to the QRRHO of S. Grimme
Chem.Eur.J. 2012 18 9955 using a reference frequency of 100.0 cm-1


-------
ENTROPY
-------

The entropy contributions are T*S = T*(S(el)+S(vib)+S(rot)+S(trans))
     S(el)   - electronic entropy
     S(vib)  - vibrational entropy
     S(rot)  - rotational entropy
     S(trans)- translational entropy
The entropies will be listed as multiplied by the temperature to get
units of energy

Electronic entropy                ...      0.00000000 Eh      0.00 kcal/mol
Vibrational entropy               ...      0.04154167 Eh     26.07 kcal/mol
Rotational entropy                ...      0.01682795 Eh     10.56 kcal/mol
Translational entropy             ...      0.02094056 Eh     13.14 kcal/mol
-----------------------------------------------------------------------
Final entropy term                ...      0.07931018 Eh     49.77 kcal/mol

In case the symmetry of your molecule has not been determined correctly
or in case you have a reason to use a different symmetry number we print 
out the resulting rotational entropy values for sn=1,12:

 non-linear molecules -----------------------------------
|  sn= 1 | S(rot)=       0.01682795 Eh     10.56 kcal/mol|
|  sn= 2 | S(rot)=       0.01617349 Eh     10.15 kcal/mol|
|  sn= 3 | S(rot)=       0.01579066 Eh      9.91 kcal/mol|
|  sn= 4 | S(rot)=       0.01551904 Eh      9.74 kcal/mol|
|  sn= 5 | S(rot)=       0.01530835 Eh      9.61 kcal/mol|
|  sn= 6 | S(rot)=       0.01513621 Eh      9.50 kcal/mol|
|  sn= 7 | S(rot)=       0.01499066 Eh      9.41 kcal/mol|
|  sn= 8 | S(rot)=       0.01486458 Eh      9.33 kcal/mol|
|  sn= 9 | S(rot)=       0.01475337 Eh      9.26 kcal/mol|
|  sn=10 | S(rot)=       0.01465389 Eh      9.20 kcal/mol|
|  sn=11 | S(rot)=       0.01456390 Eh      9.14 kcal/mol|
|  sn=12 | S(rot)=       0.01448175 Eh      9.09 kcal/mol|
 linear molecules ---------------------------------------
|  Dinfh | S(rot)=       0.01073623 Eh      6.74 kcal/mol|
|  Cinfv | S(rot)=       0.01139068 Eh      7.15 kcal/mol|
 --------------------------------------------------------


-------------------
GIBBS FREE ENERGY
-------------------

The Gibbs free energy is G = H - T*S

Total enthalpy                    ...  -2029.49205531 Eh 
Total entropy correction          ...     -0.07931018 Eh    -49.77 kcal/mol
-----------------------------------------------------------------------
Final Gibbs free energy         ...  -2029.57136549 Eh

For completeness - the Gibbs free energy minus the electronic energy
G-E(el)                           ...      0.06847908 Eh     42.97 kcal/mol


Maximum memory used throughout the entire PROP-calculation: 373.4 MB

--------------------------------
SUGGESTED CITATIONS FOR THIS RUN
--------------------------------

Below you find a list of papers that are relevant to this ORCA run
We neither can nor want to force you to cite these papers, but we appreciate if you do
You receive ORCA, which is the product of decades of hard work by many enthusiastic individuals, for free
The only thing we kindly ask in return is that you cite our papers,
We deeply appreciate it, if you show your appreciation for ORCA by not just citing the generic ORCA reference.

Please note that relegating all ORCA citations to the supporting information does *not* help us.
SI sections are not indexed - citations you put there will not count into any citation statistics
But we need these citations in order to attract the funding resources that allow us to do what we are doing

Therefore, if you are a happy ORCA user, please consider citing a few of the papers listed below in the main body of your paper

In addition to the list printed below, the program has created the file rf_mecn_1H2O_freq_B3L_con_01.bibtex that contains the list in bibtex format
You can import this file easily into all common literature databanks and citation aid programs


List of essential papers. We consider these as the minimum necessary citations

  1. Neese,F.
     Software update: the ORCA program system, version 5.0
     WIRES Comput. Molec. Sci., 2022 12(1)e1606
     doi.org/10.1002/wcms.1606

List of papers to cite with high priority. The work reported in these papers was absolutely
necessary for this run to complete.
Our perspective: the developers of density functionals and basis sets usually get cited in chemistry papers
Good! But without the algorithms to do something with them, the functionals or basis sets would not do anything.
Hence, in our opinion, the algorithm design and method developments papers are equally worthy of getting cited

  1. Neese,F.
     An improvement of the resolution of the identity approximation for the formation of the Coulomb matrix
     J. Comp. Chem., 2003 24(14)1740-1747
     doi.org/10.1002/jcc.10318
  2. Neese,F.; Wennmohs,F.; Hansen,A.; Becker,U.
     Efficient, approximate and parallel Hartree-Fock and hybrid DFT calculations. A 'chain-of-spheres' algorithm for the Hartree-Fock exchange
     Chem. Phys., 2009 356(1-3)98-109
     doi.org/10.1016/j.chemphys.2008.10.036
  3. Bykov,D.; Petrenko,T.; Izsak,R.; Kossmann,S.; Becker,U.; Valeev,E.; Neese,F.
     Efficient implementation of the analytic second derivatives of Hartree-Fock and hybrid DFT energies: a detailed analysis of different approximations
     Molec. Phys., 2015 113 1961-1977
     doi.org/10.1080/00268976.2015.1025114
  4. Garcia-Rates,M.; Neese,F.
     Efficient implementation of the analytical second derivatives of hartree-fock and hybrid DFT energies within the framework of the conductor-like polarizable continuum model
     J. Comput. Chem., 2019 40 1816-1828
     doi.org/10.1002/jcc.25833
  5. Garcia-Rates,M.; Neese,F.
     Effect of the Solute Cavity on the Solvation Energy and its Derivatives within the Framework of the Gaussian Charge Scheme
     J. Comput. Chem., 2020 41 922-939
     doi.org/10.1002/jcc.26139
  6. Helmich-Paris,B.; de Souza,B.; Neese,F.; Izsák,R.
     An improved chain of spheres for exchange algorithm
     J. Chem. Phys., 2021 155 104109
     doi.org/doi: 10.1063/5.0058766.
  7. Neese,F.
     The SHARK Integral Generation and Digestion System
     J. Comp. Chem., 2022  1-16
     doi.org/10.1002/jcc.26942
  8. Grimme,S.; Antony,J.; Ehrlich,S.; Krieg,H.
     A consistent and accurate ab initio parametrization of density functional dispersion correction (DFT-D) for the 94 elements H-Pu
     J. Chem. Phys., 2010 132 154104
     doi.org/10.1063/1.3382344
  9. Grimme,S.; Ehrlich,S.; Goerigk,L.
     Effect of the damping function in dispersion corrected density functional theory
     J. Comput. Chem., 2011 32(7)1456-1465
     doi.org/10.1002/jcc.21759

List of suggested additional citations. These are papers that are important in the 'surrounding' of 
of this run, or papers that preceded the highly important papers. If you like your results we are grateful for a citation.

  1. Izsak,R.; Neese,F.
     An overlap fitted chain of spheres exchange method
     J. Chem. Phys., 2011 135 144105
     doi.org/10.1063/1.3646921
  2. Izsak,R.; Hansen,A.; Neese,F.
     The resolution of identity and chain of spheres approximations for the LPNO-CCSD singles Fock term
     Molec. Phys., 2012 110 2413-2417
     doi.org/10.1080/00268976.2012.687466
  3. Neese,F.
     The ORCA program system
     WIRES Comput. Molec. Sci., 2012 2(1)73-78
     doi.org/10.1002/wcms.81
  4. Izsak,R.; Neese,F.; Klopper,W.
     Robust fitting techniques in the chain of spheres approximation to the Fock exchange: The role of the complementary space
     J. Chem. Phys., 2013 139 
     doi.org/10.1063/1.4819264
  5. Neese,F.
     Software update: the ORCA program system, version 4.0
     WIRES Comput. Molec. Sci., 2018 8(1)1-6
     doi.org/10.1002/wcms.1327
  6. Neese,F.; Wennmohs,F.; Becker,U.; Riplinger,C.
     The ORCA quantum chemistry program package
     J. Chem. Phys., 2020 152 Art. No. L224108
     doi.org/10.1063/5.0004608

List of optional additional citations

  1. Neese,F.
     Approximate second-order SCF convergence for spin unrestricted wavefunctions
     Chem. Phys. Lett., 2000 325(1-3)93-98
     doi.org/10.1016/s0009-2614(00)00662-x

Timings for individual modules:

Sum of individual times          ...      822.672 sec (=  13.711 min)
Startup calculation              ...        3.837 sec (=   0.064 min)   0.5 %
SCF iterations                   ...       82.361 sec (=   1.373 min)  10.0 %
Property integrals               ...      174.338 sec (=   2.906 min)  21.2 %
SCF Response                     ...      338.591 sec (=   5.643 min)  41.2 %
Property calculations            ...      223.544 sec (=   3.726 min)  27.2 %
                             ****ORCA TERMINATED NORMALLY****
TOTAL RUN TIME: 0 days 0 hours 13 minutes 43 seconds 476 msec
