
                                 *****************
                                 * O   R   C   A *
                                 *****************

                                            #,                                       
                                            ###                                      
                                            ####                                     
                                            #####                                    
                                            ######                                   
                                           ########,                                 
                                     ,,################,,,,,                         
                               ,,#################################,,                 
                          ,,##########################################,,             
                       ,#########################################, ''#####,          
                    ,#############################################,,   '####,        
                  ,##################################################,,,,####,       
                ,###########''''           ''''###############################       
              ,#####''   ,,,,##########,,,,          '''####'''          '####       
            ,##' ,,,,###########################,,,                        '##       
           ' ,,###''''                  '''############,,,                           
         ,,##''                                '''############,,,,        ,,,,,,###''
      ,#''                                            '''#######################'''  
     '                                                          ''''####''''         
             ,#######,   #######,   ,#######,      ##                                
            ,#'     '#,  ##    ##  ,#'     '#,    #''#        ,####,   ,####,        
            ##       ##  ##   ,#'  ##            #'  '#       #'       #'  '#        
            ##       ##  #######   ##           ,######,      #####,   #    #        
            '#,     ,#'  ##    ##  '#,     ,#' ,#      #,     #,   #   #,  ,#        
             '#######'   ##     ##  '#######'  #'      '#     '####' # '####'        



                #########################################################
                #                        -***-                          #
                #          Department of theory and spectroscopy        #
                #                                                       #
                #                      Frank Neese                      #
                #                                                       #
                #     Directorship, Architecture, Infrastructure        #
                #                    SHARK, DRIVERS                     #
                #        Core code/Algorithms in most modules           #
                #                                                       #
                #        Max Planck Institute fuer Kohlenforschung      #
                #                Kaiser Wilhelm Platz 1                 #
                #                 D-45470 Muelheim/Ruhr                 #
                #                      Germany                          #
                #                                                       #
                #                  All rights reserved                  #
                #                        -***-                          #
                #########################################################


                         Program Version 6.0.1  -  RELEASE   -


 With contributions from (in alphabetic order):
[Max-Planck-Institut fuer Kohlenforschung]                               
  Daniel Aravena         : Magnetic Suceptibility                        
  Michael Atanasov       : Ab Initio Ligand Field Theory (pilot matlab implementation)
  Alexander A. Auer      : GIAO ZORA, VPT2 properties, NMR spectrum      
  Ute Becker             : All parallelization in ORCA, NUMFREQ, NUMCALC 
  Giovanni Bistoni       : ED, misc. LED, open-shell LED, HFLD           
  Martin Brehm           : Molecular dynamics                            
  Dmytro Bykov           : pre 5.0 version of the SCF Hessian            
  Marcos Casanova-Páez   : Triplet and SCS-CIS(D). UHF-(DLPNO)-IP/EA/STEOM-CCSD. UHF-CVS-IP/STEOM-CCSD   
  Vijay G. Chilkuri      : MRCI spin determinant printing, contributions to CSF-ICE 
  Pauline Colinet        : FMM embedding                                 
  Dipayan Datta          : RHF DLPNO-CCSD density                        
  Achintya Kumar Dutta   : EOM-CC, STEOM-CC                              
  Nicolas Foglia         : Exact transition moments, OPA infrastructure, MCD improvements    
  Dmitry Ganyushin       : Spin-Orbit,Spin-Spin,Magnetic field MRCI      
  Miquel Garcia-Rates    : C-PCM and meta-GGA Hessian, CCSD/C-PCM, Gaussian charge scheme 
  Tiago L. C. Gouveia    : GS-ROHF, GS-ROCIS                             
  Yang Guo               : DLPNO-NEVPT2, F12-NEVPT2, CIM, IAO-localization        
  Andreas Hansen         : Spin unrestricted coupled pair/coupled cluster methods 
  Ingolf Harden          : AUTO-CI MPn and infrastructure                
  Benjamin Helmich-Paris : MC-RPA, TRAH-(SCF,CASSCF), AVAS, COSX integrals, SCF dyn. polar. 
  Lee Huntington         : MR-EOM, pCC                                   
  Robert Izsak           : Overlap fitted RIJCOSX, COSX-SCS-MP3, EOM     
  Riya Kayal             : Wick's Theorem for AUTO-CI, AUTO-CI UHF-CCSDT 
  Emily Kempfer          : AUTO-CI, RHF CISDT and CCSDT                  
  Christian Kollmar      : KDIIS, OOCD, Brueckner-CCSD(T), CCSD density, CASPT2, CASPT2-K, improved NEVPT2 
  Axel Koslowski         : Symmetry handling                             
  Simone Kossmann        : meta-GGA functionals, TD-DFT gradient, OOMP2, (MP2 Hessian; deprecated post 5.0) 
  Lucas Lang             : DCDCAS                                        
  Marvin Lechner         : AUTO-CI (C++ implementation), FIC-MRCC        
  Spencer Leger          : CASSCF response                               
  Dagmar Lenk            : GEPOL surface, SMD, ORCA-2-JSON               
  Dimitrios Liakos       : Extrapolation schemes; Compound Job, initial MDCI parallelization 
  Dimitrios Manganas     : Further ROCIS development; embedding schemes. LFT, Crystal Embedding 
  Dimitrios Pantazis     : SARC Basis sets                               
  Anastasios Papadopoulos: AUTO-CI, single reference methods and gradients 
  Taras Petrenko         : pre 6.0 DFT Hessian and TD-DFT gradient, (ASA, deprecated), ECA, 1-Electron XAS/XES, NRVS 
  Peter Pinski           : DLPNO-MP2, DLPNO-MP2 Gradient                 
  Christoph Reimann      : Effective Core Potentials                     
  Marius Retegan         : Local ZFS, SOC                                
  Christoph Riplinger    : Optimizer, TS searches, QM/MM, DLPNO-CCSD(T), (RO)-DLPNO pert. Triples 
  Michael Roemelt        : Original ROCIS implementation                 
  Masaaki Saitow         : Open-shell DLPNO-CCSD energy and density      
  Barbara Sandhoefer     : DKH picture change effects                    
  Kantharuban Sivalingam : CASSCF convergence/infrastructure, NEVPT2 and variants, FIC-MRCI 
  Bernardo de Souza      : ESD, SOC TD-DFT                               
  Georgi L. Stoychev     : AutoAux, RI-MP2 NMR, DLPNO-MP2 response, X2C  
  Van Anh Tran           : RI-MP2 g-tensors                              
  Willem Van den Heuvel  : Paramagnetic NMR                              
  Zikuan Wang            : NOTCH, Electric field optimization            
  Frank Wennmohs         : Technical directorship and infrastructure     
  Hang Xu                : AUTO-CI-Response properties                   
                                                                         
[FACCTs GmbH]                                                            
  Markus Bursch, Miquel Garcia-Rates, Christoph Riplinger, Bernardo de Souza, Georgi L. Stoychev 
                                                                 
  APM, Basis sets (HGBS, AHGBS, def-TZVP (Ac-Lr), def2-XVPD (La-Lu)), CI-OPT, improved COSX, DLPNO-Multilevel,           
  DOCKER, DRACO, updates on ESD, GOAT, IRC, LR-CPCM, MBIS, meta-GGA TD-DFT gradient, ML-optimized integration grids, 
  MM, NACMEs, nearIR, NEB, NEB-TS, NL-DFT gradient (VV10), 2- and 3-layer-ONIOM, interface openCOSMO-RS, QMMM,   
  Crystal-QMMM, SF, symmetry and pop. for TD-DFT, r2SCAN hybrids, SOLVATOR                                   
                                                                         
[Other institutions]                                                     
  V. Asgeirsson          : NEB                                           
  Christoph Bannwarth    : sTDA-DFT, sTD-DFT, PBEh-3c, B97-3c, D3        
  Sebastian Ehlert       : rSCAN, r2SCAN, r2SCAN-3c, D4, dhf basis sets  
  Marvin Friede          : D4 for Fr, Ra, Ac-Lr                          
  Lars Goerigk           : TD-DFT with DH, B97 family of functionals     
  Stefan Grimme          : VdW corrections, initial TS optimization, DFT functionals, gCP, sTDA/sTD-DF 
  Waldemar Hujo          : DFT-NL                                        
  H. Jonsson             : NEB                                           
  Holger Kruse           : gCP                                           
  Marcel Mueller         : wB97X-3c, vDZP basis set                      
  Hagen Neugebauer       : wr2SCAN                                       
  Tobias Risthaus        : range-separated hybrid DFT                    
  Lukas Wittmann         : regularized MP2, r2SCAN double-hybrids, wr2SCAN        
                                                                         
We gratefully acknowledge several colleagues who have allowed us to      
interface, adapt or use parts of their codes:                            
  Ed Valeev, F. Pavosevic, A. Kumar             : LibInt (2-el integral package), F12 methods 
  Garnet Chan, S. Sharma, J. Yang, R. Olivares  : DMRG                   
  Ulf Ekstrom                                   : XCFun DFT Library      
  Mihaly Kallay                                 : mrcc  (arbitrary order and MRCC methods)
  Frank Weinhold                                : gennbo (NPA and NBO analysis)           
  Simon Mueller                                 : openCOSMO-RS                            
  Christopher J. Cramer and Donald G. Truhlar   : smd solvation model                     
  S Lehtola, MJT Oliveira, MAL Marques          : LibXC Library                           
  Liviu Ungur et al                             : ANISO software                          


 Your calculation uses the libint2 library for the computation of 2-el integrals
 For citations please refer to: http://libint.valeyev.net

 Your ORCA version has been built with support for libXC version: 6.2.2
 For citations please refer to: https://libxc.gitlab.io

 This ORCA versions uses:
   CBLAS   interface :  Fast vector & matrix operations
   LAPACKE interface :  Fast linear algebra routines
   SCALAPACK package :  Parallel linear algebra routines
   Shared memory     :  Shared parallel matrices
   BLAS/LAPACK       :  OpenBLAS 0.3.27  USE64BITINT DYNAMIC_ARCH NO_AFFINITY SkylakeX SINGLE_THREADED
        Core in use  :  SkylakeX
   Copyright (c) 2011-2014, The OpenBLAS Project


NOTE: MaxCore=8000 MB was set to SCF,MP2,MDCI,CIPSI,MRCI and CIS
      => If you want to overwrite this, your respective input block should be placed after the MaxCore statement
Your calculation utilizes the atom-pairwise dispersion correction
with the Becke-Johnson damping scheme (D3BJ)


Your calculation utilizes the SMD solvation module
Please cite in your paper:
A.V. Marenich, C.J. Cramer, D.G. Truhlar J. Phys. Chem. B, 113, (2009), 6378 

Warning: RI is on but no J-basis has been assigned. Assigning Def2/J (nothing to worry about!)
================================================================================

----- Orbital basis set information -----
Your calculation utilizes the basis: def2-TZVP
   F. Weigend and R. Ahlrichs, Phys. Chem. Chem. Phys. 7, 3297 (2005).

----- AuxJ basis set information -----
Your calculation utilizes the auxiliary basis: def2/J
   F. Weigend, Phys. Chem. Chem. Phys. 8, 1057 (2006).

================================================================================
                                        WARNINGS
                       Please study these warnings very carefully!
================================================================================


WARNING: your system is open-shell and RHF/RKS was chosen
  ===> : WILL SWITCH to UHF/UKS


================================================================================
                                       INPUT FILE
================================================================================
NAME = rf_mecn_freq_TP_C4_P_B.inp
|  1> !TPSSh def2-TZVP freq d3 TightSCF SlowConv defgrid2
|  2>  
|  3> %pal
|  4> nprocs 20
|  5> end
|  6>  
|  7> %scf
|  8> MaxIter 1500
|  9> end
| 10>  
| 11> %maxcore 8000
| 12>  
| 13> !CPCM
| 14> %cpcm smd true
| 15> SMDsolvent "ACETONITRILE"
| 16> end
| 17>  
| 18> * xyz 0 2
| 19> 6        4.253038000     -0.329911000      0.633454000
| 20> 8        5.027057000     -1.131046000     -0.088355000
| 21> 8        4.603585000      0.477554000      1.450305000
| 22> 6        2.760576000     -0.544160000      0.280345000
| 23> 6        2.284900000      0.291150000     -0.951020000
| 24> 6        0.855980000      0.055837000     -1.351758000
| 25> 6       -0.378194000      0.758194000     -0.876926000
| 26> 6       -1.502410000     -0.228568000     -0.397197000
| 27> 6       -2.602008000      0.447022000      0.487544000
| 28> 6       -3.928198000     -0.370548000      0.603490000
| 29> 9        2.507934000     -1.849919000      0.010074000
| 30> 9        2.013231000     -0.178886000      1.345800000
| 31> 9        2.485682000      1.601733000     -0.664338000
| 32> 9        3.078959000     -0.046525000     -2.002245000
| 33> 9        0.654990000     -0.948857000     -2.192152000
| 34> 9       -0.068365000      1.588311000      0.145881000
| 35> 9       -0.905952000      1.512634000     -1.885459000
| 36> 9       -0.926521000     -1.214071000      0.328223000
| 37> 9       -2.083609000     -0.784840000     -1.482560000
| 38> 9       -2.916834000      1.658694000     -0.019292000
| 39> 9       -2.111318000      0.613079000      1.732644000
| 40> 9       -3.673610000     -1.642047000      0.930942000
| 41> 9       -4.688400000      0.174661000      1.558549000
| 42> 9       -4.608048000     -0.345179000     -0.544665000
| 43> 1        5.963714000     -0.961023000      0.141447000
| 44> *
| 45> 
| 46>                          ****END OF INPUT****
================================================================================

                       ****************************
                       * Single Point Calculation *
                       ****************************

---------------------------------
CARTESIAN COORDINATES (ANGSTROEM)
---------------------------------
  C      4.253038   -0.329911    0.633454
  O      5.027057   -1.131046   -0.088355
  O      4.603585    0.477554    1.450305
  C      2.760576   -0.544160    0.280345
  C      2.284900    0.291150   -0.951020
  C      0.855980    0.055837   -1.351758
  C     -0.378194    0.758194   -0.876926
  C     -1.502410   -0.228568   -0.397197
  C     -2.602008    0.447022    0.487544
  C     -3.928198   -0.370548    0.603490
  F      2.507934   -1.849919    0.010074
  F      2.013231   -0.178886    1.345800
  F      2.485682    1.601733   -0.664338
  F      3.078959   -0.046525   -2.002245
  F      0.654990   -0.948857   -2.192152
  F     -0.068365    1.588311    0.145881
  F     -0.905952    1.512634   -1.885459
  F     -0.926521   -1.214071    0.328223
  F     -2.083609   -0.784840   -1.482560
  F     -2.916834    1.658694   -0.019292
  F     -2.111318    0.613079    1.732644
  F     -3.673610   -1.642047    0.930942
  F     -4.688400    0.174661    1.558549
  F     -4.608048   -0.345179   -0.544665
  H      5.963714   -0.961023    0.141447

----------------------------
CARTESIAN COORDINATES (A.U.)
----------------------------
  NO LB      ZA    FRAG     MASS         X           Y           Z
   0 C     6.0000    0    12.011    8.037077   -0.623441    1.197055
   1 O     8.0000    0    15.999    9.499761   -2.137367   -0.166967
   2 O     8.0000    0    15.999    8.699515    0.902446    2.740679
   3 C     6.0000    0    12.011    5.216733   -1.028313    0.529775
   4 C     6.0000    0    12.011    4.317835    0.550194   -1.797167
   5 C     6.0000    0    12.011    1.617568    0.105517   -2.554452
   6 C     6.0000    0    12.011   -0.714683    1.432779   -1.657150
   7 C     6.0000    0    12.011   -2.839143   -0.431931   -0.750594
   8 C     6.0000    0    12.011   -4.917083    0.844749    0.921325
   9 C     6.0000    0    12.011   -7.423218   -0.700234    1.140431
  10 F     9.0000    0    18.998    4.739308   -3.495840    0.019037
  11 F     9.0000    0    18.998    3.804455   -0.338046    2.543193
  12 F     9.0000    0    18.998    4.697258    3.026837   -1.255417
  13 F     9.0000    0    18.998    5.818389   -0.087920   -3.783695
  14 F     9.0000    0    18.998    1.237752   -1.793080   -4.142567
  15 F     9.0000    0    18.998   -0.129191    3.001473    0.275675
  16 F     9.0000    0    18.998   -1.712001    2.858464   -3.563001
  17 F     9.0000    0    18.998   -1.750871   -2.294262    0.620252
  18 F     9.0000    0    18.998   -3.937450   -1.483133   -2.801632
  19 F     9.0000    0    18.998   -5.512017    3.134477   -0.036457
  20 F     9.0000    0    18.998   -3.989813    1.158551    3.274223
  21 F     9.0000    0    18.998   -6.942117   -3.103019    1.759225
  22 F     9.0000    0    18.998   -8.859792    0.330061    2.945231
  23 F     9.0000    0    18.998   -8.707949   -0.652294   -1.029268
  24 H     1.0000    0     1.008   11.269786   -1.816070    0.267296

--------------------------------
INTERNAL COORDINATES (ANGSTROEM)
--------------------------------
 C      0   0   0     0.000000000000     0.00000000     0.00000000
 O      1   0   0     1.327377464426     0.00000000     0.00000000
 O      1   2   0     1.200886539868   127.26410005     0.00000000
 C      1   2   3     1.548557852108   110.76257102   179.27119057
 C      4   1   2     1.562136426917   113.53029137   274.67526754
 C      5   4   1     1.502589604321   114.58612986   177.44847093
 C      6   5   4     1.497316347987   128.74163420    89.31067654
 C      7   6   5     1.570891712608   113.08371261   230.94087902
 C      8   7   6     1.564705801991   113.85268131   162.52785836
 C      9   8   7     1.562256091656   114.36639270   161.93904499
 F      4   1   2     1.357159150463   110.97345901    35.89277484
 F      4   1   2     1.351718906107   108.40523288   154.70977711
 F      5   4   1     1.356513096338   107.75569041   300.73567558
 F      5   4   1     1.360010331480   107.38148683    57.40333047
 F      6   5   4     1.325167570148   115.60102731   272.73336376
 F      7   6   5     1.353226663268   109.79890188   352.35698447
 F      7   6   5     1.365594021755   110.08978586   111.04141374
 F      8   7   6     1.352441673319   108.46906337    42.15023663
 F      8   7   6     1.351015787233   108.73376037   284.57527146
 F      9   8   7     1.350609927683   109.81439842    41.10022111
 F      9   8   7     1.348564278538   108.63374266   282.32553006
 F     10   9   8     1.337441426399   110.73854112    49.62026882
 F     10   9   8     1.336898510720   108.80243566   169.06318079
 F     10   9   8     1.334578402600   111.01663038   288.38675888
 H      2   1   3     0.979307467235   108.98584184   359.54170913

---------------------------
INTERNAL COORDINATES (A.U.)
---------------------------
 C      0   0   0     0.000000000000     0.00000000     0.00000000
 O      1   0   0     2.508379884105     0.00000000     0.00000000
 O      1   2   0     2.269346678262   127.26410005     0.00000000
 C      1   2   3     2.926350243018   110.76257102   179.27119057
 C      4   1   2     2.952010030695   113.53029137   274.67526754
 C      5   4   1     2.839482843843   114.58612986   177.44847093
 C      6   5   4     2.829517833538   128.74163420    89.31067654
 C      7   6   5     2.968555122876   113.08371261   230.94087902
 C      8   7   6     2.956865445921   113.85268131   162.52785836
 C      9   8   7     2.952236164280   114.36639270   161.93904499
 F      4   1   2     2.564659114521   110.97345901    35.89277484
 F      4   1   2     2.554378542585   108.40523288   154.70977711
 F      5   4   1     2.563438249157   107.75569041   300.73567558
 F      5   4   1     2.570047065800   107.38148683    57.40333047
 F      6   5   4     2.504203789134   115.60102731   272.73336376
 F      7   6   5     2.557227790696   109.79890188   352.35698447
 F      7   6   5     2.580598711237   110.08978586   111.04141374
 F      8   7   6     2.555744374675   108.46906337    42.15023663
 F      8   7   6     2.553049840475   108.73376037   284.57527146
 F      9   8   7     2.552282877076   109.81439842    41.10022111
 F      9   8   7     2.548417160426   108.63374266   282.32553006
 F     10   9   8     2.527398016056   110.73854112    49.62026882
 F     10   9   8     2.526372054108   108.80243566   169.06318079
 F     10   9   8     2.521987685160   111.01663038   288.38675888
 H      2   1   3     1.850622913978   108.98584184   359.54170913

---------------------
BASIS SET INFORMATION
---------------------
There are 4 groups of distinct atoms

 Group   1 Type C   : 11s6p2d1f contracted to 5s3p2d1f pattern {62111/411/11/1}
 Group   2 Type O   : 11s6p2d1f contracted to 5s3p2d1f pattern {62111/411/11/1}
 Group   3 Type F   : 11s6p2d1f contracted to 5s3p2d1f pattern {62111/411/11/1}
 Group   4 Type H   : 5s1p contracted to 3s1p pattern {311/1}

Atom   0C    basis set group =>   1
Atom   1O    basis set group =>   2
Atom   2O    basis set group =>   2
Atom   3C    basis set group =>   1
Atom   4C    basis set group =>   1
Atom   5C    basis set group =>   1
Atom   6C    basis set group =>   1
Atom   7C    basis set group =>   1
Atom   8C    basis set group =>   1
Atom   9C    basis set group =>   1
Atom  10F    basis set group =>   3
Atom  11F    basis set group =>   3
Atom  12F    basis set group =>   3
Atom  13F    basis set group =>   3
Atom  14F    basis set group =>   3
Atom  15F    basis set group =>   3
Atom  16F    basis set group =>   3
Atom  17F    basis set group =>   3
Atom  18F    basis set group =>   3
Atom  19F    basis set group =>   3
Atom  20F    basis set group =>   3
Atom  21F    basis set group =>   3
Atom  22F    basis set group =>   3
Atom  23F    basis set group =>   3
Atom  24H    basis set group =>   4
---------------------------------
AUXILIARY/J BASIS SET INFORMATION
---------------------------------
There are 4 groups of distinct atoms

 Group   1 Type C   : 12s5p4d2f1g contracted to 6s4p3d1f1g pattern {711111/2111/211/2/1}
 Group   2 Type O   : 12s5p4d2f1g contracted to 6s4p3d1f1g pattern {711111/2111/211/2/1}
 Group   3 Type F   : 12s5p4d2f1g contracted to 6s4p3d1f1g pattern {711111/2111/211/2/1}
 Group   4 Type H   : 5s2p1d contracted to 3s1p1d pattern {311/2/1}

Atom   0C    basis set group =>   1
Atom   1O    basis set group =>   2
Atom   2O    basis set group =>   2
Atom   3C    basis set group =>   1
Atom   4C    basis set group =>   1
Atom   5C    basis set group =>   1
Atom   6C    basis set group =>   1
Atom   7C    basis set group =>   1
Atom   8C    basis set group =>   1
Atom   9C    basis set group =>   1
Atom  10F    basis set group =>   3
Atom  11F    basis set group =>   3
Atom  12F    basis set group =>   3
Atom  13F    basis set group =>   3
Atom  14F    basis set group =>   3
Atom  15F    basis set group =>   3
Atom  16F    basis set group =>   3
Atom  17F    basis set group =>   3
Atom  18F    basis set group =>   3
Atom  19F    basis set group =>   3
Atom  20F    basis set group =>   3
Atom  21F    basis set group =>   3
Atom  22F    basis set group =>   3
Atom  23F    basis set group =>   3
Atom  24H    basis set group =>   4


           ************************************************************
           *        Program running with 20 parallel MPI-processes    *
           *              working on a common directory               *
           ************************************************************
------------------------------------------------------------------------------
                             ORCA STARTUP CALCULATIONS
                           -- RI-GTO INTEGRALS CHOSEN --
------------------------------------------------------------------------------
------------------------------------------------------------------------------
                   ___                                                        
                  /   \      - P O W E R E D   B Y -                         
                 /     \                                                     
                 |  |  |   _    _      __       _____    __    __             
                 |  |  |  | |  | |    /  \     |  _  \  |  |  /  |          
                  \  \/   | |  | |   /    \    | | | |  |  | /  /          
                 / \  \   | |__| |  /  /\  \   | |_| |  |  |/  /          
                |  |  |   |  __  | /  /__\  \  |    /   |      \           
                |  |  |   | |  | | |   __   |  |    \   |  |\   \          
                \     /   | |  | | |  |  |  |  | |\  \  |  | \   \       
                 \___/    |_|  |_| |__|  |__|  |_| \__\ |__|  \__/        
                                                                              
                      - O R C A' S   B I G   F R I E N D -                    
                                      &                                       
                       - I N T E G R A L  F E E D E R -                       
                                                                              
 v1 FN, 2020, v2 2021, v3 2022-2024                                           
------------------------------------------------------------------------------


----------------------
SHARK INTEGRAL PACKAGE
----------------------

Number of atoms                             ...     25
Number of basis functions                   ...    750
Number of shells                            ...    268
Maximum angular momentum                    ...      3
Integral batch strategy                     ... SHARK/LIBINT Hybrid
RI-J (if used) integral strategy            ... SPLIT-RIJ (Revised 2003 algorithm where possible)
Printlevel                                  ...      1
Contraction scheme used                     ... SEGMENTED contraction
Prescreening option                         ... SCHWARTZ
   Thresh                                   ... 2.500e-11
   Tcut                                     ... 2.500e-12
   Tpresel                                  ... 2.500e-12 
Coulomb Range Separation                    ... NOT USED
Exchange Range Separation                   ... NOT USED
Multipole approximations                    ... NOT USED
Finite Nucleus Model                        ... NOT USED
CABS basis                                  ... NOT available
Auxiliary Coulomb fitting basis             ... AVAILABLE
   # of basis functions in Aux-J            ...   1187
   # of shells in Aux-J                     ...    365
   Maximum angular momentum in Aux-J        ...      4
Auxiliary J/K fitting basis                 ... NOT available
Auxiliary Correlation fitting basis         ... NOT available
Auxiliary 'external' fitting basis          ... NOT available

Checking pre-screening integrals            ... done (  0.0 sec) Dimension = 268
Check shell pair data                       ... done (  0.0 sec)
Shell pair information
Shell pair cut-off parameter TPreSel        ...   2.5e-12
Total number of shell pairs                 ...     36046
Shell pairs after pre-screening             ...     22754
Total number of primitive shell pairs       ...    118872
Primitive shell pairs kept                  ...     48148
          la=0 lb=0:   4340 shell pairs
          la=1 lb=0:   6215 shell pairs
          la=1 lb=1:   2140 shell pairs
          la=2 lb=0:   3378 shell pairs
          la=2 lb=1:   2458 shell pairs
          la=2 lb=2:    700 shell pairs
          la=3 lb=0:   1543 shell pairs
          la=3 lb=1:   1193 shell pairs
          la=3 lb=2:    632 shell pairs
          la=3 lb=3:    155 shell pairs

Calculating one electron integrals          ... done (  0.0 sec)
Calculating RI/J V-Matrix + Cholesky decomp.... done (  0.1 sec)
Calculating Nuclear repulsion               ... done (  0.0 sec) ENN=   2672.810449076733 Eh

Diagonalization of the overlap matrix:
Smallest eigenvalue                        ... 5.991e-05
Time for diagonalization                   ...    0.102 sec
Threshold for overlap eigenvalues          ... 1.000e-07
Number of eigenvalues below threshold      ... 0
Time for construction of square roots      ...    0.044 sec
Total time needed                          ...    0.151 sec

-------------------
DFT GRID GENERATION
-------------------

General Integration Accuracy     IntAcc      ... 4.388
Radial Grid Type                 RadialGrid  ... OptM3 with GC (2021)
Angular Grid (max. ang.)         AngularGrid ... 4 (Lebedev-302)
Angular grid pruning method      GridPruning ... 4 (adaptive)
Weight generation scheme         WeightScheme... mBecke (2022)
Basis function cutoff            BFCut       ... 1.0000e-11
Integration weight cutoff        WCut        ... 1.0000e-14
Partially contracted basis set               ... off
Rotationally invariant grid construction     ... off
Angular grids for H and He will be reduced by one unit

Total number of grid points                  ...   148693
Total number of batches                      ...     2335
Average number of points per batch           ...       63
Average number of grid points per atom       ...     5948

--------------------
COSX GRID GENERATION
--------------------

GRIDX 1
-------
General Integration Accuracy     IntAcc      ... 3.816
Radial Grid Type                 RadialGrid  ... OptM3 with GC (2021)
Angular Grid (max. ang.)         AngularGrid ... 1 (Lebedev-50)
Angular grid pruning method      GridPruning ... 4 (adaptive)
Weight generation scheme         WeightScheme... mBecke (2022)
Basis function cutoff            BFCut       ... 1.0000e-11
Integration weight cutoff        WCut        ... 1.0000e-14
Partially contracted basis set               ... on
Rotationally invariant grid construction     ... off
Angular grids for H and He will be reduced by one unit

Total number of grid points                  ...    18697
Total number of batches                      ...      157
Average number of points per batch           ...      119
Average number of grid points per atom       ...      748
UseSFitting                                  ... on

GRIDX 2
-------
General Integration Accuracy     IntAcc      ... 4.020
Radial Grid Type                 RadialGrid  ... OptM3 with GC (2021)
Angular Grid (max. ang.)         AngularGrid ... 2 (Lebedev-110)
Angular grid pruning method      GridPruning ... 4 (adaptive)
Weight generation scheme         WeightScheme... mBecke (2022)
Basis function cutoff            BFCut       ... 1.0000e-11
Integration weight cutoff        WCut        ... 1.0000e-14
Partially contracted basis set               ... on
Rotationally invariant grid construction     ... off
Angular grids for H and He will be reduced by one unit

Total number of grid points                  ...    44020
Total number of batches                      ...      356
Average number of points per batch           ...      123
Average number of grid points per atom       ...     1761
UseSFitting                                  ... on

GRIDX 3
-------
General Integration Accuracy     IntAcc      ... 4.338
Radial Grid Type                 RadialGrid  ... OptM3 with GC (2021)
Angular Grid (max. ang.)         AngularGrid ... 3 (Lebedev-194)
Angular grid pruning method      GridPruning ... 4 (adaptive)
Weight generation scheme         WeightScheme... mBecke (2022)
Basis function cutoff            BFCut       ... 1.0000e-11
Integration weight cutoff        WCut        ... 1.0000e-14
Partially contracted basis set               ... on
Rotationally invariant grid construction     ... off
Angular grids for H and He will be reduced by one unit

Total number of grid points                  ...    97498
Total number of batches                      ...      771
Average number of points per batch           ...      126
Average number of grid points per atom       ...     3900
UseSFitting                                  ... on
Initializing property integral containers    ... done (  0.0 sec)

SHARK setup successfully completed in   3.1 seconds

Maximum memory used throughout the entire STARTUP-calculation: 57.9 MB


           ************************************************************
           *        Program running with 20 parallel MPI-processes    *
           *              working on a common directory               *
           ************************************************************
-------------------------------------------------------------------------------
                                 ORCA GUESS
                   Start orbitals & Density for SCF / CASSCF
-------------------------------------------------------------------------------

------------
SCF SETTINGS
------------
Hamiltonian:
 Density Functional     Method          .... DFT(GTOs)
 Exchange Functional    Exchange        .... TPSS
 Correlation Functional Correlation     .... TPSS
 LDA part of GGA corr.  LDAOpt          .... PW91-LDA
 Gradients option       PostSCFGGA      .... off
 Hybrid DFT is turned on
   Fraction HF Exchange ScalHFX         ....  0.100000
   Scaling of DF-GGA-X  ScalDFX         ....  0.900000
   Scaling of DF-GGA-C  ScalDFC         ....  1.000000
   Scaling of DF-LDA-C  ScalLDAC        ....  1.000000
   Perturbative correction              ....  0.000000
   NL short-range parameter             ....  5.200000
 RI-approximation to the Coulomb term is turned on
   Number of AuxJ basis functions       .... 1187
   RIJ-COSX (HFX calculated with COS-X)).... on


General Settings:
 Integral files         IntName         .... rf_mecn_freq_TP_C4_P_B
 Hartree-Fock type      HFTyp           .... UHF
 Total Charge           Charge          ....    0
 Multiplicity           Mult            ....    2
 Number of Electrons    NEL             ....  191
 Basis Dimension        Dim             ....  750
 Nuclear Repulsion      ENuc            ....   2672.8104490767 Eh

Convergence Acceleration:
 AO-DIIS                CNVDIIS         .... on
   Start iteration      DIISMaxIt       ....     0
   Startup error        DIISStart       ....  0.200000
   # of expansion vecs  DIISMaxEq       ....     5
   Bias factor          DIISBfac        ....   1.050
   Max. coefficient     DIISMaxC        ....  10.000
 MO-DIIS                CNVKDIIS        .... off
 Trust-Rad. Augm. Hess. CNVTRAH         .... auto
   Auto Start mean grad. ratio tolernc. ....  1.125000
   Auto Start start iteration           ....    50
   Auto Start num. interpolation iter.  ....    10
   Max. Number of Micro iterations      ....    24
   Max. Number of Macro iterations      .... Maxiter - #DIIS iter
   Number of Davidson start vectors     ....     2
   Converg. threshold    (grad. norm)   ....   1.000e-05
   Grad. Scal. Fac. for Micro threshold ....   0.100
   Minimum threshold for Micro iter.    ....   1.000e-02
   NR start threshold (gradient norm)   ....   1.000e-04
   Initial trust radius                 ....   0.400
   Minimum AH scaling param. (alpha)    ....   1.000
   Maximum AH scaling param. (alpha)    .... 1000.000
   Quad. conv. algorithm                .... NR
   White noise on init. David. guess    .... on
   Maximum white noise                  ....   0.010
   Pseudo random numbers                .... off
   Inactive MOs                         .... canonical
   Orbital update algorithm             .... Taylor
   Preconditioner                       .... Diag
   Full preconditioner red. dimension   ....   250
 SOSCF                  CNVSOSCF        .... on
   Start iteration      SOSCFMaxIt      ....   150
   Startup grad/error   SOSCFStart      ....  0.001000
   Hessian update       SOSCFHessUp     .... L-BFGS
 Level Shifting         CNVShift        .... on
   Level shift para.    LevelShift      ....    0.2500
   Turn off err/grad.   ShiftErr        ....    0.0000
 Zerner damping         CNVZerner       .... off
 Static damping         CNVDamp         .... on
   Fraction old density DampFac         ....    0.8500
   Max. Damping (<1)    DampMax         ....    0.9800
   Min. Damping (>=0)   DampMin         ....    0.0000
   Turn off err/grad.   DampErr         ....    0.0300

SCF Procedure:
 Maximum # iterations   MaxIter         ....  1500
 SCF integral mode      SCFMode         .... Direct
   Integral package                     .... SHARK and LIBINT hybrid scheme
 Reset frequency        DirectResetFreq ....    20
 Integral Threshold     Thresh          ....  2.500e-11 Eh
 Primitive CutOff       TCut            ....  2.500e-12 Eh

Convergence Tolerance:
 Convergence Check Mode ConvCheckMode   .... Total+1el-Energy
 Convergence forced     ConvForced      .... 0
 Energy Change          TolE            ....  1.000e-08 Eh
 1-El. energy change                    ....  1.000e-05 Eh
 Orbital Gradient       TolG            ....  1.000e-05
 Orbital Rotation angle TolX            ....  1.000e-05
 DIIS Error             TolErr          ....  5.000e-07

------------------------------
INITIAL GUESS: MODEL POTENTIAL
------------------------------
Loading Hartree-Fock densities                     ... done
Calculating cut-offs                               ... done
Initializing the effective Hamiltonian             ... done
Setting up the integral package (SHARK)            ... done
Starting the Coulomb interaction                   ... done (   0.1 sec)
Making the grid                                    ... done (   0.5 sec)
Mapping shells                                     ... done
Starting the XC term evaluation                    ... done (   0.1 sec)
  promolecular density results
     # of electrons  =    191.001095266
     EX              =   -197.551186736
     EC              =     -6.707197026
     EX+EC           =   -204.258383762
Transforming the Hamiltonian                       ... done (   0.0 sec)
Diagonalizing the Hamiltonian                      ... done (   0.1 sec)
Back transforming the eigenvectors                 ... done (   0.0 sec)
Now organizing SCF variables                       ... done
                      ------------------
                      INITIAL GUESS DONE (   1.1 sec)
                      ------------------
             **** ENERGY FILE WAS UPDATED (rf_mecn_freq_TP_C4_P_B.en.tmp) ****
Finished Guess after   1.8 sec
Maximum memory used throughout the entire GUESS-calculation: 47.2 MB


           ************************************************************
           *        Program running with 20 parallel MPI-processes    *
           *              working on a common directory               *
           ************************************************************

-------------------------------------------------------------------------------------------
                                      ORCA LEAN-SCF
                              memory conserving SCF solver
-------------------------------------------------------------------------------------------

--------------------
CPCM SOLVATION MODEL
--------------------
CPCM parameters:
  Epsilon                                         ...      35.6880
  Refrac                                          ...       1.3442
  Rsolv                                           ...       1.3000
  Surface type                                    ... GAUSSIAN VDW
  Discretization scheme                           ... Constant charge density
    Threshold for H atoms                         ...       5.0000 (charges/Ang^2)
    Threshold for non-H atoms                     ...       5.0000 (charges/Ang^2)
  Epsilon function type                           ...         CPCM
Solvent:                                          ... ACETONITRILE
SMD-CDS solvent descriptors:
  Soln                                            ...       1.3442
  Soln25                                          ...       1.3416
  Sola                                            ...       0.0700
  Solb                                            ...       0.3200
  Solg                                            ...      41.2500
  Solc                                            ...       0.0000
  Solh                                            ...       0.0000
Radii:
  Scheme                                          ... Element-dependent radii
  Radius for C  used is    3.4960 Bohr (=   1.8500 Ang.)
  Radius for O  used is    4.0969 Bohr (=   2.1680 Ang.)
  Radius for F  used is    3.2692 Bohr (=   1.7300 Ang.)
  Radius for H  used is    2.2677 Bohr (=   1.2000 Ang.)
Calculating surface                               ...        done! (  0.0s)
Cavity surface points                             ...         2194
Cavity Volume                                     ...    2116.2913
Cavity Surface-area                               ...    1110.1486
Calculating surface distance matrix               ...        done! (  0.0s)
Performing Cholesky decomposition & store         ...        done! (  0.1s)
Overall time for CPCM initialization              ...                 0.2s

----------------------------------------D-I-I-S--------------------------------------------
Iteration    Energy (Eh)           Delta-E    RMSDP     MaxDP     DIISErr   Damp  Time(sec)
-------------------------------------------------------------------------------------------
               ***  Starting incremental Fock matrix formation  ***
    1    -1854.0130740209642681     0.00e+00  1.82e-04  1.30e-02  1.30e-01  0.850   6.7
Warning: op=1 Small HOMO/LUMO gap (   0.032) - skipping pre-diagonalization
         Will do a full diagonalization
    2    -1854.1301292144453328    -1.17e-01  1.74e-04  1.10e-02  8.58e-02  0.850   4.6
                               ***Turning on AO-DIIS***
    3    -1854.1915371548520852    -6.14e-02  8.05e-05  5.41e-03  4.71e-02  0.850   4.7
    4    -1854.2281994751965613    -3.67e-02  5.31e-05  3.52e-03  3.57e-02  0.850   4.6
    5    -1854.2542811990369955    -2.61e-02  4.44e-05  3.81e-03  3.08e-02  0.850   4.6
    6    -1854.2750656611233353    -2.08e-02  3.97e-05  3.76e-03  2.71e-02  0.850   4.2
    7    -1854.2924941835590289    -1.74e-02  2.42e-04  2.37e-02  2.32e-02  0.000   4.3
    8    -1854.3847324874514015    -9.22e-02  3.00e-05  3.30e-03  5.87e-03  0.000   4.8
    9    -1854.3847954862449114    -6.30e-05  1.26e-05  1.35e-03  5.32e-03  0.000   3.9
   10    -1854.3850636293418574    -2.68e-04  5.79e-06  4.74e-04  1.23e-03  0.000   4.0
                              *** Initializing SOSCF ***
---------------------------------------S-O-S-C-F--------------------------------------
Iteration    Energy (Eh)           Delta-E    RMSDP     MaxDP     MaxGrad    Time(sec)
--------------------------------------------------------------------------------------
   11    -1854.3850844719318047    -2.08e-05  2.86e-06  3.63e-04  3.84e-04     4.4
               *** Restarting incremental Fock matrix formation ***
   12    -1854.3850893591697968    -4.89e-06  2.74e-06  2.10e-04  2.66e-04     7.6
   13    -1854.3850902252524975    -8.66e-07  1.99e-06  1.49e-04  1.60e-04     4.8
   14    -1854.3850902940002925    -6.87e-08  1.18e-06  7.56e-05  1.92e-04     4.6
   15    -1854.3850905866784160    -2.93e-07  6.18e-07  3.21e-05  3.39e-05     4.1
   16    -1854.3850905652661822     2.14e-08  3.86e-07  2.36e-05  2.49e-05     4.0
   17    -1854.3850906223633501    -5.71e-08  1.59e-07  1.06e-05  3.40e-06     3.9
   18    -1854.3850906183452025     4.02e-09  9.75e-08  7.59e-06  4.85e-06     3.4
                 **** Energy Check signals convergence ****

               *****************************************************
               *                     SUCCESS                       *
               *           SCF CONVERGED AFTER  18 CYCLES          *
               *****************************************************

Recomputing exchange energy using gridx3       ... done (    8.914 sec)
Old exchange energy                            :    -19.916301212 Eh
New exchange energy                            :    -19.916278862 Eh
Exchange energy change after final integration :      0.000022350 Eh
Total energy after final integration           :  -1854.385068268 Eh

SMD CDS free energy correction energy :                 3.27759     Kcal/mol
Total Energy after SMD CDS correction =             -1854.379845089 Eh
             **** ENERGY FILE WAS UPDATED (rf_mecn_freq_TP_C4_P_B.en.tmp) ****

----------------
TOTAL SCF ENERGY
----------------

Total Energy       :      -1854.37984508882801 Eh          -50460.24093 eV

Components:
Nuclear Repulsion  :       2672.81044907673277 Eh           72730.86989 eV
Electronic Energy  :      -4527.18280850506380 Eh         -123190.90712 eV
One Electron Energy:      -7896.85116866228236 Eh         -214884.24480 eV
Two Electron Energy:       3369.66836015721856 Eh           91693.33768 eV
CPCM Dielectric    :         -0.01273119001445 Eh              -0.34643 eV
SMD CDS (Gcds)     :          0.00522317935620 Eh               0.14213 eV

Virial components:
Potential Energy   :      -3702.45102725340439 Eh         -100748.81442 eV
Kinetic Energy     :       1848.07118216457638 Eh           50288.57349 eV
Virial Ratio       :          2.00341364715014

DFT components:
N(Alpha)           :       96.000025683990 electrons
N(Beta)            :       95.000016954524 electrons
N(Total)           :      191.000042638514 electrons
E(X)               :     -180.980470767469 Eh       
E(C)               :       -6.718970635885 Eh       
E(XC)              :     -187.699441403354 Eh       

CPCM Solvation Model Properties:
Surface-charge          :         -0.00862763870506
Corrected charge        :         -0.00000000000000
Outlying charge corr.   :          0.00000412236199 Eh               0.00011 eV
Free-energy (cav+disp)  :          0.00522317935620 Eh               0.14213 eV

---------------
SCF CONVERGENCE
---------------

  Last Energy change         ...   -4.0181e-09  Tolerance :   1.0000e-08
  Last MAX-Density change    ...    7.5928e-06  Tolerance :   1.0000e-07
  Last RMS-Density change    ...    9.7461e-08  Tolerance :   5.0000e-09
  Last DIIS Error            ...    3.8420e-04  Tolerance :   5.0000e-07
  Last Orbital Gradient      ...    4.8489e-06  Tolerance :   1.0000e-05
  Last Orbital Rotation      ...    1.9939e-05  Tolerance :   1.0000e-05


----------------------
UHF SPIN CONTAMINATION
----------------------

Warning: in a DFT calculation there is little theoretical justification to 
         calculate <S**2> as in Hartree-Fock theory. We will do it anyways
         but you should keep in mind that the values have only limited relevance

Expectation value of <S**2>     :     0.755538
Ideal value S*(S+1) for S=0.5   :     0.750000
Deviation                       :     0.005538

----------------
ORBITAL ENERGIES
----------------
                 SPIN UP ORBITALS
  NO   OCC          E(Eh)            E(eV) 
   0   1.0000     -24.675042      -671.4420 
   1   1.0000     -24.662132      -671.0907 
   2   1.0000     -24.661185      -671.0650 
   3   1.0000     -24.661151      -671.0640 
   4   1.0000     -24.660623      -671.0497 
   5   1.0000     -24.660615      -671.0495 
   6   1.0000     -24.660379      -671.0430 
   7   1.0000     -24.659591      -671.0216 
   8   1.0000     -24.658363      -670.9882 
   9   1.0000     -24.652755      -670.8356 
  10   1.0000     -24.651449      -670.8000 
  11   1.0000     -24.649724      -670.7531 
  12   1.0000     -24.648558      -670.7214 
  13   1.0000     -24.648514      -670.7202 
  14   1.0000     -19.131687      -520.5997 
  15   1.0000     -19.078458      -519.1512 
  16   1.0000     -10.396691      -282.9083 
  17   1.0000     -10.344874      -281.4983 
  18   1.0000     -10.344762      -281.4953 
  19   1.0000     -10.344065      -281.4763 
  20   1.0000     -10.339954      -281.3644 
  21   1.0000     -10.327862      -281.0354 
  22   1.0000     -10.279252      -279.7127 
  23   1.0000     -10.269056      -279.4352 
  24   1.0000      -1.323122       -36.0040 
  25   1.0000      -1.296815       -35.2881 
  26   1.0000      -1.285703       -34.9858 
  27   1.0000      -1.279164       -34.8078 
  28   1.0000      -1.274356       -34.6770 
  29   1.0000      -1.268790       -34.5255 
  30   1.0000      -1.263506       -34.3817 
  31   1.0000      -1.238159       -33.6920 
  32   1.0000      -1.232425       -33.5360 
  33   1.0000      -1.230101       -33.4728 
  34   1.0000      -1.222906       -33.2770 
  35   1.0000      -1.221541       -33.2398 
  36   1.0000      -1.217244       -33.1229 
  37   1.0000      -1.211414       -32.9643 
  38   1.0000      -1.117713       -30.4145 
  39   1.0000      -1.033709       -28.1287 
  40   1.0000      -0.837024       -22.7766 
  41   1.0000      -0.814294       -22.1581 
  42   1.0000      -0.786498       -21.4017 
  43   1.0000      -0.753803       -20.5120 
  44   1.0000      -0.713646       -19.4193 
  45   1.0000      -0.673660       -18.3312 
  46   1.0000      -0.654055       -17.7977 
  47   1.0000      -0.638300       -17.3690 
  48   1.0000      -0.623359       -16.9625 
  49   1.0000      -0.619308       -16.8522 
  50   1.0000      -0.610898       -16.6234 
  51   1.0000      -0.600900       -16.3513 
  52   1.0000      -0.600301       -16.3350 
  53   1.0000      -0.595775       -16.2119 
  54   1.0000      -0.586182       -15.9508 
  55   1.0000      -0.584651       -15.9092 
  56   1.0000      -0.583040       -15.8653 
  57   1.0000      -0.570486       -15.5237 
  58   1.0000      -0.568202       -15.4616 
  59   1.0000      -0.555833       -15.1250 
  60   1.0000      -0.552075       -15.0227 
  61   1.0000      -0.544180       -14.8079 
  62   1.0000      -0.508838       -13.8462 
  63   1.0000      -0.495755       -13.4902 
  64   1.0000      -0.486433       -13.2365 
  65   1.0000      -0.482389       -13.1265 
  66   1.0000      -0.476015       -12.9530 
  67   1.0000      -0.471562       -12.8318 
  68   1.0000      -0.470425       -12.8009 
  69   1.0000      -0.467387       -12.7182 
  70   1.0000      -0.463311       -12.6073 
  71   1.0000      -0.459470       -12.5028 
  72   1.0000      -0.456268       -12.4157 
  73   1.0000      -0.454333       -12.3630 
  74   1.0000      -0.449271       -12.2253 
  75   1.0000      -0.445536       -12.1237 
  76   1.0000      -0.442327       -12.0363 
  77   1.0000      -0.440831       -11.9956 
  78   1.0000      -0.437933       -11.9168 
  79   1.0000      -0.435351       -11.8465 
  80   1.0000      -0.431921       -11.7532 
  81   1.0000      -0.424934       -11.5630 
  82   1.0000      -0.423368       -11.5204 
  83   1.0000      -0.422209       -11.4889 
  84   1.0000      -0.419946       -11.4273 
  85   1.0000      -0.415729       -11.3126 
  86   1.0000      -0.413105       -11.2412 
  87   1.0000      -0.411938       -11.2094 
  88   1.0000      -0.410596       -11.1729 
  89   1.0000      -0.403442       -10.9782 
  90   1.0000      -0.387349       -10.5403 
  91   1.0000      -0.361191        -9.8285 
  92   1.0000      -0.339530        -9.2391 
  93   1.0000      -0.337441        -9.1822 
  94   1.0000      -0.298241        -8.1156 
  95   1.0000      -0.258770        -7.0415 
  96   0.0000      -0.058432        -1.5900 
  97   0.0000      -0.023697        -0.6448 
  98   0.0000       0.004138         0.1126 
  99   0.0000       0.019715         0.5365 
 100   0.0000       0.039433         1.0730 
 101   0.0000       0.057162         1.5555 
 102   0.0000       0.068866         1.8739 
 103   0.0000       0.085165         2.3174 
 104   0.0000       0.096223         2.6184 
 105   0.0000       0.099461         2.7065 
 106   0.0000       0.111042         3.0216 

                 SPIN DOWN ORBITALS
  NO   OCC          E(Eh)            E(eV) 
   0   1.0000     -24.670644      -671.3224 
   1   1.0000     -24.662133      -671.0908 
   2   1.0000     -24.661149      -671.0640 
   3   1.0000     -24.661080      -671.0621 
   4   1.0000     -24.660617      -671.0495 
   5   1.0000     -24.660587      -671.0487 
   6   1.0000     -24.660362      -671.0426 
   7   1.0000     -24.659585      -671.0214 
   8   1.0000     -24.658264      -670.9855 
   9   1.0000     -24.652331      -670.8240 
  10   1.0000     -24.651003      -670.7879 
  11   1.0000     -24.648545      -670.7210 
  12   1.0000     -24.648507      -670.7200 
  13   1.0000     -24.648391      -670.7168 
  14   1.0000     -19.131643      -520.5985 
  15   1.0000     -19.078260      -519.1458 
  16   1.0000     -10.396664      -282.9076 
  17   1.0000     -10.345740      -281.5219 
  18   1.0000     -10.344707      -281.4938 
  19   1.0000     -10.343625      -281.4643 
  20   1.0000     -10.340957      -281.3917 
  21   1.0000     -10.327100      -281.0147 
  22   1.0000     -10.279148      -279.7098 
  23   1.0000     -10.253413      -279.0096 
  24   1.0000      -1.323095       -36.0032 
  25   1.0000      -1.296118       -35.2692 
  26   1.0000      -1.284161       -34.9438 
  27   1.0000      -1.278944       -34.8018 
  28   1.0000      -1.273438       -34.6520 
  29   1.0000      -1.266536       -34.4642 
  30   1.0000      -1.258106       -34.2348 
  31   1.0000      -1.238096       -33.6903 
  32   1.0000      -1.232400       -33.5353 
  33   1.0000      -1.229849       -33.4659 
  34   1.0000      -1.222750       -33.2727 
  35   1.0000      -1.220776       -33.2190 
  36   1.0000      -1.215651       -33.0795 
  37   1.0000      -1.210995       -32.9528 
  38   1.0000      -1.117544       -30.4099 
  39   1.0000      -1.033433       -28.1212 
  40   1.0000      -0.826639       -22.4940 
  41   1.0000      -0.809884       -22.0381 
  42   1.0000      -0.784175       -21.3385 
  43   1.0000      -0.747501       -20.3405 
  44   1.0000      -0.712653       -19.3923 
  45   1.0000      -0.670937       -18.2571 
  46   1.0000      -0.650089       -17.6898 
  47   1.0000      -0.636517       -17.3205 
  48   1.0000      -0.622490       -16.9388 
  49   1.0000      -0.618079       -16.8188 
  50   1.0000      -0.610687       -16.6176 
  51   1.0000      -0.599179       -16.3045 
  52   1.0000      -0.598546       -16.2873 
  53   1.0000      -0.591796       -16.1036 
  54   1.0000      -0.584975       -15.9180 
  55   1.0000      -0.582632       -15.8542 
  56   1.0000      -0.582040       -15.8381 
  57   1.0000      -0.569092       -15.4858 
  58   1.0000      -0.567631       -15.4460 
  59   1.0000      -0.554678       -15.0936 
  60   1.0000      -0.550303       -14.9745 
  61   1.0000      -0.543465       -14.7884 
  62   1.0000      -0.495653       -13.4874 
  63   1.0000      -0.486389       -13.2353 
  64   1.0000      -0.485367       -13.2075 
  65   1.0000      -0.478688       -13.0258 
  66   1.0000      -0.473744       -12.8912 
  67   1.0000      -0.471010       -12.8168 
  68   1.0000      -0.469678       -12.7806 
  69   1.0000      -0.466622       -12.6974 
  70   1.0000      -0.461923       -12.5696 
  71   1.0000      -0.459001       -12.4900 
  72   1.0000      -0.455467       -12.3939 
  73   1.0000      -0.453485       -12.3400 
  74   1.0000      -0.448333       -12.1998 
  75   1.0000      -0.444524       -12.0961 
  76   1.0000      -0.440867       -11.9966 
  77   1.0000      -0.439632       -11.9630 
  78   1.0000      -0.436125       -11.8676 
  79   1.0000      -0.434698       -11.8287 
  80   1.0000      -0.430496       -11.7144 
  81   1.0000      -0.424843       -11.5606 
  82   1.0000      -0.422708       -11.5025 
  83   1.0000      -0.421939       -11.4816 
  84   1.0000      -0.419296       -11.4096 
  85   1.0000      -0.415087       -11.2951 
  86   1.0000      -0.412957       -11.2371 
  87   1.0000      -0.411059       -11.1855 
  88   1.0000      -0.410036       -11.1577 
  89   1.0000      -0.402494       -10.9524 
  90   1.0000      -0.385998       -10.5035 
  91   1.0000      -0.358341        -9.7510 
  92   1.0000      -0.338672        -9.2157 
  93   1.0000      -0.336143        -9.1469 
  94   1.0000      -0.296140        -8.0584 
  95   0.0000      -0.138473        -3.7680 
  96   0.0000      -0.054165        -1.4739 
  97   0.0000      -0.019109        -0.5200 
  98   0.0000       0.006789         0.1848 
  99   0.0000       0.022925         0.6238 
 100   0.0000       0.040588         1.1044 
 101   0.0000       0.060631         1.6499 
 102   0.0000       0.077415         2.1066 
 103   0.0000       0.092045         2.5047 
 104   0.0000       0.101215         2.7542 
 105   0.0000       0.104469         2.8428 
*Only the first 10 virtual orbitals were printed.

                    ********************************
                    * MULLIKEN POPULATION ANALYSIS *
                    ********************************

--------------------------------------------
MULLIKEN ATOMIC CHARGES AND SPIN POPULATIONS
--------------------------------------------
   0 C :    0.220235    0.003641
   1 O :   -0.342247    0.001103
   2 O :   -0.288815    0.006938
   3 C :    0.370287    0.030517
   4 C :    0.323303   -0.030582
   5 C :    0.107865    0.855000
   6 C :    0.331065   -0.003470
   7 C :    0.277889    0.006696
   8 C :    0.295071    0.002452
   9 C :    0.410038    0.001099
  10 F :   -0.167572   -0.000243
  11 F :   -0.164550   -0.000375
  12 F :   -0.156826    0.006687
  13 F :   -0.158693    0.007964
  14 F :   -0.126505    0.083958
  15 F :   -0.155925    0.000532
  16 F :   -0.157406    0.025155
  17 F :   -0.155089    0.000147
  18 F :   -0.150536    0.002089
  19 F :   -0.146432   -0.000085
  20 F :   -0.144275    0.000146
  21 F :   -0.136152   -0.000042
  22 F :   -0.132812    0.000321
  23 F :   -0.133284    0.000026
  24 H :    0.381364    0.000326
Sum of atomic charges         :   -0.0000000
Sum of atomic spin populations:    1.0000000

-----------------------------------------------------
MULLIKEN REDUCED ORBITAL CHARGES AND SPIN POPULATIONS
-----------------------------------------------------
CHARGE
  0 C s       :     3.098510  s :     3.098510
      pz      :     0.771610  p :     2.390360
      px      :     0.861868
      py      :     0.756882
      dz2     :     0.063636  d :     0.266825
      dxz     :     0.053366
      dyz     :     0.036675
      dx2y2   :     0.066612
      dxy     :     0.046535
      f0      :     0.002135  f :     0.024071
      f+1     :     0.003028
      f-1     :     0.003907
      f+2     :     0.004809
      f-2     :     0.003852
      f+3     :     0.003102
      f-3     :     0.003239

  1 O s       :     3.773253  s :     3.773253
      pz      :     1.628920  p :     4.535774
      px      :     1.293050
      py      :     1.613803
      dz2     :     0.005993  d :     0.031396
      dxz     :     0.005722
      dyz     :     0.006125
      dx2y2   :     0.008003
      dxy     :     0.005553
      f0      :     0.000196  f :     0.001824
      f+1     :     0.000227
      f-1     :     0.000211
      f+2     :     0.000284
      f-2     :     0.000303
      f+3     :     0.000380
      f-3     :     0.000223

  2 O s       :     3.805036  s :     3.805036
      pz      :     1.362751  p :     4.451501
      px      :     1.712028
      py      :     1.376722
      dz2     :     0.008750  d :     0.030301
      dxz     :     0.004711
      dyz     :     0.007172
      dx2y2   :     0.005050
      dxy     :     0.004617
      f0      :     0.000287  f :     0.001977
      f+1     :     0.000178
      f-1     :     0.000434
      f+2     :     0.000354
      f-2     :     0.000335
      f+3     :     0.000194
      f-3     :     0.000196

  3 C s       :     3.055719  s :     3.055719
      pz      :     0.756123  p :     2.249483
      px      :     0.838826
      py      :     0.654534
      dz2     :     0.058959  d :     0.296409
      dxz     :     0.044194
      dyz     :     0.070020
      dx2y2   :     0.061348
      dxy     :     0.061886
      f0      :     0.004542  f :     0.028102
      f+1     :     0.003099
      f-1     :     0.003820
      f+2     :     0.005234
      f-2     :     0.003458
      f+3     :     0.004669
      f-3     :     0.003279

  4 C s       :     3.080604  s :     3.080604
      pz      :     0.777771  p :     2.256699
      px      :     0.803395
      py      :     0.675532
      dz2     :     0.060460  d :     0.311304
      dxz     :     0.052210
      dyz     :     0.072611
      dx2y2   :     0.057768
      dxy     :     0.068253
      f0      :     0.004323  f :     0.028091
      f+1     :     0.003242
      f-1     :     0.003793
      f+2     :     0.005278
      f-2     :     0.003426
      f+3     :     0.004738
      f-3     :     0.003292

  5 C s       :     3.225650  s :     3.225650
      pz      :     0.840142  p :     2.487068
      px      :     0.875422
      py      :     0.771503
      dz2     :     0.029247  d :     0.161390
      dxz     :     0.037558
      dyz     :     0.019593
      dx2y2   :     0.031315
      dxy     :     0.043677
      f0      :     0.001914  f :     0.018028
      f+1     :     0.001443
      f-1     :     0.003783
      f+2     :     0.002599
      f-2     :     0.003071
      f+3     :     0.002990
      f-3     :     0.002228

  6 C s       :     3.068455  s :     3.068455
      pz      :     0.644478  p :     2.263516
      px      :     0.873027
      py      :     0.746010
      dz2     :     0.075962  d :     0.308989
      dxz     :     0.070487
      dyz     :     0.053930
      dx2y2   :     0.045554
      dxy     :     0.063056
      f0      :     0.005464  f :     0.027976
      f+1     :     0.002918
      f-1     :     0.004445
      f+2     :     0.005830
      f-2     :     0.004518
      f+3     :     0.002308
      f-3     :     0.002492

  7 C s       :     3.136761  s :     3.136761
      pz      :     0.686136  p :     2.255072
      px      :     0.834320
      py      :     0.734615
      dz2     :     0.071494  d :     0.301816
      dxz     :     0.058181
      dyz     :     0.060836
      dx2y2   :     0.052148
      dxy     :     0.059158
      f0      :     0.004626  f :     0.028462
      f+1     :     0.002817
      f-1     :     0.005171
      f+2     :     0.005755
      f-2     :     0.003880
      f+3     :     0.002840
      f-3     :     0.003373

  8 C s       :     3.102667  s :     3.102667
      pz      :     0.674593  p :     2.276896
      px      :     0.896145
      py      :     0.706158
      dz2     :     0.062409  d :     0.296861
      dxz     :     0.058784
      dyz     :     0.068790
      dx2y2   :     0.040383
      dxy     :     0.066496
      f0      :     0.004698  f :     0.028504
      f+1     :     0.002950
      f-1     :     0.006872
      f+2     :     0.003901
      f-2     :     0.003422
      f+3     :     0.003215
      f-3     :     0.003446

  9 C s       :     3.020950  s :     3.020950
      pz      :     0.641534  p :     2.165818
      px      :     0.822704
      py      :     0.701580
      dz2     :     0.081358  d :     0.362778
      dxz     :     0.060307
      dyz     :     0.086930
      dx2y2   :     0.063586
      dxy     :     0.070598
      f0      :     0.007541  f :     0.040416
      f+1     :     0.004603
      f-1     :     0.006474
      f+2     :     0.007455
      f-2     :     0.005528
      f+3     :     0.004818
      f-3     :     0.003996

 10 F s       :     3.918742  s :     3.918742
      pz      :     1.876042  p :     5.232665
      px      :     1.884555
      py      :     1.472068
      dz2     :     0.002010  d :     0.015473
      dxz     :     0.000392
      dyz     :     0.003711
      dx2y2   :     0.005667
      dxy     :     0.003693
      f0      :     0.000067  f :     0.000692
      f+1     :     0.000010
      f-1     :     0.000120
      f+2     :     0.000112
      f-2     :     0.000033
      f+3     :     0.000154
      f-3     :     0.000196

 11 F s       :     3.919656  s :     3.919656
      pz      :     1.615649  p :     5.228454
      px      :     1.755433
      py      :     1.857371
      dz2     :     0.004325  d :     0.015729
      dxz     :     0.005452
      dyz     :     0.002867
      dx2y2   :     0.001531
      dxy     :     0.001555
      f0      :     0.000111  f :     0.000711
      f+1     :     0.000216
      f-1     :     0.000086
      f+2     :     0.000116
      f-2     :     0.000131
      f+3     :     0.000023
      f-3     :     0.000029

 12 F s       :     3.919283  s :     3.919283
      pz      :     1.873304  p :     5.221360
      px      :     1.885566
      py      :     1.462490
      dz2     :     0.002042  d :     0.015492
      dxz     :     0.000414
      dyz     :     0.003814
      dx2y2   :     0.005789
      dxy     :     0.003434
      f0      :     0.000070  f :     0.000692
      f+1     :     0.000009
      f-1     :     0.000123
      f+2     :     0.000121
      f-2     :     0.000030
      f+3     :     0.000140
      f-3     :     0.000199

 13 F s       :     3.918302  s :     3.918302
      pz      :     1.626765  p :     5.224335
      px      :     1.734554
      py      :     1.863016
      dz2     :     0.003977  d :     0.015371
      dxz     :     0.005553
      dyz     :     0.002558
      dx2y2   :     0.001701
      dxy     :     0.001582
      f0      :     0.000097  f :     0.000685
      f+1     :     0.000214
      f-1     :     0.000070
      f+2     :     0.000124
      f-2     :     0.000125
      f+3     :     0.000026
      f-3     :     0.000030

 14 F s       :     3.920300  s :     3.920300
      pz      :     1.680647  p :     5.187919
      px      :     1.894263
      py      :     1.613009
      dz2     :     0.003777  d :     0.017531
      dxz     :     0.001878
      dyz     :     0.006057
      dx2y2   :     0.003374
      dxy     :     0.002444
      f0      :     0.000083  f :     0.000755
      f+1     :     0.000020
      f-1     :     0.000209
      f+2     :     0.000191
      f-2     :     0.000117
      f+3     :     0.000063
      f-3     :     0.000071

 15 F s       :     3.923099  s :     3.923099
      pz      :     1.626874  p :     5.216276
      px      :     1.879584
      py      :     1.709818
      dz2     :     0.003565  d :     0.015851
      dxz     :     0.002520
      dyz     :     0.005805
      dx2y2   :     0.001860
      dxy     :     0.002100
      f0      :     0.000085  f :     0.000699
      f+1     :     0.000062
      f-1     :     0.000222
      f+2     :     0.000132
      f-2     :     0.000132
      f+3     :     0.000038
      f-3     :     0.000028

 16 F s       :     3.917221  s :     3.917221
      pz      :     1.649747  p :     5.224455
      px      :     1.832760
      py      :     1.741949
      dz2     :     0.003164  d :     0.015059
      dxz     :     0.003241
      dyz     :     0.004864
      dx2y2   :     0.001594
      dxy     :     0.002195
      f0      :     0.000075  f :     0.000671
      f+1     :     0.000099
      f-1     :     0.000164
      f+2     :     0.000100
      f-2     :     0.000164
      f+3     :     0.000037
      f-3     :     0.000033

 17 F s       :     3.922460  s :     3.922460
      pz      :     1.764226  p :     5.215960
      px      :     1.812745
      py      :     1.638988
      dz2     :     0.002193  d :     0.015961
      dxz     :     0.002299
      dyz     :     0.004711
      dx2y2   :     0.002872
      dxy     :     0.003885
      f0      :     0.000075  f :     0.000708
      f+1     :     0.000044
      f-1     :     0.000109
      f+2     :     0.000112
      f-2     :     0.000182
      f+3     :     0.000107
      f-3     :     0.000078

 18 F s       :     3.918857  s :     3.918857
      pz      :     1.599982  p :     5.214962
      px      :     1.811837
      py      :     1.803143
      dz2     :     0.004359  d :     0.016009
      dxz     :     0.004396
      dyz     :     0.004187
      dx2y2   :     0.001251
      dxy     :     0.001817
      f0      :     0.000106  f :     0.000708
      f+1     :     0.000164
      f-1     :     0.000155
      f+2     :     0.000087
      f-2     :     0.000150
      f+3     :     0.000020
      f-3     :     0.000024

 19 F s       :     3.917670  s :     3.917670
      pz      :     1.825055  p :     5.212047
      px      :     1.874922
      py      :     1.512070
      dz2     :     0.001991  d :     0.016003
      dxz     :     0.000865
      dyz     :     0.004589
      dx2y2   :     0.004699
      dxy     :     0.003859
      f0      :     0.000079  f :     0.000712
      f+1     :     0.000013
      f-1     :     0.000110
      f+2     :     0.000147
      f-2     :     0.000082
      f+3     :     0.000146
      f-3     :     0.000136

 20 F s       :     3.915604  s :     3.915604
      pz      :     1.498303  p :     5.211848
      px      :     1.837781
      py      :     1.875764
      dz2     :     0.006696  d :     0.016099
      dxz     :     0.004999
      dyz     :     0.003050
      dx2y2   :     0.000649
      dxy     :     0.000705
      f0      :     0.000231  f :     0.000723
      f+1     :     0.000244
      f-1     :     0.000120
      f+2     :     0.000059
      f-2     :     0.000060
      f+3     :     0.000005
      f-3     :     0.000005

 21 F s       :     3.912912  s :     3.912912
      pz      :     1.857748  p :     5.206314
      px      :     1.874535
      py      :     1.474031
      dz2     :     0.002135  d :     0.016168
      dxz     :     0.000543
      dyz     :     0.003903
      dx2y2   :     0.005653
      dxy     :     0.003935
      f0      :     0.000075  f :     0.000759
      f+1     :     0.000013
      f-1     :     0.000131
      f+2     :     0.000125
      f-2     :     0.000051
      f+3     :     0.000177
      f-3     :     0.000187

 22 F s       :     3.911293  s :     3.911293
      pz      :     1.657456  p :     5.204525
      px      :     1.733558
      py      :     1.813511
      dz2     :     0.003166  d :     0.016225
      dxz     :     0.005180
      dyz     :     0.003468
      dx2y2   :     0.001986
      dxy     :     0.002426
      f0      :     0.000092  f :     0.000769
      f+1     :     0.000167
      f-1     :     0.000104
      f+2     :     0.000117
      f-2     :     0.000195
      f+3     :     0.000047
      f-3     :     0.000048

 23 F s       :     3.911388  s :     3.911388
      pz      :     1.554599  p :     5.204790
      px      :     1.765518
      py      :     1.884674
      dz2     :     0.005402  d :     0.016333
      dxz     :     0.006046
      dyz     :     0.002552
      dx2y2   :     0.001317
      dxy     :     0.001016
      f0      :     0.000165  f :     0.000773
      f+1     :     0.000295
      f-1     :     0.000080
      f+2     :     0.000119
      f-2     :     0.000085
      f+3     :     0.000015
      f-3     :     0.000013

 24 H s       :     0.576910  s :     0.576910
      pz      :     0.011424  p :     0.041727
      px      :     0.019281
      py      :     0.011022


SPIN
  0 C s       :     0.001845  s :     0.001845
      pz      :    -0.001356  p :     0.001125
      px      :     0.001826
      py      :     0.000655
      dz2     :     0.000079  d :     0.000630
      dxz     :     0.000033
      dyz     :    -0.000004
      dx2y2   :    -0.000017
      dxy     :     0.000539
      f0      :     0.000013  f :     0.000041
      f+1     :     0.000014
      f-1     :     0.000008
      f+2     :     0.000007
      f-2     :    -0.000002
      f+3     :    -0.000006
      f-3     :     0.000008

  1 O s       :     0.000005  s :     0.000005
      pz      :     0.001187  p :     0.001061
      px      :     0.000195
      py      :    -0.000321
      dz2     :     0.000009  d :     0.000037
      dxz     :     0.000011
      dyz     :     0.000001
      dx2y2   :     0.000015
      dxy     :     0.000000
      f0      :    -0.000000  f :     0.000000
      f+1     :    -0.000000
      f-1     :     0.000000
      f+2     :     0.000000
      f-2     :    -0.000000
      f+3     :     0.000000
      f-3     :     0.000000

  2 O s       :     0.000282  s :     0.000282
      pz      :     0.002090  p :     0.006674
      px      :     0.002921
      py      :     0.001663
      dz2     :    -0.000014  d :    -0.000015
      dxz     :     0.000002
      dyz     :    -0.000003
      dx2y2   :     0.000006
      dxy     :    -0.000006
      f0      :    -0.000001  f :    -0.000003
      f+1     :    -0.000001
      f-1     :    -0.000002
      f+2     :    -0.000001
      f-2     :    -0.000000
      f+3     :     0.000001
      f-3     :     0.000001

  3 C s       :    -0.000299  s :    -0.000299
      pz      :     0.015380  p :     0.026399
      px      :     0.003587
      py      :     0.007432
      dz2     :     0.000250  d :     0.004409
      dxz     :     0.001854
      dyz     :     0.000271
      dx2y2   :     0.001864
      dxy     :     0.000170
      f0      :    -0.000003  f :     0.000007
      f+1     :    -0.000014
      f-1     :     0.000016
      f+2     :     0.000022
      f-2     :    -0.000007
      f+3     :     0.000000
      f-3     :    -0.000007

  4 C s       :    -0.012305  s :    -0.012305
      pz      :    -0.011872  p :    -0.040022
      px      :    -0.024748
      py      :    -0.003402
      dz2     :     0.001880  d :     0.020578
      dxz     :     0.012784
      dyz     :     0.001480
      dx2y2   :    -0.000844
      dxy     :     0.005278
      f0      :     0.000146  f :     0.001166
      f+1     :     0.000256
      f-1     :     0.000010
      f+2     :     0.000229
      f-2     :     0.000008
      f+3     :    -0.000019
      f-3     :     0.000537

  5 C s       :     0.055553  s :     0.055553
      pz      :     0.431507  p :     0.797727
      px      :     0.042035
      py      :     0.324185
      dz2     :     0.001934  d :     0.003955
      dxz     :     0.001183
      dyz     :    -0.000325
      dx2y2   :    -0.000011
      dxy     :     0.001174
      f0      :    -0.000364  f :    -0.002234
      f+1     :    -0.000192
      f-1     :    -0.000672
      f+2     :    -0.000361
      f-2     :    -0.000372
      f+3     :    -0.000166
      f-3     :    -0.000108

  6 C s       :    -0.010557  s :    -0.010557
      pz      :     0.005337  p :    -0.011461
      px      :    -0.023330
      py      :     0.006532
      dz2     :    -0.000044  d :     0.017300
      dxz     :     0.008322
      dyz     :     0.001092
      dx2y2   :     0.003243
      dxy     :     0.004686
      f0      :     0.000091  f :     0.001248
      f+1     :     0.000402
      f-1     :     0.000185
      f+2     :     0.000251
      f-2     :     0.000039
      f+3     :     0.000232
      f-3     :     0.000049

  7 C s       :    -0.002068  s :    -0.002068
      pz      :     0.003837  p :     0.007988
      px      :    -0.004032
      py      :     0.008183
      dz2     :    -0.000096  d :     0.000730
      dxz     :     0.000299
      dyz     :     0.000100
      dx2y2   :     0.000343
      dxy     :     0.000085
      f0      :     0.000005  f :     0.000046
      f+1     :     0.000010
      f-1     :    -0.000008
      f+2     :     0.000003
      f-2     :    -0.000002
      f+3     :     0.000031
      f-3     :     0.000007

  8 C s       :     0.000057  s :     0.000057
      pz      :     0.000548  p :     0.002015
      px      :     0.000423
      py      :     0.001044
      dz2     :    -0.000001  d :     0.000366
      dxz     :     0.000098
      dyz     :     0.000007
      dx2y2   :     0.000239
      dxy     :     0.000022
      f0      :     0.000000  f :     0.000015
      f+1     :     0.000003
      f-1     :    -0.000001
      f+2     :     0.000005
      f-2     :     0.000003
      f+3     :     0.000006
      f-3     :    -0.000002

  9 C s       :     0.000525  s :     0.000525
      pz      :    -0.000001  p :     0.000537
      px      :     0.000139
      py      :     0.000399
      dz2     :     0.000003  d :     0.000031
      dxz     :     0.000010
      dyz     :    -0.000004
      dx2y2   :    -0.000010
      dxy     :     0.000032
      f0      :    -0.000000  f :     0.000006
      f+1     :    -0.000001
      f-1     :     0.000002
      f+2     :     0.000001
      f-2     :    -0.000000
      f+3     :     0.000005
      f-3     :     0.000000

 10 F s       :     0.000214  s :     0.000214
      pz      :     0.000877  p :    -0.000522
      px      :    -0.000580
      py      :    -0.000819
      dz2     :     0.000001  d :     0.000062
      dxz     :     0.000025
      dyz     :     0.000016
      dx2y2   :     0.000023
      dxy     :    -0.000003
      f0      :     0.000000  f :     0.000003
      f+1     :    -0.000000
      f-1     :     0.000000
      f+2     :     0.000000
      f-2     :     0.000001
      f+3     :    -0.000000
      f-3     :     0.000001

 11 F s       :    -0.000002  s :    -0.000002
      pz      :    -0.000857  p :    -0.000448
      px      :    -0.000617
      py      :     0.001026
      dz2     :     0.000016  d :     0.000072
      dxz     :     0.000015
      dyz     :     0.000003
      dx2y2   :     0.000019
      dxy     :     0.000019
      f0      :     0.000001  f :     0.000003
      f+1     :     0.000001
      f-1     :    -0.000000
      f+2     :     0.000000
      f-2     :     0.000000
      f+3     :    -0.000000
      f-3     :     0.000000

 12 F s       :    -0.000422  s :    -0.000422
      pz      :     0.002592  p :     0.007073
      px      :    -0.000796
      py      :     0.005277
      dz2     :     0.000005  d :     0.000032
      dxz     :     0.000056
      dyz     :    -0.000020
      dx2y2   :    -0.000007
      dxy     :    -0.000002
      f0      :    -0.000000  f :     0.000004
      f+1     :     0.000000
      f-1     :     0.000000
      f+2     :     0.000001
      f-2     :     0.000001
      f+3     :     0.000002
      f-3     :    -0.000000

 13 F s       :    -0.000048  s :    -0.000048
      pz      :     0.002839  p :     0.008022
      px      :     0.003495
      py      :     0.001688
      dz2     :    -0.000030  d :    -0.000015
      dxz     :     0.000012
      dyz     :    -0.000008
      dx2y2   :     0.000007
      dxy     :     0.000004
      f0      :     0.000000  f :     0.000004
      f+1     :     0.000002
      f-1     :     0.000000
      f+2     :     0.000001
      f-2     :     0.000000
      f+3     :     0.000000
      f-3     :     0.000001

 14 F s       :     0.004778  s :     0.004778
      pz      :     0.046846  p :     0.077574
      px      :     0.000065
      py      :     0.030664
      dz2     :     0.000985  d :     0.001582
      dxz     :     0.000031
      dyz     :     0.000203
      dx2y2   :     0.000285
[...]
 11:     57.38   0.000056    0.28  0.000304  ( 0.004566  0.016514  0.003303)
 12:     66.83   0.000492    2.49  0.002297  (-0.006593 -0.029504  0.037189)
 13:     72.02   0.000024    0.12  0.000104  (-0.001570  0.005293  0.008566)
 14:     99.22   0.000146    0.74  0.000458  (-0.011899  0.017782 -0.000222)
 15:    123.50   0.000666    3.36  0.001682  (-0.023999  0.001573 -0.033223)
 16:    142.12   0.000035    0.18  0.000077  ( 0.007961 -0.000928  0.003504)
 17:    175.96   0.001165    5.89  0.002065  ( 0.020237 -0.001296  0.040671)
 18:    179.98   0.000214    1.08  0.000370  (-0.012567 -0.003600 -0.014120)
 19:    196.46   0.001086    5.49  0.001724  (-0.024495  0.029281 -0.016343)
 20:    203.78   0.000159    0.80  0.000244  ( 0.000295  0.011103 -0.010972)
 21:    206.67   0.000433    2.19  0.000654  (-0.002959 -0.001336  0.025375)
 22:    229.76   0.000035    0.18  0.000048  ( 0.005761 -0.003791  0.000159)
 23:    231.53   0.000017    0.09  0.000023  (-0.001923  0.000624 -0.004382)
 24:    248.19   0.000400    2.02  0.000503  (-0.019598 -0.003807 -0.010235)
 25:    272.45   0.001398    7.07  0.001602  (-0.036830  0.006210  0.014371)
 26:    277.17   0.000528    2.67  0.000594  (-0.019028  0.006762  0.013651)
 27:    302.56   0.000011    0.06  0.000012  ( 0.001553 -0.002145  0.002138)
 28:    325.54   0.000150    0.76  0.000144  (-0.009398 -0.002069 -0.007143)
 29:    333.70   0.000168    0.85  0.000157  (-0.004679 -0.005711 -0.010139)
 30:    340.57   0.000112    0.57  0.000103  (-0.008409  0.000592  0.005647)
 31:    350.48   0.000053    0.27  0.000047  ( 0.001925  0.001790  0.006367)
 32:    364.29   0.000278    1.41  0.000238  ( 0.008803  0.011515  0.005297)
 33:    365.92   0.000168    0.85  0.000144  ( 0.010894  0.003632  0.003425)
 34:    398.43   0.000194    0.98  0.000152  (-0.006664  0.007182 -0.007495)
 35:    410.95   0.000670    3.39  0.000509  (-0.007715  0.018621  0.010135)
 36:    446.54   0.001698    8.58  0.001187  (-0.028592 -0.010431  0.016136)
 37:    493.28   0.002814   14.22  0.001780  ( 0.039720  0.008844 -0.011152)
 38:    512.94   0.004711   23.81  0.002866  (-0.028454 -0.019951  0.040725)
 39:    519.62   0.004619   23.34  0.002774  ( 0.034879 -0.038380 -0.009183)
 40:    547.71   0.000788    3.98  0.000449  (-0.018435  0.002893 -0.010038)
 41:    557.61   0.014805   74.82  0.008286  ( 0.075853  0.022471 -0.045022)
 42:    566.87   0.006064   30.64  0.003338  ( 0.032925  0.046419 -0.009963)
 43:    585.00   0.004284   21.65  0.002285  (-0.035873 -0.017256  0.026467)
 44:    595.14   0.014322   72.38  0.007510  ( 0.041327 -0.056201  0.051413)
 45:    614.61   0.017086   86.35  0.008675  (-0.076029  0.037427 -0.038654)
 46:    644.68   0.028151  142.26  0.013626  ( 0.097637 -0.056333  0.030332)
 47:    649.14   0.004042   20.43  0.001943  (-0.024732 -0.023439  0.027967)
 48:    688.63   0.019571   98.90  0.008869  ( 0.078439  0.025573 -0.045409)
 49:    705.67   0.012261   61.96  0.005422  (-0.059478 -0.014520  0.040909)
 50:    752.33   0.001057    5.34  0.000438  (-0.007111 -0.014696  0.013110)
 51:    763.56   0.012706   64.21  0.005193  ( 0.058008  0.014313 -0.040289)
 52:    861.07   0.015599   78.83  0.005653  (-0.004703 -0.014758  0.073575)
 53:    975.46   0.004851   24.52  0.001552  ( 0.033693 -0.006232  0.019442)
 54:   1042.29   0.039718  200.72  0.011892  ( 0.083404 -0.053665  0.045336)
 55:   1093.17   0.053643  271.09  0.015313  ( 0.031355  0.106925 -0.053825)
 56:   1111.80   0.003744   18.92  0.001051  (-0.027084 -0.009576  0.015021)
 57:   1112.59   0.046002  232.48  0.012903  ( 0.037254 -0.064799 -0.085534)
 58:   1119.25   0.055011  278.00  0.015338  (-0.101029 -0.059216  0.040305)
 59:   1132.06   0.108130  546.45  0.029807  ( 0.054312 -0.154310 -0.055188)
 60:   1135.05   0.035208  177.93  0.009680  ( 0.038257 -0.024601  0.087242)
 61:   1140.23   0.008704   43.99  0.002382  ( 0.026742  0.033353  0.023548)
 62:   1151.10   0.093125  470.62  0.025246  (-0.060144  0.028781 -0.144224)
 63:   1160.31   0.127444  644.05  0.034276  ( 0.012312 -0.166598 -0.079809)
 64:   1163.82   0.024981  126.24  0.006698  ( 0.037897 -0.060169 -0.040518)
 65:   1175.37   0.082340  416.11  0.021861  ( 0.048738 -0.025254  0.137289)
 66:   1198.75   0.006547   33.09  0.001704  (-0.027868  0.011218  0.028317)
 67:   1206.65   0.002998   15.15  0.000775  (-0.012907  0.006296 -0.023855)
 68:   1245.98   0.003469   17.53  0.000869  ( 0.026708 -0.002555  0.012203)
 69:   1309.14   0.028216  142.59  0.006726  (-0.068413  0.010231  0.044057)
 70:   1320.72   0.017155   86.69  0.004053  ( 0.059640 -0.018281 -0.012737)
 71:   1367.16   0.018659   94.30  0.004259  ( 0.054670  0.003662  0.035453)
 72:   1393.42   0.016147   81.60  0.003616  (-0.038541  0.038837  0.024952)
 73:   1807.26   0.092635  468.14  0.015995  (-0.012199 -0.083990 -0.093768)
 74:   3602.42   0.048939  247.32  0.004239  ( 0.064781 -0.006542  0.000231)

* The epsilon (eps) is given for a Dirac delta lineshape.
** The dipole moment derivative (T) already includes vibrational overlap.

The first frequency considered to be a vibration is 6
The total number of vibrations considered is 69


--------------------------
THERMOCHEMISTRY AT 298.15K
--------------------------

Temperature         ...   298.15 K
Pressure            ...     1.00 atm
Total Mass          ...   395.07 AMU
Quasi RRHO          ...     True
Cut-Off Frequency   ...     1.00 cm^-1

Throughout the following assumptions are being made:
  (1) The electronic state is orbitally nondegenerate
      but the spin degeneracy is treated
  (2) There are no thermally accessible electronically excited states
  (3) Hindered rotations indicated by low frequency modes are not
      treated as such but are treated as vibrations and this may
      cause some error
  (4) All equations used are the standard statistical mechanics
      equations for an ideal gas
  (5) All vibrations are strictly harmonic

freq.      15.01  E(vib)   ...       0.57 
freq.      27.66  E(vib)   ...       0.55 
freq.      33.79  E(vib)   ...       0.55 
freq.      38.79  E(vib)   ...       0.54 
freq.      52.85  E(vib)   ...       0.52 
freq.      57.38  E(vib)   ...       0.51 
freq.      66.83  E(vib)   ...       0.50 
freq.      72.02  E(vib)   ...       0.50 
freq.      99.22  E(vib)   ...       0.46 
freq.     123.50  E(vib)   ...       0.43 
freq.     142.12  E(vib)   ...       0.41 
freq.     175.96  E(vib)   ...       0.38 
freq.     179.98  E(vib)   ...       0.37 
freq.     196.46  E(vib)   ...       0.36 
freq.     203.78  E(vib)   ...       0.35 
freq.     206.67  E(vib)   ...       0.35 
freq.     229.76  E(vib)   ...       0.32 
freq.     231.53  E(vib)   ...       0.32 
freq.     248.19  E(vib)   ...       0.31 
freq.     272.45  E(vib)   ...       0.29 
freq.     277.17  E(vib)   ...       0.28 
freq.     302.56  E(vib)   ...       0.26 
freq.     325.54  E(vib)   ...       0.24 
freq.     333.70  E(vib)   ...       0.24 
freq.     340.57  E(vib)   ...       0.23 
freq.     350.48  E(vib)   ...       0.23 
freq.     364.29  E(vib)   ...       0.22 
freq.     365.92  E(vib)   ...       0.22 
freq.     398.43  E(vib)   ...       0.20 
freq.     410.95  E(vib)   ...       0.19 
freq.     446.54  E(vib)   ...       0.17 
freq.     493.28  E(vib)   ...       0.14 
freq.     512.94  E(vib)   ...       0.13 
freq.     519.62  E(vib)   ...       0.13 
freq.     547.71  E(vib)   ...       0.12 
freq.     557.61  E(vib)   ...       0.12 
freq.     566.87  E(vib)   ...       0.11 
freq.     585.00  E(vib)   ...       0.11 
freq.     595.14  E(vib)   ...       0.10 
freq.     614.61  E(vib)   ...       0.10 
freq.     644.68  E(vib)   ...       0.09 
freq.     649.14  E(vib)   ...       0.08 
freq.     688.63  E(vib)   ...       0.07 
freq.     705.67  E(vib)   ...       0.07 
freq.     752.33  E(vib)   ...       0.06 
freq.     763.56  E(vib)   ...       0.06 
freq.     861.07  E(vib)   ...       0.04 
freq.     975.46  E(vib)   ...       0.03 
freq.    1042.29  E(vib)   ...       0.02 
freq.    1093.17  E(vib)   ...       0.02 
freq.    1111.80  E(vib)   ...       0.01 
freq.    1112.59  E(vib)   ...       0.01 
freq.    1119.25  E(vib)   ...       0.01 
freq.    1132.06  E(vib)   ...       0.01 
freq.    1135.05  E(vib)   ...       0.01 
freq.    1140.23  E(vib)   ...       0.01 
freq.    1151.10  E(vib)   ...       0.01 
freq.    1160.31  E(vib)   ...       0.01 
freq.    1163.82  E(vib)   ...       0.01 
freq.    1175.37  E(vib)   ...       0.01 
freq.    1198.75  E(vib)   ...       0.01 
freq.    1206.65  E(vib)   ...       0.01 
freq.    1245.98  E(vib)   ...       0.01 
freq.    1309.14  E(vib)   ...       0.01 
freq.    1320.72  E(vib)   ...       0.01 
freq.    1367.16  E(vib)   ...       0.01 
freq.    1393.42  E(vib)   ...       0.00 
freq.    1807.26  E(vib)   ...       0.00 
freq.    3602.42  E(vib)   ...       0.00 

------------
INNER ENERGY
------------

The inner energy is: U= E(el) + E(ZPE) + E(vib) + E(rot) + E(trans)
    E(el)   - is the total energy from the electronic structure calculation
              = E(kin-el) + E(nuc-el) + E(el-el) + E(nuc-nuc)
    E(ZPE)  - the the zero temperature vibrational energy from the frequency calculation
    E(vib)  - the the finite temperature correction to E(ZPE) due to population
              of excited vibrational states
    E(rot)  - is the rotational thermal energy
    E(trans)- is the translational thermal energy

Summary of contributions to the inner energy U:
Electronic energy                ...  -1854.40988237 Eh
Zero point energy                ...      0.10391171 Eh      65.21 kcal/mol
Thermal vibrational correction   ...      0.02044837 Eh      12.83 kcal/mol
Thermal rotational correction    ...      0.00141627 Eh       0.89 kcal/mol
Thermal translational correction ...      0.00141627 Eh       0.89 kcal/mol
-----------------------------------------------------------------------
Total thermal energy                  -1854.28268974 Eh


Summary of corrections to the electronic energy:
(perhaps to be used in another calculation)
Total thermal correction                  0.02328092 Eh      14.61 kcal/mol
Non-thermal (ZPE) correction              0.10391171 Eh      65.21 kcal/mol
-----------------------------------------------------------------------
Total correction                          0.12719263 Eh      79.81 kcal/mol


--------
ENTHALPY
--------

The enthalpy is H = U + kB*T
                kB is Boltzmann's constant
Total thermal energy              ...  -1854.28268974 Eh 
Thermal Enthalpy correction       ...      0.00094421 Eh       0.59 kcal/mol
-----------------------------------------------------------------------
Total Enthalpy                    ...  -1854.28174553 Eh


Note: Only C1 symmetry has been detected, increase convergence thresholds 
      if your molecule has a higher symmetry. Symmetry factor of 1.0 is   
      used for the rotational entropy correction. 
 

Note: Rotational entropy computed according to Herzberg 
Infrared and Raman Spectra, Chapter V,1, Van Nostrand Reinhold, 1945 
Point Group:  C1, Symmetry Number:   1  
Rotational constants in cm-1:     0.018035     0.004417     0.004285 

Vibrational entropy computed according to the QRRHO of S. Grimme
Chem.Eur.J. 2012 18 9955 using a reference frequency of 100.0 cm-1


-------
ENTROPY
-------

The entropy contributions are T*S = T*(S(el)+S(vib)+S(rot)+S(trans))
     S(el)   - electronic entropy
     S(vib)  - vibrational entropy
     S(rot)  - rotational entropy
     S(trans)- translational entropy
The entropies will be listed as multiplied by the temperature to get
units of energy

Electronic entropy                ...      0.00065446 Eh      0.41 kcal/mol
Vibrational entropy               ...      0.03713253 Eh     23.30 kcal/mol
Rotational entropy                ...      0.01654052 Eh     10.38 kcal/mol
Translational entropy             ...      0.02081703 Eh     13.06 kcal/mol
-----------------------------------------------------------------------
Final entropy term                ...      0.07514453 Eh     47.15 kcal/mol

In case the symmetry of your molecule has not been determined correctly
or in case you have a reason to use a different symmetry number we print 
out the resulting rotational entropy values for sn=1,12:

 non-linear molecules -----------------------------------
|  sn= 1 | S(rot)=       0.01654052 Eh     10.38 kcal/mol|
|  sn= 2 | S(rot)=       0.01588606 Eh      9.97 kcal/mol|
|  sn= 3 | S(rot)=       0.01550323 Eh      9.73 kcal/mol|
|  sn= 4 | S(rot)=       0.01523160 Eh      9.56 kcal/mol|
|  sn= 5 | S(rot)=       0.01502091 Eh      9.43 kcal/mol|
|  sn= 6 | S(rot)=       0.01484877 Eh      9.32 kcal/mol|
|  sn= 7 | S(rot)=       0.01470322 Eh      9.23 kcal/mol|
|  sn= 8 | S(rot)=       0.01457715 Eh      9.15 kcal/mol|
|  sn= 9 | S(rot)=       0.01446594 Eh      9.08 kcal/mol|
|  sn=10 | S(rot)=       0.01436646 Eh      9.02 kcal/mol|
|  sn=11 | S(rot)=       0.01427647 Eh      8.96 kcal/mol|
|  sn=12 | S(rot)=       0.01419431 Eh      8.91 kcal/mol|
 linear molecules ---------------------------------------
|  Dinfh | S(rot)=       0.01047418 Eh      6.57 kcal/mol|
|  Cinfv | S(rot)=       0.01112863 Eh      6.98 kcal/mol|
 --------------------------------------------------------


-------------------
GIBBS FREE ENERGY
-------------------

The Gibbs free energy is G = H - T*S

Total enthalpy                    ...  -1854.28174553 Eh 
Total entropy correction          ...     -0.07514453 Eh    -47.15 kcal/mol
-----------------------------------------------------------------------
Final Gibbs free energy         ...  -1854.35689006 Eh

For completeness - the Gibbs free energy minus the electronic energy
G-E(el)                           ...      0.05299231 Eh     33.25 kcal/mol


Maximum memory used throughout the entire PROP-calculation: 546.0 MB

--------------------------------
SUGGESTED CITATIONS FOR THIS RUN
--------------------------------

Below you find a list of papers that are relevant to this ORCA run
We neither can nor want to force you to cite these papers, but we appreciate if you do
You receive ORCA, which is the product of decades of hard work by many enthusiastic individuals, for free
The only thing we kindly ask in return is that you cite our papers,
We deeply appreciate it, if you show your appreciation for ORCA by not just citing the generic ORCA reference.

Please note that relegating all ORCA citations to the supporting information does *not* help us.
SI sections are not indexed - citations you put there will not count into any citation statistics
But we need these citations in order to attract the funding resources that allow us to do what we are doing

Therefore, if you are a happy ORCA user, please consider citing a few of the papers listed below in the main body of your paper

In addition to the list printed below, the program has created the file rf_mecn_freq_TP_C4_P_B.bibtex that contains the list in bibtex format
You can import this file easily into all common literature databanks and citation aid programs


List of essential papers. We consider these as the minimum necessary citations

  1. Neese,F.
     Software update: the ORCA program system, version 5.0
     WIRES Comput. Molec. Sci., 2022 12(1)e1606
     doi.org/10.1002/wcms.1606

List of papers to cite with high priority. The work reported in these papers was absolutely
necessary for this run to complete.
Our perspective: the developers of density functionals and basis sets usually get cited in chemistry papers
Good! But without the algorithms to do something with them, the functionals or basis sets would not do anything.
Hence, in our opinion, the algorithm design and method developments papers are equally worthy of getting cited

  1. Neese,F.
     An improvement of the resolution of the identity approximation for the formation of the Coulomb matrix
     J. Comp. Chem., 2003 24(14)1740-1747
     doi.org/10.1002/jcc.10318
  2. Neese,F.; Wennmohs,F.; Hansen,A.; Becker,U.
     Efficient, approximate and parallel Hartree-Fock and hybrid DFT calculations. A 'chain-of-spheres' algorithm for the Hartree-Fock exchange
     Chem. Phys., 2009 356(1-3)98-109
     doi.org/10.1016/j.chemphys.2008.10.036
  3. Bykov,D.; Petrenko,T.; Izsak,R.; Kossmann,S.; Becker,U.; Valeev,E.; Neese,F.
     Efficient implementation of the analytic second derivatives of Hartree-Fock and hybrid DFT energies: a detailed analysis of different approximations
     Molec. Phys., 2015 113 1961-1977
     doi.org/10.1080/00268976.2015.1025114
  4. Garcia-Rates,M.; Neese,F.
     Efficient implementation of the analytical second derivatives of hartree-fock and hybrid DFT energies within the framework of the conductor-like polarizable continuum model
     J. Comput. Chem., 2019 40 1816-1828
     doi.org/10.1002/jcc.25833
  5. Garcia-Rates,M.; Neese,F.
     Effect of the Solute Cavity on the Solvation Energy and its Derivatives within the Framework of the Gaussian Charge Scheme
     J. Comput. Chem., 2020 41 922-939
     doi.org/10.1002/jcc.26139
  6. Helmich-Paris,B.; de Souza,B.; Neese,F.; Izsák,R.
     An improved chain of spheres for exchange algorithm
     J. Chem. Phys., 2021 155 104109
     doi.org/doi: 10.1063/5.0058766.
  7. Neese,F.
     The SHARK Integral Generation and Digestion System
     J. Comp. Chem., 2022  1-16
     doi.org/10.1002/jcc.26942
  8. Grimme,S.; Antony,J.; Ehrlich,S.; Krieg,H.
     A consistent and accurate ab initio parametrization of density functional dispersion correction (DFT-D) for the 94 elements H-Pu
     J. Chem. Phys., 2010 132 154104
     doi.org/10.1063/1.3382344
  9. Grimme,S.; Ehrlich,S.; Goerigk,L.
     Effect of the damping function in dispersion corrected density functional theory
     J. Comput. Chem., 2011 32(7)1456-1465
     doi.org/10.1002/jcc.21759

List of suggested additional citations. These are papers that are important in the 'surrounding' of 
of this run, or papers that preceded the highly important papers. If you like your results we are grateful for a citation.

  1. Izsak,R.; Neese,F.
     An overlap fitted chain of spheres exchange method
     J. Chem. Phys., 2011 135 144105
     doi.org/10.1063/1.3646921
  2. Izsak,R.; Hansen,A.; Neese,F.
     The resolution of identity and chain of spheres approximations for the LPNO-CCSD singles Fock term
     Molec. Phys., 2012 110 2413-2417
     doi.org/10.1080/00268976.2012.687466
  3. Neese,F.
     The ORCA program system
     WIRES Comput. Molec. Sci., 2012 2(1)73-78
     doi.org/10.1002/wcms.81
  4. Izsak,R.; Neese,F.; Klopper,W.
     Robust fitting techniques in the chain of spheres approximation to the Fock exchange: The role of the complementary space
     J. Chem. Phys., 2013 139 
     doi.org/10.1063/1.4819264
  5. Neese,F.
     Software update: the ORCA program system, version 4.0
     WIRES Comput. Molec. Sci., 2018 8(1)1-6
     doi.org/10.1002/wcms.1327
  6. Neese,F.; Wennmohs,F.; Becker,U.; Riplinger,C.
     The ORCA quantum chemistry program package
     J. Chem. Phys., 2020 152 Art. No. L224108
     doi.org/10.1063/5.0004608

List of optional additional citations

  1. Neese,F.
     Approximate second-order SCF convergence for spin unrestricted wavefunctions
     Chem. Phys. Lett., 2000 325(1-3)93-98
     doi.org/10.1016/s0009-2614(00)00662-x

Timings for individual modules:

Sum of individual times          ...     1490.196 sec (=  24.837 min)
Startup calculation              ...        3.805 sec (=   0.063 min)   0.3 %
SCF iterations                   ...       97.526 sec (=   1.625 min)   6.5 %
Property integrals               ...      447.542 sec (=   7.459 min)  30.0 %
SCF Response                     ...      677.177 sec (=  11.286 min)  45.4 %
Property calculations            ...      264.147 sec (=   4.402 min)  17.7 %
                             ****ORCA TERMINATED NORMALLY****
TOTAL RUN TIME: 0 days 0 hours 24 minutes 51 seconds 21 msec
