
                                 *****************
                                 * O   R   C   A *
                                 *****************

                                            #,                                       
                                            ###                                      
                                            ####                                     
                                            #####                                    
                                            ######                                   
                                           ########,                                 
                                     ,,################,,,,,                         
                               ,,#################################,,                 
                          ,,##########################################,,             
                       ,#########################################, ''#####,          
                    ,#############################################,,   '####,        
                  ,##################################################,,,,####,       
                ,###########''''           ''''###############################       
              ,#####''   ,,,,##########,,,,          '''####'''          '####       
            ,##' ,,,,###########################,,,                        '##       
           ' ,,###''''                  '''############,,,                           
         ,,##''                                '''############,,,,        ,,,,,,###''
      ,#''                                            '''#######################'''  
     '                                                          ''''####''''         
             ,#######,   #######,   ,#######,      ##                                
            ,#'     '#,  ##    ##  ,#'     '#,    #''#        ,####,   ,####,        
            ##       ##  ##   ,#'  ##            #'  '#       #'       #'  '#        
            ##       ##  #######   ##           ,######,      #####,   #    #        
            '#,     ,#'  ##    ##  '#,     ,#' ,#      #,     #,   #   #,  ,#        
             '#######'   ##     ##  '#######'  #'      '#     '####' # '####'        



                #########################################################
                #                        -***-                          #
                #          Department of theory and spectroscopy        #
                #                                                       #
                #                      Frank Neese                      #
                #                                                       #
                #     Directorship, Architecture, Infrastructure        #
                #                    SHARK, DRIVERS                     #
                #        Core code/Algorithms in most modules           #
                #                                                       #
                #        Max Planck Institute fuer Kohlenforschung      #
                #                Kaiser Wilhelm Platz 1                 #
                #                 D-45470 Muelheim/Ruhr                 #
                #                      Germany                          #
                #                                                       #
                #                  All rights reserved                  #
                #                        -***-                          #
                #########################################################


                         Program Version 6.0.1  -  RELEASE   -


 With contributions from (in alphabetic order):
[Max-Planck-Institut fuer Kohlenforschung]                               
  Daniel Aravena         : Magnetic Suceptibility                        
  Michael Atanasov       : Ab Initio Ligand Field Theory (pilot matlab implementation)
  Alexander A. Auer      : GIAO ZORA, VPT2 properties, NMR spectrum      
  Ute Becker             : All parallelization in ORCA, NUMFREQ, NUMCALC 
  Giovanni Bistoni       : ED, misc. LED, open-shell LED, HFLD           
  Martin Brehm           : Molecular dynamics                            
  Dmytro Bykov           : pre 5.0 version of the SCF Hessian            
  Marcos Casanova-Páez   : Triplet and SCS-CIS(D). UHF-(DLPNO)-IP/EA/STEOM-CCSD. UHF-CVS-IP/STEOM-CCSD   
  Vijay G. Chilkuri      : MRCI spin determinant printing, contributions to CSF-ICE 
  Pauline Colinet        : FMM embedding                                 
  Dipayan Datta          : RHF DLPNO-CCSD density                        
  Achintya Kumar Dutta   : EOM-CC, STEOM-CC                              
  Nicolas Foglia         : Exact transition moments, OPA infrastructure, MCD improvements    
  Dmitry Ganyushin       : Spin-Orbit,Spin-Spin,Magnetic field MRCI      
  Miquel Garcia-Rates    : C-PCM and meta-GGA Hessian, CCSD/C-PCM, Gaussian charge scheme 
  Tiago L. C. Gouveia    : GS-ROHF, GS-ROCIS                             
  Yang Guo               : DLPNO-NEVPT2, F12-NEVPT2, CIM, IAO-localization        
  Andreas Hansen         : Spin unrestricted coupled pair/coupled cluster methods 
  Ingolf Harden          : AUTO-CI MPn and infrastructure                
  Benjamin Helmich-Paris : MC-RPA, TRAH-(SCF,CASSCF), AVAS, COSX integrals, SCF dyn. polar. 
  Lee Huntington         : MR-EOM, pCC                                   
  Robert Izsak           : Overlap fitted RIJCOSX, COSX-SCS-MP3, EOM     
  Riya Kayal             : Wick's Theorem for AUTO-CI, AUTO-CI UHF-CCSDT 
  Emily Kempfer          : AUTO-CI, RHF CISDT and CCSDT                  
  Christian Kollmar      : KDIIS, OOCD, Brueckner-CCSD(T), CCSD density, CASPT2, CASPT2-K, improved NEVPT2 
  Axel Koslowski         : Symmetry handling                             
  Simone Kossmann        : meta-GGA functionals, TD-DFT gradient, OOMP2, (MP2 Hessian; deprecated post 5.0) 
  Lucas Lang             : DCDCAS                                        
  Marvin Lechner         : AUTO-CI (C++ implementation), FIC-MRCC        
  Spencer Leger          : CASSCF response                               
  Dagmar Lenk            : GEPOL surface, SMD, ORCA-2-JSON               
  Dimitrios Liakos       : Extrapolation schemes; Compound Job, initial MDCI parallelization 
  Dimitrios Manganas     : Further ROCIS development; embedding schemes. LFT, Crystal Embedding 
  Dimitrios Pantazis     : SARC Basis sets                               
  Anastasios Papadopoulos: AUTO-CI, single reference methods and gradients 
  Taras Petrenko         : pre 6.0 DFT Hessian and TD-DFT gradient, (ASA, deprecated), ECA, 1-Electron XAS/XES, NRVS 
  Peter Pinski           : DLPNO-MP2, DLPNO-MP2 Gradient                 
  Christoph Reimann      : Effective Core Potentials                     
  Marius Retegan         : Local ZFS, SOC                                
  Christoph Riplinger    : Optimizer, TS searches, QM/MM, DLPNO-CCSD(T), (RO)-DLPNO pert. Triples 
  Michael Roemelt        : Original ROCIS implementation                 
  Masaaki Saitow         : Open-shell DLPNO-CCSD energy and density      
  Barbara Sandhoefer     : DKH picture change effects                    
  Kantharuban Sivalingam : CASSCF convergence/infrastructure, NEVPT2 and variants, FIC-MRCI 
  Bernardo de Souza      : ESD, SOC TD-DFT                               
  Georgi L. Stoychev     : AutoAux, RI-MP2 NMR, DLPNO-MP2 response, X2C  
  Van Anh Tran           : RI-MP2 g-tensors                              
  Willem Van den Heuvel  : Paramagnetic NMR                              
  Zikuan Wang            : NOTCH, Electric field optimization            
  Frank Wennmohs         : Technical directorship and infrastructure     
  Hang Xu                : AUTO-CI-Response properties                   
                                                                         
[FACCTs GmbH]                                                            
  Markus Bursch, Miquel Garcia-Rates, Christoph Riplinger, Bernardo de Souza, Georgi L. Stoychev 
                                                                 
  APM, Basis sets (HGBS, AHGBS, def-TZVP (Ac-Lr), def2-XVPD (La-Lu)), CI-OPT, improved COSX, DLPNO-Multilevel,           
  DOCKER, DRACO, updates on ESD, GOAT, IRC, LR-CPCM, MBIS, meta-GGA TD-DFT gradient, ML-optimized integration grids, 
  MM, NACMEs, nearIR, NEB, NEB-TS, NL-DFT gradient (VV10), 2- and 3-layer-ONIOM, interface openCOSMO-RS, QMMM,   
  Crystal-QMMM, SF, symmetry and pop. for TD-DFT, r2SCAN hybrids, SOLVATOR                                   
                                                                         
[Other institutions]                                                     
  V. Asgeirsson          : NEB                                           
  Christoph Bannwarth    : sTDA-DFT, sTD-DFT, PBEh-3c, B97-3c, D3        
  Sebastian Ehlert       : rSCAN, r2SCAN, r2SCAN-3c, D4, dhf basis sets  
  Marvin Friede          : D4 for Fr, Ra, Ac-Lr                          
  Lars Goerigk           : TD-DFT with DH, B97 family of functionals     
  Stefan Grimme          : VdW corrections, initial TS optimization, DFT functionals, gCP, sTDA/sTD-DF 
  Waldemar Hujo          : DFT-NL                                        
  H. Jonsson             : NEB                                           
  Holger Kruse           : gCP                                           
  Marcel Mueller         : wB97X-3c, vDZP basis set                      
  Hagen Neugebauer       : wr2SCAN                                       
  Tobias Risthaus        : range-separated hybrid DFT                    
  Lukas Wittmann         : regularized MP2, r2SCAN double-hybrids, wr2SCAN        
                                                                         
We gratefully acknowledge several colleagues who have allowed us to      
interface, adapt or use parts of their codes:                            
  Ed Valeev, F. Pavosevic, A. Kumar             : LibInt (2-el integral package), F12 methods 
  Garnet Chan, S. Sharma, J. Yang, R. Olivares  : DMRG                   
  Ulf Ekstrom                                   : XCFun DFT Library      
  Mihaly Kallay                                 : mrcc  (arbitrary order and MRCC methods)
  Frank Weinhold                                : gennbo (NPA and NBO analysis)           
  Simon Mueller                                 : openCOSMO-RS                            
  Christopher J. Cramer and Donald G. Truhlar   : smd solvation model                     
  S Lehtola, MJT Oliveira, MAL Marques          : LibXC Library                           
  Liviu Ungur et al                             : ANISO software                          


 Your calculation uses the libint2 library for the computation of 2-el integrals
 For citations please refer to: http://libint.valeyev.net

 Your ORCA version has been built with support for libXC version: 6.2.2
 For citations please refer to: https://libxc.gitlab.io

 This ORCA versions uses:
   CBLAS   interface :  Fast vector & matrix operations
   LAPACKE interface :  Fast linear algebra routines
   SCALAPACK package :  Parallel linear algebra routines
   Shared memory     :  Shared parallel matrices
   BLAS/LAPACK       :  OpenBLAS 0.3.27  USE64BITINT DYNAMIC_ARCH NO_AFFINITY SkylakeX SINGLE_THREADED
        Core in use  :  SkylakeX
   Copyright (c) 2011-2014, The OpenBLAS Project


NOTE: MaxCore=8000 MB was set to SCF,MP2,MDCI,CIPSI,MRCI and CIS
      => If you want to overwrite this, your respective input block should be placed after the MaxCore statement
Your calculation utilizes the atom-pairwise dispersion correction
with the Becke-Johnson damping scheme (D3BJ)


Your calculation utilizes the SMD solvation module
Please cite in your paper:
A.V. Marenich, C.J. Cramer, D.G. Truhlar J. Phys. Chem. B, 113, (2009), 6378 

Warning: RI is on but no J-basis has been assigned. Assigning Def2/J (nothing to worry about!)
================================================================================

----- Orbital basis set information -----
Your calculation utilizes the basis: def2-TZVP
   F. Weigend and R. Ahlrichs, Phys. Chem. Chem. Phys. 7, 3297 (2005).

----- AuxJ basis set information -----
Your calculation utilizes the auxiliary basis: def2/J
   F. Weigend, Phys. Chem. Chem. Phys. 8, 1057 (2006).

================================================================================
                                        WARNINGS
                       Please study these warnings very carefully!
================================================================================



WARNING: SCAN, rSCAN, or r2SCAN functional requested.
  ===> : libXC variant has now been activated.



WARNING: your system is open-shell and RHF/RKS was chosen
  ===> : WILL SWITCH to UHF/UKS


================================================================================
                                       INPUT FILE
================================================================================
NAME = rf_mecn_freq_r2s_C8_D_B.inp
|  1> !r2scanh def2-TZVP freq d3 TightSCF SlowConv defgrid2
|  2>  
|  3> %pal
|  4> nprocs 20
|  5> end
|  6>  
|  7> %scf
|  8> MaxIter 1500
|  9> end
| 10>  
| 11> %maxcore 8000
| 12>  
| 13> !CPCM
| 14> %cpcm smd true
| 15> SMDsolvent "ACETONITRILE"
| 16> end
| 17>  
| 18> * xyz -1 2
| 19> 6        4.788260000      0.073058000     -0.372975000
| 20> 8        5.369040000     -0.797621000     -1.028090000
| 21> 8        5.039801000      1.270552000     -0.178945000
| 22> 6        3.478815000     -0.397957000      0.362463000
| 23> 6        2.214129000      0.302942000     -0.185516000
| 24> 6        0.876105000     -0.416754000      0.155757000
| 25> 6       -0.375990000      0.497124000     -0.002824000
| 26> 6       -1.708051000     -0.305911000     -0.097856000
| 27> 6       -2.970276000      0.538927000      0.223852000
| 28> 6       -4.244433000     -0.173654000     -0.181623000
| 29> 9        3.275994000     -1.737569000      0.249743000
| 30> 9        3.560925000     -0.129404000      1.694743000
| 31> 9        2.143997000      1.558019000      0.294796000
| 32> 9        2.311854000      0.365393000     -1.530708000
| 33> 9        0.728922000     -1.478382000     -0.656085000
| 34> 9        0.917255000     -0.846036000      1.428107000
| 35> 9       -0.443098000      1.325063000      1.051737000
| 36> 9       -0.248243000      1.229260000     -1.120980000
| 37> 9       -1.674894000     -1.334298000      0.765438000
| 38> 9       -1.826040000     -0.793713000     -1.343122000
| 39> 9       -2.866064000      1.730985000     -0.415579000
| 40> 9       -3.022219000      0.768251000      1.542830000
| 41> 9       -5.308260000      0.185369000      0.504360000
| 42> 9       -4.483007000     -0.195711000     -1.475107000
| 43> *
| 44> 
| 45>                          ****END OF INPUT****
================================================================================

                       ****************************
                       * Single Point Calculation *
                       ****************************

---------------------------------
CARTESIAN COORDINATES (ANGSTROEM)
---------------------------------
  C      4.788260    0.073058   -0.372975
  O      5.369040   -0.797621   -1.028090
  O      5.039801    1.270552   -0.178945
  C      3.478815   -0.397957    0.362463
  C      2.214129    0.302942   -0.185516
  C      0.876105   -0.416754    0.155757
  C     -0.375990    0.497124   -0.002824
  C     -1.708051   -0.305911   -0.097856
  C     -2.970276    0.538927    0.223852
  C     -4.244433   -0.173654   -0.181623
  F      3.275994   -1.737569    0.249743
  F      3.560925   -0.129404    1.694743
  F      2.143997    1.558019    0.294796
  F      2.311854    0.365393   -1.530708
  F      0.728922   -1.478382   -0.656085
  F      0.917255   -0.846036    1.428107
  F     -0.443098    1.325063    1.051737
  F     -0.248243    1.229260   -1.120980
  F     -1.674894   -1.334298    0.765438
  F     -1.826040   -0.793713   -1.343122
  F     -2.866064    1.730985   -0.415579
  F     -3.022219    0.768251    1.542830
  F     -5.308260    0.185369    0.504360
  F     -4.483007   -0.195711   -1.475107

----------------------------
CARTESIAN COORDINATES (A.U.)
----------------------------
  NO LB      ZA    FRAG     MASS         X           Y           Z
   0 C     6.0000    0    12.011    9.048500    0.138060   -0.704821
   1 O     8.0000    0    15.999   10.146015   -1.507285   -1.942809
   2 O     8.0000    0    15.999    9.523844    2.400995   -0.338157
   3 C     6.0000    0    12.011    6.574008   -0.752030    0.684956
   4 C     6.0000    0    12.011    4.184097    0.572477   -0.350574
   5 C     6.0000    0    12.011    1.655599   -0.787551    0.294338
   6 C     6.0000    0    12.011   -0.710518    0.939428   -0.005337
   7 C     6.0000    0    12.011   -3.227749   -0.578088   -0.184921
   8 C     6.0000    0    12.011   -5.613008    1.018424    0.423019
   9 C     6.0000    0    12.011   -8.020816   -0.328159   -0.343218
  10 F     9.0000    0    18.998    6.190731   -3.283530    0.471946
  11 F     9.0000    0    18.998    6.729173   -0.244538    3.202600
  12 F     9.0000    0    18.998    4.051567    2.944229    0.557084
  13 F     9.0000    0    18.998    4.368771    0.690493   -2.892619
  14 F     9.0000    0    18.998    1.377463   -2.793737   -1.239821
  15 F     9.0000    0    18.998    1.733361   -1.598776    2.698731
  16 F     9.0000    0    18.998   -0.837334    2.504006    1.987495
  17 F     9.0000    0    18.998   -0.469111    2.322965   -2.118345
  18 F     9.0000    0    18.998   -3.165091   -2.521458    1.446468
  19 F     9.0000    0    18.998   -3.450716   -1.499900   -2.538133
  20 F     9.0000    0    18.998   -5.416076    3.271088   -0.785330
  21 F     9.0000    0    18.998   -5.711166    1.451784    2.915526
  22 F     9.0000    0    18.998  -10.031158    0.350297    0.953102
  23 F     9.0000    0    18.998   -8.471655   -0.369840   -2.787548

--------------------------------
INTERNAL COORDINATES (ANGSTROEM)
--------------------------------
 C      0   0   0     0.000000000000     0.00000000     0.00000000
 O      1   0   0     1.234731951747     0.00000000     0.00000000
 O      1   2   0     1.238915814580   132.00334696     0.00000000
 C      1   2   3     1.573966451388   115.35396128   179.90106612
 C      4   1   2     1.546276518362   112.28429201   244.95826872
 C      5   4   1     1.557156966244   114.55856872   161.46959335
 C      6   5   4     1.558224252625   113.39639438   162.03987837
 C      7   6   5     1.558294837305   113.00765111   162.15548122
 C      8   7   6     1.552565371935   113.69739955   160.44738853
 C      9   8   7     1.515142804436   111.85831598   166.95180210
 F      4   1   2     1.359559659222   112.34813423     5.85240125
 F      4   1   2     1.361555274056   110.36559355   124.58276961
 F      5   4   1     1.345673210961   109.80983994   283.11156701
 F      5   4   1     1.350182143227   108.35140381    41.38207170
 F      6   5   4     1.344546123730   109.06635034   282.78002501
 F      6   5   4     1.343447386586   109.20394978    41.60665546
 F      7   6   5     1.342417734577   108.78021050   283.15603978
 F      7   6   5     1.342615082159   109.15446220    41.77004495
 F      8   7   6     1.343114194272   109.52834681    39.95760485
 F      8   7   6     1.342594356491   108.59761670   281.41978979
 F      9   8   7     1.356736680447   108.54214599    44.66013887
 F      9   8   7     1.339772569024   109.18718857   286.60863741
 F     10   9   8     1.315750005414   114.33553144   154.05625989
 F     10   9   8     1.315486572710   115.05812006   285.38920846

---------------------------
INTERNAL COORDINATES (A.U.)
---------------------------
 C      0   0   0     0.000000000000     0.00000000     0.00000000
 O      1   0   0     2.333305237605     0.00000000     0.00000000
 O      1   2   0     2.341211592541   132.00334696     0.00000000
 C      1   2   3     2.974365537103   115.35396128   179.90106612
 C      4   1   2     2.922039147018   112.28429201   244.95826872
 C      5   4   1     2.942600213728   114.55856872   161.46959335
 C      6   5   4     2.944617092696   113.39639438   162.03987837
 C      7   6   5     2.944750478409   113.00765111   162.15548122
 C      8   7   6     2.933923357968   113.69739955   160.44738853
 C      9   8   7     2.863204954166   111.85831598   166.95180210
 F      4   1   2     2.569195418658   112.34813423     5.85240125
 F      4   1   2     2.572966584161   110.36559355   124.58276961
 F      5   4   1     2.542953834470   109.80983994   283.11156701
 F      5   4   1     2.551474481611   108.35140381    41.38207170
 F      6   5   4     2.540823948275   109.06635034   282.78002501
 F      6   5   4     2.538747635979   109.20394978    41.60665546
 F      7   6   5     2.536801875669   108.78021050   283.15603978
 F      7   6   5     2.537174808553   109.15446220    41.77004495
 F      8   7   6     2.538117993756   109.52834681    39.95760485
 F      8   7   6     2.537135642716   108.59761670   281.41978979
 F      9   8   7     2.563860761889   108.54214599    44.66013887
 F      9   8   7     2.531803237195   109.18718857   286.60863741
 F     10   9   8     2.486407170938   114.33553144   154.05625989
 F     10   9   8     2.485909355273   115.05812006   285.38920846

---------------------
BASIS SET INFORMATION
---------------------
There are 3 groups of distinct atoms

 Group   1 Type C   : 11s6p2d1f contracted to 5s3p2d1f pattern {62111/411/11/1}
 Group   2 Type O   : 11s6p2d1f contracted to 5s3p2d1f pattern {62111/411/11/1}
 Group   3 Type F   : 11s6p2d1f contracted to 5s3p2d1f pattern {62111/411/11/1}

Atom   0C    basis set group =>   1
Atom   1O    basis set group =>   2
Atom   2O    basis set group =>   2
Atom   3C    basis set group =>   1
Atom   4C    basis set group =>   1
Atom   5C    basis set group =>   1
Atom   6C    basis set group =>   1
Atom   7C    basis set group =>   1
Atom   8C    basis set group =>   1
Atom   9C    basis set group =>   1
Atom  10F    basis set group =>   3
Atom  11F    basis set group =>   3
Atom  12F    basis set group =>   3
Atom  13F    basis set group =>   3
Atom  14F    basis set group =>   3
Atom  15F    basis set group =>   3
Atom  16F    basis set group =>   3
Atom  17F    basis set group =>   3
Atom  18F    basis set group =>   3
Atom  19F    basis set group =>   3
Atom  20F    basis set group =>   3
Atom  21F    basis set group =>   3
Atom  22F    basis set group =>   3
Atom  23F    basis set group =>   3
---------------------------------
AUXILIARY/J BASIS SET INFORMATION
---------------------------------
There are 3 groups of distinct atoms

 Group   1 Type C   : 12s5p4d2f1g contracted to 6s4p3d1f1g pattern {711111/2111/211/2/1}
 Group   2 Type O   : 12s5p4d2f1g contracted to 6s4p3d1f1g pattern {711111/2111/211/2/1}
 Group   3 Type F   : 12s5p4d2f1g contracted to 6s4p3d1f1g pattern {711111/2111/211/2/1}

Atom   0C    basis set group =>   1
Atom   1O    basis set group =>   2
Atom   2O    basis set group =>   2
Atom   3C    basis set group =>   1
Atom   4C    basis set group =>   1
Atom   5C    basis set group =>   1
Atom   6C    basis set group =>   1
Atom   7C    basis set group =>   1
Atom   8C    basis set group =>   1
Atom   9C    basis set group =>   1
Atom  10F    basis set group =>   3
Atom  11F    basis set group =>   3
Atom  12F    basis set group =>   3
Atom  13F    basis set group =>   3
Atom  14F    basis set group =>   3
Atom  15F    basis set group =>   3
Atom  16F    basis set group =>   3
Atom  17F    basis set group =>   3
Atom  18F    basis set group =>   3
Atom  19F    basis set group =>   3
Atom  20F    basis set group =>   3
Atom  21F    basis set group =>   3
Atom  22F    basis set group =>   3
Atom  23F    basis set group =>   3


           ************************************************************
           *        Program running with 20 parallel MPI-processes    *
           *              working on a common directory               *
           ************************************************************
------------------------------------------------------------------------------
                             ORCA STARTUP CALCULATIONS
                           -- RI-GTO INTEGRALS CHOSEN --
------------------------------------------------------------------------------
------------------------------------------------------------------------------
                   ___                                                        
                  /   \      - P O W E R E D   B Y -                         
                 /     \                                                     
                 |  |  |   _    _      __       _____    __    __             
                 |  |  |  | |  | |    /  \     |  _  \  |  |  /  |          
                  \  \/   | |  | |   /    \    | | | |  |  | /  /          
                 / \  \   | |__| |  /  /\  \   | |_| |  |  |/  /          
                |  |  |   |  __  | /  /__\  \  |    /   |      \           
                |  |  |   | |  | | |   __   |  |    \   |  |\   \          
                \     /   | |  | | |  |  |  |  | |\  \  |  | \   \       
                 \___/    |_|  |_| |__|  |__|  |_| \__\ |__|  \__/        
                                                                              
                      - O R C A' S   B I G   F R I E N D -                    
                                      &                                       
                       - I N T E G R A L  F E E D E R -                       
                                                                              
 v1 FN, 2020, v2 2021, v3 2022-2024                                           
------------------------------------------------------------------------------


----------------------
SHARK INTEGRAL PACKAGE
----------------------

Number of atoms                             ...     24
Number of basis functions                   ...    744
Number of shells                            ...    264
Maximum angular momentum                    ...      3
Integral batch strategy                     ... SHARK/LIBINT Hybrid
RI-J (if used) integral strategy            ... SPLIT-RIJ (Revised 2003 algorithm where possible)
Printlevel                                  ...      1
Contraction scheme used                     ... SEGMENTED contraction
Prescreening option                         ... SCHWARTZ
   Thresh                                   ... 2.500e-11
   Tcut                                     ... 2.500e-12
   Tpresel                                  ... 2.500e-12 
Coulomb Range Separation                    ... NOT USED
Exchange Range Separation                   ... NOT USED
Multipole approximations                    ... NOT USED
Finite Nucleus Model                        ... NOT USED
CABS basis                                  ... NOT available
Auxiliary Coulomb fitting basis             ... AVAILABLE
   # of basis functions in Aux-J            ...   1176
   # of shells in Aux-J                     ...    360
   Maximum angular momentum in Aux-J        ...      4
Auxiliary J/K fitting basis                 ... NOT available
Auxiliary Correlation fitting basis         ... NOT available
Auxiliary 'external' fitting basis          ... NOT available

Checking pre-screening integrals            ... done (  0.0 sec) Dimension = 264
Check shell pair data                       ... done (  0.0 sec)
Shell pair information
Shell pair cut-off parameter TPreSel        ...   2.5e-12
Total number of shell pairs                 ...     34980
Shell pairs after pre-screening             ...     22153
Total number of primitive shell pairs       ...    115968
Primitive shell pairs kept                  ...     47105
          la=0 lb=0:   4123 shell pairs
          la=1 lb=0:   6011 shell pairs
          la=1 lb=1:   2104 shell pairs
          la=2 lb=0:   3302 shell pairs
          la=2 lb=1:   2446 shell pairs
          la=2 lb=2:    692 shell pairs
          la=3 lb=0:   1510 shell pairs
          la=3 lb=1:   1173 shell pairs
          la=3 lb=2:    639 shell pairs
          la=3 lb=3:    153 shell pairs

Calculating one electron integrals          ... done (  0.0 sec)
Calculating RI/J V-Matrix + Cholesky decomp.... done (  0.1 sec)
Calculating Nuclear repulsion               ... done (  0.0 sec) ENN=   2666.081136685232 Eh

Diagonalization of the overlap matrix:
Smallest eigenvalue                        ... 5.666e-05
Time for diagonalization                   ...    0.123 sec
Threshold for overlap eigenvalues          ... 1.000e-07
Number of eigenvalues below threshold      ... 0
Time for construction of square roots      ...    0.052 sec
Total time needed                          ...    0.181 sec

-------------------
DFT GRID GENERATION
-------------------

General Integration Accuracy     IntAcc      ... 4.388
Radial Grid Type                 RadialGrid  ... OptM3 with GC (2021)
Angular Grid (max. ang.)         AngularGrid ... 4 (Lebedev-302)
Angular grid pruning method      GridPruning ... 4 (adaptive)
Weight generation scheme         WeightScheme... mBecke (2022)
Basis function cutoff            BFCut       ... 1.0000e-11
Integration weight cutoff        WCut        ... 1.0000e-14
Partially contracted basis set               ... off
Rotationally invariant grid construction     ... off
Angular grids for H and He will be reduced by one unit

Total number of grid points                  ...   145397
Total number of batches                      ...     2283
Average number of points per batch           ...       63
Average number of grid points per atom       ...     6058

--------------------
COSX GRID GENERATION
--------------------

GRIDX 1
-------
General Integration Accuracy     IntAcc      ... 3.816
Radial Grid Type                 RadialGrid  ... OptM3 with GC (2021)
Angular Grid (max. ang.)         AngularGrid ... 1 (Lebedev-50)
Angular grid pruning method      GridPruning ... 4 (adaptive)
Weight generation scheme         WeightScheme... mBecke (2022)
Basis function cutoff            BFCut       ... 1.0000e-11
Integration weight cutoff        WCut        ... 1.0000e-14
Partially contracted basis set               ... on
Rotationally invariant grid construction     ... off
Angular grids for H and He will be reduced by one unit

Total number of grid points                  ...    18278
Total number of batches                      ...      152
Average number of points per batch           ...      120
Average number of grid points per atom       ...      762
UseSFitting                                  ... on

GRIDX 2
-------
General Integration Accuracy     IntAcc      ... 4.020
Radial Grid Type                 RadialGrid  ... OptM3 with GC (2021)
Angular Grid (max. ang.)         AngularGrid ... 2 (Lebedev-110)
Angular grid pruning method      GridPruning ... 4 (adaptive)
Weight generation scheme         WeightScheme... mBecke (2022)
Basis function cutoff            BFCut       ... 1.0000e-11
Integration weight cutoff        WCut        ... 1.0000e-14
Partially contracted basis set               ... on
Rotationally invariant grid construction     ... off
Angular grids for H and He will be reduced by one unit

Total number of grid points                  ...    43306
Total number of batches                      ...      350
Average number of points per batch           ...      123
Average number of grid points per atom       ...     1804
UseSFitting                                  ... on

GRIDX 3
-------
General Integration Accuracy     IntAcc      ... 4.338
Radial Grid Type                 RadialGrid  ... OptM3 with GC (2021)
Angular Grid (max. ang.)         AngularGrid ... 3 (Lebedev-194)
Angular grid pruning method      GridPruning ... 4 (adaptive)
Weight generation scheme         WeightScheme... mBecke (2022)
Basis function cutoff            BFCut       ... 1.0000e-11
Integration weight cutoff        WCut        ... 1.0000e-14
Partially contracted basis set               ... on
Rotationally invariant grid construction     ... off
Angular grids for H and He will be reduced by one unit

Total number of grid points                  ...    95939
Total number of batches                      ...      761
Average number of points per batch           ...      126
Average number of grid points per atom       ...     3997
UseSFitting                                  ... on
Initializing property integral containers    ... done (  0.0 sec)

SHARK setup successfully completed in   3.9 seconds

Maximum memory used throughout the entire STARTUP-calculation: 57.3 MB


           ************************************************************
           *        Program running with 20 parallel MPI-processes    *
           *              working on a common directory               *
           ************************************************************
-------------------------------------------------------------------------------
                                 ORCA GUESS
                   Start orbitals & Density for SCF / CASSCF
-------------------------------------------------------------------------------

------------
SCF SETTINGS
------------
Hamiltonian:
 Density Functional     Method          .... DFT(GTOs)
  Functional kind                       .... Exchange
  Functional name                       .... Re-regularized SCAN exchange by Furness et al
  Functional family                     .... MGGA
  Functional refs                              
    [ 0] J. W. Furness, A. D. Kaplan, J. Ning, J. P. Perdew, and J. Sun.,  J. Phys. Chem. Lett. 11, 8208-8215 (2020), doi: 10.1021/acs.jpclett.0c02405
    [ 1] J. W. Furness, A. D. Kaplan, J. Ning, J. P. Perdew, and J. Sun.,  J. Phys. Chem. Lett. 11, 9248-9248 (2020), doi: 10.1021/acs.jpclett.0c03077
  Functional external parameters        .... 6
    Parameter  0 _c1        =  6.670000e-01 : c1 parameter        
    Parameter  1 _c2        =  8.000000e-01 : c2 parameter        
    Parameter  2 _d         =  1.240000e+00 : d parameter         
    Parameter  3 _k1        =  6.500000e-02 : k1 parameter        
    Parameter  4 _eta       =  1.000000e-03 : eta parameter       
    Parameter  5 _dp2       =  3.610000e-01 : dp2 parameter       
  Functional kind                       .... Correlation
  Functional name                       .... Re-regularized SCAN correlation by Furness et al
  Functional family                     .... MGGA
  Functional refs                              
    [ 0] J. W. Furness, A. D. Kaplan, J. Ning, J. P. Perdew, and J. Sun.,  J. Phys. Chem. Lett. 11, 8208-8215 (2020), doi: 10.1021/acs.jpclett.0c02405
    [ 1] J. W. Furness, A. D. Kaplan, J. Ning, J. P. Perdew, and J. Sun.,  J. Phys. Chem. Lett. 11, 9248-9248 (2020), doi: 10.1021/acs.jpclett.0c03077
  Functional external parameters        .... 1
    Parameter  0 _eta       =  1.000000e-03 : Regularization parameter
 Gradients option       PostSCFGGA      .... off
 Hybrid DFT is turned on
   Fraction HF Exchange ScalHFX         ....  0.100000
   Scaling of DF-GGA-X  ScalDFX         ....  0.900000
   Scaling of DF-GGA-C  ScalDFC         ....  1.000000
   Scaling of DF-LDA-C  ScalLDAC        ....  1.000000
   Perturbative correction              ....  0.000000
   NL short-range parameter             .... 11.900000
 RI-approximation to the Coulomb term is turned on
   Number of AuxJ basis functions       .... 1176
   RIJ-COSX (HFX calculated with COS-X)).... on


General Settings:
 Integral files         IntName         .... rf_mecn_freq_r2s_C8_D_B
 Hartree-Fock type      HFTyp           .... UHF
 Total Charge           Charge          ....   -1
 Multiplicity           Mult            ....    2
 Number of Electrons    NEL             ....  191
 Basis Dimension        Dim             ....  744
 Nuclear Repulsion      ENuc            ....   2666.0811366852 Eh

Convergence Acceleration:
 AO-DIIS                CNVDIIS         .... on
   Start iteration      DIISMaxIt       ....     0
   Startup error        DIISStart       ....  0.200000
   # of expansion vecs  DIISMaxEq       ....     5
   Bias factor          DIISBfac        ....   1.050
   Max. coefficient     DIISMaxC        ....  10.000
 MO-DIIS                CNVKDIIS        .... off
 Trust-Rad. Augm. Hess. CNVTRAH         .... auto
   Auto Start mean grad. ratio tolernc. ....  1.125000
   Auto Start start iteration           ....    50
   Auto Start num. interpolation iter.  ....    10
   Max. Number of Micro iterations      ....    24
   Max. Number of Macro iterations      .... Maxiter - #DIIS iter
   Number of Davidson start vectors     ....     2
   Converg. threshold    (grad. norm)   ....   1.000e-05
   Grad. Scal. Fac. for Micro threshold ....   0.100
   Minimum threshold for Micro iter.    ....   1.000e-02
   NR start threshold (gradient norm)   ....   1.000e-04
   Initial trust radius                 ....   0.400
   Minimum AH scaling param. (alpha)    ....   1.000
   Maximum AH scaling param. (alpha)    .... 1000.000
   Quad. conv. algorithm                .... NR
   White noise on init. David. guess    .... on
   Maximum white noise                  ....   0.010
   Pseudo random numbers                .... off
   Inactive MOs                         .... canonical
   Orbital update algorithm             .... Taylor
   Preconditioner                       .... Diag
   Full preconditioner red. dimension   ....   250
 SOSCF                  CNVSOSCF        .... on
   Start iteration      SOSCFMaxIt      ....   150
   Startup grad/error   SOSCFStart      ....  0.001000
   Hessian update       SOSCFHessUp     .... L-BFGS
 Level Shifting         CNVShift        .... on
   Level shift para.    LevelShift      ....    0.2500
   Turn off err/grad.   ShiftErr        ....    0.0000
 Zerner damping         CNVZerner       .... off
 Static damping         CNVDamp         .... on
   Fraction old density DampFac         ....    0.8500
   Max. Damping (<1)    DampMax         ....    0.9800
   Min. Damping (>=0)   DampMin         ....    0.0000
   Turn off err/grad.   DampErr         ....    0.0300

SCF Procedure:
 Maximum # iterations   MaxIter         ....  1500
 SCF integral mode      SCFMode         .... Direct
   Integral package                     .... SHARK and LIBINT hybrid scheme
 Reset frequency        DirectResetFreq ....    20
 Integral Threshold     Thresh          ....  2.500e-11 Eh
 Primitive CutOff       TCut            ....  2.500e-12 Eh

Convergence Tolerance:
 Convergence Check Mode ConvCheckMode   .... Total+1el-Energy
 Convergence forced     ConvForced      .... 0
 Energy Change          TolE            ....  1.000e-08 Eh
 1-El. energy change                    ....  1.000e-05 Eh
 Orbital Gradient       TolG            ....  1.000e-05
 Orbital Rotation angle TolX            ....  1.000e-05
 DIIS Error             TolErr          ....  5.000e-07

------------------------------
INITIAL GUESS: MODEL POTENTIAL
------------------------------
Loading Hartree-Fock densities                     ... done
Calculating cut-offs                               ... done
Initializing the effective Hamiltonian             ... done
Setting up the integral package (SHARK)            ... done
Starting the Coulomb interaction                   ... done (   0.2 sec)
Making the grid                                    ... done (   0.5 sec)
Mapping shells                                     ... done
Starting the XC term evaluation                    ... done (   0.2 sec)
  promolecular density results
     # of electrons  =    189.998990963
     EX              =   -197.234432612
     EC              =     -6.680321823
     EX+EC           =   -203.914754436
Transforming the Hamiltonian                       ... done (   0.1 sec)
Diagonalizing the Hamiltonian                      ... done (   0.1 sec)
Back transforming the eigenvectors                 ... done (   0.0 sec)
Now organizing SCF variables                       ... done
                      ------------------
                      INITIAL GUESS DONE (   1.2 sec)
                      ------------------
             **** ENERGY FILE WAS UPDATED (rf_mecn_freq_r2s_C8_D_B.en.tmp) ****
Finished Guess after   2.0 sec
Maximum memory used throughout the entire GUESS-calculation: 46.1 MB


           ************************************************************
           *        Program running with 20 parallel MPI-processes    *
           *              working on a common directory               *
           ************************************************************

-------------------------------------------------------------------------------------------
                                      ORCA LEAN-SCF
                              memory conserving SCF solver
-------------------------------------------------------------------------------------------

--------------------
CPCM SOLVATION MODEL
--------------------
CPCM parameters:
  Epsilon                                         ...      35.6880
  Refrac                                          ...       1.3442
  Rsolv                                           ...       1.3000
  Surface type                                    ... GAUSSIAN VDW
  Discretization scheme                           ... Constant charge density
    Threshold for H atoms                         ...       5.0000 (charges/Ang^2)
    Threshold for non-H atoms                     ...       5.0000 (charges/Ang^2)
  Epsilon function type                           ...         CPCM
Solvent:                                          ... ACETONITRILE
SMD-CDS solvent descriptors:
  Soln                                            ...       1.3442
  Soln25                                          ...       1.3416
  Sola                                            ...       0.0700
  Solb                                            ...       0.3200
  Solg                                            ...      41.2500
  Solc                                            ...       0.0000
  Solh                                            ...       0.0000
Radii:
  Scheme                                          ... Element-dependent radii
  Radius for C  used is    3.4960 Bohr (=   1.8500 Ang.)
  Radius for O  used is    4.0969 Bohr (=   2.1680 Ang.)
  Radius for F  used is    3.2692 Bohr (=   1.7300 Ang.)
Calculating surface                               ...        done! (  0.0s)
Cavity surface points                             ...         2075
Cavity Volume                                     ...    2086.4972
Cavity Surface-area                               ...    1082.4421
Calculating surface distance matrix               ...        done! (  0.0s)
Performing Cholesky decomposition & store         ...        done! (  0.1s)
Overall time for CPCM initialization              ...                 0.1s

----------------------------------------D-I-I-S--------------------------------------------
Iteration    Energy (Eh)           Delta-E    RMSDP     MaxDP     DIISErr   Damp  Time(sec)
-------------------------------------------------------------------------------------------
               ***  Starting incremental Fock matrix formation  ***
    1    -1852.6757855364735406     0.00e+00  2.60e-04  3.36e-02  1.56e-01  0.850   8.2
Warning: op=0 Small HOMO/LUMO gap (   0.046) - skipping pre-diagonalization
         Will do a full diagonalization
    2    -1852.8013845943346496    -1.26e-01  3.45e-04  6.91e-02  1.10e-01  0.850   5.3
                               ***Turning on AO-DIIS***
    3    -1852.8711853941290428    -6.98e-02  1.81e-04  3.40e-02  6.83e-02  0.850   4.6
    4    -1852.9137483282497669    -4.26e-02  1.01e-04  1.42e-02  5.15e-02  0.850   4.6
    5    -1852.9442682288286051    -3.05e-02  6.57e-05  7.92e-03  4.25e-02  0.850   4.6
    6    -1852.9685113346699836    -2.42e-02  5.14e-05  7.60e-03  3.65e-02  0.850   4.4
    7    -1852.9887062364691701    -2.02e-02  4.52e-05  7.31e-03  3.14e-02  0.850   4.6
    8    -1853.0058093503498640    -1.71e-02  4.00e-05  6.74e-03  2.66e-02  0.850   4.4
    9    -1853.0201028165943171    -1.43e-02  2.29e-04  3.98e-02  2.21e-02  0.000   4.2
   10    -1853.0953699622209569    -7.53e-02  1.82e-05  2.91e-03  2.73e-03  0.000   4.6
                              *** Initializing SOSCF ***
---------------------------------------S-O-S-C-F--------------------------------------
Iteration    Energy (Eh)           Delta-E    RMSDP     MaxDP     MaxGrad    Time(sec)
--------------------------------------------------------------------------------------
   11    -1853.0954691528982039    -9.92e-05  1.00e-05  1.96e-03  6.30e-04     4.5
               *** Restarting incremental Fock matrix formation ***
   12    -1853.0954763246213588    -7.17e-06  5.88e-06  1.44e-03  3.86e-04     7.5
   13    -1853.0954760500421798     2.75e-07  4.45e-06  7.42e-04  3.94e-04     5.0
   14    -1853.0954797011668234    -3.65e-06  1.90e-06  1.46e-04  8.01e-05     4.6
   15    -1853.0954795530010415     1.48e-07  1.01e-06  1.30e-04  6.86e-05     4.2
   16    -1853.0954799576770711    -4.05e-07  6.24e-07  9.27e-05  1.08e-05     3.7
   17    -1853.0954799705828009    -1.29e-08  3.40e-07  4.48e-05  1.66e-05     3.9
   18    -1853.0954799703254139     2.57e-10  1.39e-07  1.17e-05  3.33e-06     3.6
                 **** Energy Check signals convergence ****

               *****************************************************
               *                     SUCCESS                       *
               *           SCF CONVERGED AFTER  18 CYCLES          *
               *****************************************************

Recomputing exchange energy using gridx3       ... done (    8.989 sec)
Old exchange energy                            :    -19.917318347 Eh
New exchange energy                            :    -19.917335430 Eh
Exchange energy change after final integration :     -0.000017083 Eh
Total energy after final integration           :  -1853.095497053 Eh

SMD CDS free energy correction energy :                 3.43743     Kcal/mol
Total Energy after SMD CDS correction =             -1853.090019156 Eh
             **** ENERGY FILE WAS UPDATED (rf_mecn_freq_r2s_C8_D_B.en.tmp) ****

----------------
TOTAL SCF ENERGY
----------------

Total Energy       :      -1853.09001915563476 Eh          -50425.14299 eV

Components:
Nuclear Repulsion  :       2666.08113668523174 Eh           72547.75599 eV
Electronic Energy  :      -4519.09243920647714 Eh         -122970.75698 eV
One Electron Energy:      -7907.26908139466377 Eh         -215167.73062 eV
Two Electron Energy:       3388.17664218818709 Eh           92196.97364 eV
CPCM Dielectric    :         -0.08417744908005 Eh              -2.29058 eV
SMD CDS (Gcds)     :          0.00547789773588 Eh               0.14906 eV

Virial components:
Potential Energy   :      -3700.06008306778358 Eh         -100683.75352 eV
Kinetic Energy     :       1846.97006391214882 Eh           50258.61054 eV
Virial Ratio       :          2.00331351079428

DFT components:
N(Alpha)           :       95.999997029461 electrons
N(Beta)            :       94.999980919874 electrons
N(Total)           :      190.999977949335 electrons
E(X)               :     -180.209512078816 Eh       
E(C)               :       -6.649401184251 Eh       
E(XC)              :     -186.858913263067 Eh       

CPCM Solvation Model Properties:
Surface-charge          :          0.99019268530971
Corrected charge        :          1.00000000000000
Outlying charge corr.   :          0.00000531135880 Eh               0.00014 eV
Free-energy (cav+disp)  :          0.00547789773588 Eh               0.14906 eV

---------------
SCF CONVERGENCE
---------------

  Last Energy change         ...   -2.5739e-10  Tolerance :   1.0000e-08
  Last MAX-Density change    ...    1.1735e-05  Tolerance :   1.0000e-07
  Last RMS-Density change    ...    1.3869e-07  Tolerance :   5.0000e-09
  Last DIIS Error            ...    6.2993e-04  Tolerance :   5.0000e-07
  Last Orbital Gradient      ...    3.3321e-06  Tolerance :   1.0000e-05
  Last Orbital Rotation      ...    6.3856e-06  Tolerance :   1.0000e-05


----------------------
UHF SPIN CONTAMINATION
----------------------

Warning: in a DFT calculation there is little theoretical justification to 
         calculate <S**2> as in Hartree-Fock theory. We will do it anyways
         but you should keep in mind that the values have only limited relevance

Expectation value of <S**2>     :     0.754402
Ideal value S*(S+1) for S=0.5   :     0.750000
Deviation                       :     0.004402

----------------
ORBITAL ENERGIES
----------------
                 SPIN UP ORBITALS
  NO   OCC          E(Eh)            E(eV) 
   0   1.0000     -24.733832      -673.0418 
   1   1.0000     -24.733516      -673.0332 
   2   1.0000     -24.728389      -672.8937 
   3   1.0000     -24.727892      -672.8802 
   4   1.0000     -24.726709      -672.8480 
   5   1.0000     -24.726551      -672.8437 
   6   1.0000     -24.725000      -672.8015 
   7   1.0000     -24.722623      -672.7368 
   8   1.0000     -24.722206      -672.7254 
   9   1.0000     -24.721483      -672.7057 
  10   1.0000     -24.710752      -672.4137 
  11   1.0000     -24.710597      -672.4095 
  12   1.0000     -24.686221      -671.7462 
  13   1.0000     -24.685912      -671.7378 
  14   1.0000     -19.049336      -518.3588 
  15   1.0000     -19.047436      -518.3071 
  16   1.0000     -10.381158      -282.4857 
  17   1.0000     -10.380990      -282.4811 
  18   1.0000     -10.380528      -282.4685 
  19   1.0000     -10.374601      -282.3072 
  20   1.0000     -10.359531      -281.8972 
  21   1.0000     -10.358317      -281.8641 
  22   1.0000     -10.322128      -280.8794 
  23   1.0000     -10.233536      -278.4687 
  24   1.0000      -1.337701       -36.4007 
  25   1.0000      -1.328244       -36.1434 
  26   1.0000      -1.316899       -35.8346 
  27   1.0000      -1.308759       -35.6131 
  28   1.0000      -1.305687       -35.5296 
  29   1.0000      -1.297541       -35.3079 
  30   1.0000      -1.269602       -34.5476 
  31   1.0000      -1.268382       -34.5144 
  32   1.0000      -1.264500       -34.4088 
  33   1.0000      -1.256488       -34.1908 
  34   1.0000      -1.250455       -34.0266 
  35   1.0000      -1.249832       -34.0097 
  36   1.0000      -1.239273       -33.7223 
  37   1.0000      -1.211001       -32.9530 
  38   1.0000      -1.028968       -27.9996 
  39   1.0000      -0.944629       -25.7047 
  40   1.0000      -0.842910       -22.9367 
  41   1.0000      -0.821537       -22.3552 
  42   1.0000      -0.790600       -21.5133 
  43   1.0000      -0.749378       -20.3916 
  44   1.0000      -0.702520       -19.1166 
  45   1.0000      -0.670849       -18.2547 
  46   1.0000      -0.661569       -18.0022 
  47   1.0000      -0.630757       -17.1638 
  48   1.0000      -0.629132       -17.1196 
  49   1.0000      -0.619897       -16.8682 
  50   1.0000      -0.609964       -16.5980 
  51   1.0000      -0.606892       -16.5144 
  52   1.0000      -0.603561       -16.4237 
  53   1.0000      -0.591018       -16.0824 
  54   1.0000      -0.588936       -16.0258 
  55   1.0000      -0.582498       -15.8506 
  56   1.0000      -0.572578       -15.5806 
  57   1.0000      -0.567896       -15.4532 
  58   1.0000      -0.564413       -15.3585 
  59   1.0000      -0.554833       -15.0978 
  60   1.0000      -0.544571       -14.8185 
  61   1.0000      -0.539878       -14.6908 
  62   1.0000      -0.495651       -13.4874 
  63   1.0000      -0.494418       -13.4538 
  64   1.0000      -0.489313       -13.3149 
  65   1.0000      -0.483909       -13.1678 
  66   1.0000      -0.477175       -12.9846 
  67   1.0000      -0.471808       -12.8385 
  68   1.0000      -0.469910       -12.7869 
  69   1.0000      -0.465397       -12.6641 
  70   1.0000      -0.461880       -12.5684 
  71   1.0000      -0.459755       -12.5106 
  72   1.0000      -0.453900       -12.3512 
  73   1.0000      -0.451844       -12.2953 
  74   1.0000      -0.446320       -12.1450 
  75   1.0000      -0.442795       -12.0491 
  76   1.0000      -0.436397       -11.8750 
  77   1.0000      -0.434989       -11.8366 
  78   1.0000      -0.433462       -11.7951 
  79   1.0000      -0.431299       -11.7362 
  80   1.0000      -0.426923       -11.6172 
  81   1.0000      -0.423480       -11.5235 
  82   1.0000      -0.420263       -11.4359 
  83   1.0000      -0.418110       -11.3774 
  84   1.0000      -0.412759       -11.2318 
  85   1.0000      -0.403070       -10.9681 
  86   1.0000      -0.397803       -10.8248 
  87   1.0000      -0.389389       -10.5958 
  88   1.0000      -0.387359       -10.5406 
  89   1.0000      -0.375292       -10.2122 
  90   1.0000      -0.358930        -9.7670 
  91   1.0000      -0.324465        -8.8291 
  92   1.0000      -0.256478        -6.9791 
  93   1.0000      -0.241636        -6.5753 
  94   1.0000      -0.225426        -6.1341 
  95   1.0000      -0.223258        -6.0752 
  96   0.0000      -0.009309        -0.2533 
  97   0.0000       0.000880         0.0239 
  98   0.0000       0.021801         0.5932 
  99   0.0000       0.050229         1.3668 
 100   0.0000       0.055357         1.5064 
 101   0.0000       0.095481         2.5982 
 102   0.0000       0.098533         2.6812 
 103   0.0000       0.120945         3.2911 
 104   0.0000       0.129546         3.5251 
 105   0.0000       0.138703         3.7743 
 106   0.0000       0.150703         4.1008 

                 SPIN DOWN ORBITALS
  NO   OCC          E(Eh)            E(eV) 
   0   1.0000     -24.729673      -672.9286 
   1   1.0000     -24.729146      -672.9143 
   2   1.0000     -24.728301      -672.8913 
   3   1.0000     -24.727842      -672.8788 
   4   1.0000     -24.726707      -672.8479 
   5   1.0000     -24.726549      -672.8436 
   6   1.0000     -24.725065      -672.8032 
   7   1.0000     -24.722205      -672.7254 
   8   1.0000     -24.721483      -672.7057 
   9   1.0000     -24.720852      -672.6886 
  10   1.0000     -24.710751      -672.4137 
  11   1.0000     -24.710597      -672.4095 
  12   1.0000     -24.686221      -671.7462 
  13   1.0000     -24.685912      -671.7378 
  14   1.0000     -19.049336      -518.3588 
  15   1.0000     -19.047436      -518.3071 
  16   1.0000     -10.381162      -282.4858 
  17   1.0000     -10.381010      -282.4816 
  18   1.0000     -10.379910      -282.4517 
  19   1.0000     -10.374605      -282.3074 
  20   1.0000     -10.359532      -281.8972 
  21   1.0000     -10.340819      -281.3880 
  22   1.0000     -10.322128      -280.8794 
  23   1.0000     -10.233536      -278.4687 
  24   1.0000      -1.336591       -36.3705 
  25   1.0000      -1.323515       -36.0147 
  26   1.0000      -1.314590       -35.7718 
  27   1.0000      -1.308716       -35.6120 
  28   1.0000      -1.303268       -35.4637 
  29   1.0000      -1.297534       -35.3077 
  30   1.0000      -1.269585       -34.5472 
  31   1.0000      -1.266357       -34.4593 
  32   1.0000      -1.260487       -34.2996 
  33   1.0000      -1.255478       -34.1633 
  34   1.0000      -1.250381       -34.0246 
  35   1.0000      -1.247871       -33.9563 
  36   1.0000      -1.239272       -33.7223 
  37   1.0000      -1.211001       -32.9530 
  38   1.0000      -1.028967       -27.9996 
  39   1.0000      -0.944629       -25.7047 
  40   1.0000      -0.841127       -22.8882 
  41   1.0000      -0.817664       -22.2498 
  42   1.0000      -0.785666       -21.3790 
  43   1.0000      -0.743779       -20.2393 
  44   1.0000      -0.697251       -18.9732 
  45   1.0000      -0.665055       -18.0971 
  46   1.0000      -0.661467       -17.9994 
  47   1.0000      -0.629271       -17.1233 
  48   1.0000      -0.627328       -17.0705 
  49   1.0000      -0.618118       -16.8198 
  50   1.0000      -0.608125       -16.5479 
  51   1.0000      -0.603951       -16.4343 
  52   1.0000      -0.601824       -16.3765 
  53   1.0000      -0.588003       -16.0004 
  54   1.0000      -0.587376       -15.9833 
  55   1.0000      -0.580437       -15.7945 
  56   1.0000      -0.571454       -15.5500 
  57   1.0000      -0.566178       -15.4065 
  58   1.0000      -0.563647       -15.3376 
  59   1.0000      -0.554154       -15.0793 
  60   1.0000      -0.539878       -14.6908 
  61   1.0000      -0.511903       -13.9296 
  62   1.0000      -0.494741       -13.4626 
  63   1.0000      -0.493309       -13.4236 
  64   1.0000      -0.487527       -13.2663 
  65   1.0000      -0.483251       -13.1499 
  66   1.0000      -0.476772       -12.9736 
  67   1.0000      -0.469138       -12.7659 
  68   1.0000      -0.465765       -12.6741 
  69   1.0000      -0.462340       -12.5809 
  70   1.0000      -0.461350       -12.5540 
  71   1.0000      -0.454870       -12.3776 
  72   1.0000      -0.453531       -12.3412 
  73   1.0000      -0.447544       -12.1783 
  74   1.0000      -0.444387       -12.0924 
  75   1.0000      -0.442303       -12.0357 
  76   1.0000      -0.434980       -11.8364 
  77   1.0000      -0.432462       -11.7679 
  78   1.0000      -0.431166       -11.7326 
  79   1.0000      -0.430797       -11.7226 
  80   1.0000      -0.426528       -11.6064 
  81   1.0000      -0.423016       -11.5109 
  82   1.0000      -0.419570       -11.4171 
  83   1.0000      -0.417941       -11.3727 
  84   1.0000      -0.411996       -11.2110 
  85   1.0000      -0.402456       -10.9514 
  86   1.0000      -0.397799       -10.8247 
  87   1.0000      -0.388646       -10.5756 
  88   1.0000      -0.386540       -10.5183 
  89   1.0000      -0.375290       -10.2122 
  90   1.0000      -0.356713        -9.7066 
  91   1.0000      -0.323440        -8.8013 
  92   1.0000      -0.241636        -6.5753 
  93   1.0000      -0.225422        -6.1341 
  94   1.0000      -0.223255        -6.0751 
  95   0.0000      -0.094025        -2.5585 
  96   0.0000      -0.004013        -0.1092 
  97   0.0000       0.002188         0.0595 
  98   0.0000       0.024635         0.6704 
  99   0.0000       0.052775         1.4361 
 100   0.0000       0.064392         1.7522 
 101   0.0000       0.101733         2.7683 
 102   0.0000       0.102764         2.7964 
 103   0.0000       0.122197         3.3251 
 104   0.0000       0.132264         3.5991 
 105   0.0000       0.139854         3.8056 
*Only the first 10 virtual orbitals were printed.

                    ********************************
                    * MULLIKEN POPULATION ANALYSIS *
                    ********************************

--------------------------------------------
MULLIKEN ATOMIC CHARGES AND SPIN POPULATIONS
--------------------------------------------
   0 C :    0.211748   -0.000001
   1 O :   -0.508885    0.000014
   2 O :   -0.523143    0.000001
   3 C :    0.343422   -0.000026
   4 C :    0.299489    0.000031
   5 C :    0.330688    0.000097
   6 C :    0.315188    0.000480
   7 C :    0.301953    0.006664
   8 C :    0.409676   -0.016829
   9 C :    0.259244    0.845761
  10 F :   -0.207625    0.000001
  11 F :   -0.213789    0.000001
  12 F :   -0.179095    0.000000
  13 F :   -0.186302   -0.000001
  14 F :   -0.172311    0.000009
  15 F :   -0.170864   -0.000025
  16 F :   -0.167298   -0.000048
  17 F :   -0.167022   -0.000034
  18 F :   -0.170213    0.000624
  19 F :   -0.167947    0.000317
  20 F :   -0.175740    0.032574
  21 F :   -0.167057   -0.000952
  22 F :   -0.146691    0.067221
  23 F :   -0.147426    0.064122
Sum of atomic charges         :   -1.0000000
Sum of atomic spin populations:    1.0000000

-----------------------------------------------------
MULLIKEN REDUCED ORBITAL CHARGES AND SPIN POPULATIONS
-----------------------------------------------------
CHARGE
  0 C s       :     3.018144  s :     3.018144
      pz      :     0.830675  p :     2.495484
      px      :     0.880714
      py      :     0.784095
      dz2     :     0.032794  d :     0.250085
      dxz     :     0.020464
      dyz     :     0.063101
      dx2y2   :     0.061604
      dxy     :     0.072122
      f0      :     0.002377  f :     0.024538
      f+1     :     0.001820
      f-1     :     0.003110
      f+2     :     0.004871
      f-2     :     0.002493
      f+3     :     0.004805
      f-3     :     0.005062

  1 O s       :     3.801900  s :     3.801900
      pz      :     1.490136  p :     4.676044
      px      :     1.613596
      py      :     1.572313
      dz2     :     0.005939  d :     0.029099
      dxz     :     0.003973
      dyz     :     0.006829
      dx2y2   :     0.005599
      dxy     :     0.006759
      f0      :     0.000141  f :     0.001842
      f+1     :     0.000141
      f-1     :     0.000366
      f+2     :     0.000277
      f-2     :     0.000356
      f+3     :     0.000271
      f-3     :     0.000291

  2 O s       :     3.802608  s :     3.802608
      pz      :     1.612006  p :     4.689798
      px      :     1.701368
      py      :     1.376424
      dz2     :     0.003163  d :     0.028921
      dxz     :     0.000832
      dyz     :     0.008352
      dx2y2   :     0.008749
      dxy     :     0.007824
      f0      :     0.000195  f :     0.001817
      f+1     :     0.000034
      f-1     :     0.000274
      f+2     :     0.000308
      f-2     :     0.000102
      f+3     :     0.000446
      f-3     :     0.000458

  3 C s       :     3.114910  s :     3.114910
      pz      :     0.653362  p :     2.260742
      px      :     0.974632
      py      :     0.632748
      dz2     :     0.044389  d :     0.254638
      dxz     :     0.050088
      dyz     :     0.067660
      dx2y2   :     0.039521
      dxy     :     0.052981
      f0      :     0.005058  f :     0.026287
      f+1     :     0.004630
      f-1     :     0.004843
      f+2     :     0.003099
      f-2     :     0.001468
      f+3     :     0.004418
      f-3     :     0.002771

  4 C s       :     3.141764  s :     3.141764
      pz      :     0.615206  p :     2.249763
      px      :     0.951214
      py      :     0.683344
      dz2     :     0.057300  d :     0.281337
      dxz     :     0.056957
      dyz     :     0.071703
      dx2y2   :     0.037605
      dxy     :     0.057772
      f0      :     0.003653  f :     0.027646
      f+1     :     0.005129
      f-1     :     0.007962
      f+2     :     0.002131
      f-2     :     0.002085
      f+3     :     0.004211
      f-3     :     0.002475

  5 C s       :     3.135665  s :     3.135665
      pz      :     0.583980  p :     2.217550
      px      :     0.925727
      py      :     0.707844
      dz2     :     0.073479  d :     0.288239
      dxz     :     0.061988
      dyz     :     0.062129
      dx2y2   :     0.033813
      dxy     :     0.056830
      f0      :     0.004469  f :     0.027857
      f+1     :     0.004560
      f-1     :     0.006784
      f+2     :     0.002913
      f-2     :     0.004031
      f+3     :     0.002851
      f-3     :     0.002250

  6 C s       :     3.140654  s :     3.140654
      pz      :     0.576116  p :     2.225511
      px      :     0.930466
      py      :     0.718929
      dz2     :     0.082218  d :     0.290693
      dxz     :     0.062221
      dyz     :     0.055724
      dx2y2   :     0.032882
      dxy     :     0.057648
      f0      :     0.006118  f :     0.027953
      f+1     :     0.003902
      f-1     :     0.004358
      f+2     :     0.004069
      f-2     :     0.005334
      f+3     :     0.002210
      f-3     :     0.001962

  7 C s       :     3.141832  s :     3.141832
      pz      :     0.584795  p :     2.237917
      px      :     0.949648
      py      :     0.703474
      dz2     :     0.075985  d :     0.290293
      dxz     :     0.061926
      dyz     :     0.061190
      dx2y2   :     0.032331
      dxy     :     0.058861
      f0      :     0.004935  f :     0.028005
      f+1     :     0.004276
      f-1     :     0.006244
      f+2     :     0.003155
      f-2     :     0.004563
      f+3     :     0.002701
      f-3     :     0.002131

  8 C s       :     3.050566  s :     3.050566
      pz      :     0.609878  p :     2.220071
      px      :     0.940771
      py      :     0.669423
      dz2     :     0.062015  d :     0.291965
      dxz     :     0.060977
      dyz     :     0.068335
      dx2y2   :     0.038271
      dxy     :     0.062366
      f0      :     0.003589  f :     0.027722
      f+1     :     0.004982
      f-1     :     0.008088
      f+2     :     0.002293
      f-2     :     0.002739
      f+3     :     0.003666
      f-3     :     0.002365

  9 C s       :     3.228027  s :     3.228027
      pz      :     0.583793  p :     2.272755
      px      :     0.730774
      py      :     0.958189
      dz2     :     0.049837  d :     0.213095
      dxz     :     0.056584
      dyz     :     0.047102
      dx2y2   :     0.027579
      dxy     :     0.031992
      f0      :     0.003513  f :     0.026878
      f+1     :     0.008186
      f-1     :     0.005094
      f+2     :     0.002480
      f-2     :     0.002740
      f+3     :     0.002717
      f-3     :     0.002149

 10 F s       :     3.920058  s :     3.920058
      pz      :     1.896057  p :     5.270988
      px      :     1.898400
      py      :     1.476530
      dz2     :     0.002191  d :     0.015907
      dxz     :     0.000256
      dyz     :     0.003207
      dx2y2   :     0.006081
      dxy     :     0.004171
      f0      :     0.000054  f :     0.000671
      f+1     :     0.000014
      f-1     :     0.000129
      f+2     :     0.000092
      f-2     :     0.000013
      f+3     :     0.000169
      f-3     :     0.000200

 11 F s       :     3.922161  s :     3.922161
      pz      :     1.476106  p :     5.275332
      px      :     1.912240
      py      :     1.886987
      dz2     :     0.007702  d :     0.015632
      dxz     :     0.003830
      dyz     :     0.003489
      dx2y2   :     0.000324
      dxy     :     0.000287
      f0      :     0.000293  f :     0.000665
      f+1     :     0.000155
      f-1     :     0.000171
      f+2     :     0.000024
      f-2     :     0.000019
      f+3     :     0.000002
      f-3     :     0.000002

 12 F s       :     3.924547  s :     3.924547
      pz      :     1.837834  p :     5.236957
      px      :     1.901626
      py      :     1.497498
      dz2     :     0.002179  d :     0.016878
      dxz     :     0.000566
      dyz     :     0.004842
      dx2y2   :     0.005556
      dxy     :     0.003735
      f0      :     0.000075  f :     0.000712
      f+1     :     0.000005
      f-1     :     0.000123
      f+2     :     0.000168
      f-2     :     0.000046
      f+3     :     0.000132
      f-3     :     0.000163

 13 F s       :     3.926978  s :     3.926978
      pz      :     1.450230  p :     5.242014
      px      :     1.902640
      py      :     1.889144
      dz2     :     0.008715  d :     0.016611
      dxz     :     0.004066
      dyz     :     0.003401
      dx2y2   :     0.000233
      dxy     :     0.000195
      f0      :     0.000355  f :     0.000700
      f+1     :     0.000172
      f-1     :     0.000153
      f+2     :     0.000009
      f-2     :     0.000009
      f+3     :     0.000001
      f-3     :     0.000001

 14 F s       :     3.927129  s :     3.927129
      pz      :     1.731075  p :     5.227416
      px      :     1.895397
      py      :     1.600944
      dz2     :     0.002594  d :     0.017051
      dxz     :     0.001553
      dyz     :     0.006427
      dx2y2   :     0.003537
      dxy     :     0.002940
      f0      :     0.000080  f :     0.000714
      f+1     :     0.000011
      f-1     :     0.000170
      f+2     :     0.000195
      f-2     :     0.000108
      f+3     :     0.000075
      f-3     :     0.000076

 15 F s       :     3.926798  s :     3.926798
      pz      :     1.488580  p :     5.226236
      px      :     1.900617
      py      :     1.837039
      dz2     :     0.007454  d :     0.017112
      dxz     :     0.003676
      dyz     :     0.004781
      dx2y2   :     0.000529
      dxy     :     0.000672
      f0      :     0.000266  f :     0.000719
      f+1     :     0.000128
      f-1     :     0.000228
      f+2     :     0.000040
      f-2     :     0.000052
      f+3     :     0.000004
      f-3     :     0.000003

 16 F s       :     3.927807  s :     3.927807
      pz      :     1.615737  p :     5.221540
      px      :     1.898273
      py      :     1.707530
      dz2     :     0.004244  d :     0.017230
      dxz     :     0.002527
      dyz     :     0.006669
      dx2y2   :     0.001921
      dxy     :     0.001868
      f0      :     0.000110  f :     0.000721
      f+1     :     0.000045
      f-1     :     0.000253
      f+2     :     0.000147
      f-2     :     0.000111
      f+3     :     0.000029
      f-3     :     0.000025

 17 F s       :     3.927792  s :     3.927792
      pz      :     1.580520  p :     5.221289
      px      :     1.895205
      py      :     1.745563
      dz2     :     0.004968  d :     0.017221
      dxz     :     0.002933
      dyz     :     0.006288
      dx2y2   :     0.001465
      dxy     :     0.001566
      f0      :     0.000136  f :     0.000721
      f+1     :     0.000068
      f-1     :     0.000260
      f+2     :     0.000117
      f-2     :     0.000106
      f+3     :     0.000019
      f-3     :     0.000016

 18 F s       :     3.928909  s :     3.928909
      pz      :     1.708576  p :     5.223397
      px      :     1.900076
      py      :     1.614745
      dz2     :     0.002818  d :     0.017188
      dxz     :     0.001671
      dyz     :     0.006705
      dx2y2   :     0.003306
      dxy     :     0.002687
      f0      :     0.000082  f :     0.000719
      f+1     :     0.000012
      f-1     :     0.000191
      f+2     :     0.000199
      f-2     :     0.000106
      f+3     :     0.000064
      f-3     :     0.000065

 19 F s       :     3.928174  s :     3.928174
      pz      :     1.503987  p :     5.221804
      px      :     1.895673
      py      :     1.822144
      dz2     :     0.006983  d :     0.017246
      dxz     :     0.003654
      dyz     :     0.005100
      dx2y2   :     0.000685
      dxy     :     0.000824
      f0      :     0.000235  f :     0.000722
      f+1     :     0.000121
      f-1     :     0.000238
      f+2     :     0.000053
      f-2     :     0.000065
      f+3     :     0.000005
      f-3     :     0.000004

 20 F s       :     3.929125  s :     3.929125
      pz      :     1.797512  p :     5.229649
      px      :     1.897905
      py      :     1.534232
      dz2     :     0.002131  d :     0.016292
      dxz     :     0.000869
      dyz     :     0.005473
      dx2y2   :     0.004553
      dxy     :     0.003266
      f0      :     0.000075  f :     0.000675
      f+1     :     0.000004
      f-1     :     0.000125
      f+2     :     0.000183
      f-2     :     0.000070
      f+3     :     0.000101
      f-3     :     0.000118

 21 F s       :     3.926876  s :     3.926876
      pz      :     1.448629  p :     5.222212
      px      :     1.901266
      py      :     1.872317
      dz2     :     0.008668  d :     0.017235
      dxz     :     0.004017
      dyz     :     0.003962
      dx2y2   :     0.000272
      dxy     :     0.000316
      f0      :     0.000345  f :     0.000734
      f+1     :     0.000165
      f-1     :     0.000185
      f+2     :     0.000014
      f-2     :     0.000023
      f+3     :     0.000001
      f-3     :     0.000001

 22 F s       :     3.922320  s :     3.922320
      pz      :     1.779779  p :     5.205674
      px      :     1.597223
      py      :     1.828672
      dz2     :     0.002475  d :     0.017914
      dxz     :     0.005796
      dyz     :     0.001690
      dx2y2   :     0.003876
      dxy     :     0.004076
      f0      :     0.000083  f :     0.000783
      f+1     :     0.000148
      f-1     :     0.000018
      f+2     :     0.000178
      f-2     :     0.000137
      f+3     :     0.000104
      f-3     :     0.000116

 23 F s       :     3.922339  s :     3.922339
      pz      :     1.467375  p :     5.206331
      px      :     1.876892
      py      :     1.862065
      dz2     :     0.008531  d :     0.017974
      dxz     :     0.004155
      dyz     :     0.004791
      dx2y2   :     0.000211
      dxy     :     0.000286
      f0      :     0.000353  f :     0.000782
      f+1     :     0.000195
      f-1     :     0.000193
      f+2     :     0.000016
      f-2     :     0.000022
      f+3     :     0.000001
      f-3     :     0.000001


SPIN
  0 C s       :     0.000003  s :     0.000003
      pz      :    -0.000003  p :    -0.000003
      px      :    -0.000000
      py      :    -0.000000
      dz2     :     0.000000  d :    -0.000001
      dxz     :    -0.000000
      dyz     :    -0.000001
      dx2y2   :    -0.000001
      dxy     :     0.000000
      f0      :    -0.000000  f :     0.000000
      f+1     :    -0.000000
      f-1     :     0.000000
      f+2     :     0.000000
      f-2     :     0.000000
      f+3     :    -0.000000
      f-3     :     0.000000

  1 O s       :     0.000003  s :     0.000003
      pz      :     0.000002  p :     0.000011
      px      :     0.000006
      py      :     0.000003
      dz2     :    -0.000000  d :    -0.000000
      dxz     :    -0.000000
      dyz     :    -0.000000
      dx2y2   :    -0.000000
      dxy     :    -0.000000
      f0      :     0.000000  f :    -0.000000
      f+1     :     0.000000
      f-1     :    -0.000000
      f+2     :    -0.000000
      f-2     :    -0.000000
      f+3     :    -0.000000
      f-3     :    -0.000000

  2 O s       :    -0.000000  s :    -0.000000
      pz      :     0.000000  p :     0.000002
      px      :    -0.000000
      py      :     0.000002
      dz2     :    -0.000000  d :    -0.000000
      dxz     :     0.000000
      dyz     :    -0.000000
      dx2y2   :     0.000000
      dxy     :    -0.000000
      f0      :    -0.000000  f :     0.000000
      f+1     :    -0.000000
      f-1     :    -0.000000
      f+2     :    -0.000000
      f-2     :     0.000000
      f+3     :     0.000000
      f-3     :     0.000000

  3 C s       :    -0.000031  s :    -0.000031
      pz      :    -0.000001  p :     0.000004
      px      :     0.000005
      py      :     0.000001
      dz2     :     0.000001  d :     0.000000
      dxz     :     0.000000
      dyz     :    -0.000001
      dx2y2   :     0.000000
      dxy     :    -0.000000
      f0      :     0.000000  f :    -0.000000
      f+1     :    -0.000000
      f-1     :     0.000000
      f+2     :    -0.000000
      f-2     :    -0.000000
      f+3     :    -0.000000
      f-3     :    -0.000000

  4 C s       :    -0.000018  s :    -0.000018
      pz      :     0.000006  p :     0.000052
      px      :     0.000003
      py      :     0.000043
      dz2     :     0.000001  d :    -0.000003
      dxz     :     0.000000
      dyz     :    -0.000001
      dx2y2   :    -0.000000
      dxy     :    -0.000003
      f0      :     0.000000  f :    -0.000000
      f+1     :    -0.000000
      f-1     :    -0.000000
      f+2     :    -0.000000
      f-2     :    -0.000000
      f+3     :    -0.000000
      f-3     :    -0.000000

  5 C s       :    -0.000302  s :    -0.000302
      pz      :     0.000036  p :     0.000405
      px      :     0.000226
      py      :     0.000143
      dz2     :     0.000003  d :    -0.000005
      dxz     :     0.000003
      dyz     :    -0.000000
      dx2y2   :    -0.000013
      dxy     :     0.000002
      f0      :     0.000000  f :    -0.000002
      f+1     :     0.000000
      f-1     :    -0.000000
      f+2     :    -0.000000
      f-2     :    -0.000000
      f+3     :    -0.000001
      f-3     :    -0.000000

  6 C s       :     0.000001  s :     0.000001
      pz      :    -0.000173  p :     0.000550
      px      :     0.000372
      py      :     0.000350
      dz2     :     0.000002  d :    -0.000066
      dxz     :     0.000009
      dyz     :    -0.000014
      dx2y2   :     0.000022
      dxy     :    -0.000084
      f0      :    -0.000001  f :    -0.000003
      f+1     :     0.000000
      f-1     :     0.000001
      f+2     :    -0.000000
      f-2     :    -0.000001
      f+3     :    -0.000003
      f-3     :    -0.000000

  7 C s       :     0.002608  s :     0.002608
      pz      :     0.000490  p :     0.003988
      px      :     0.007701
      py      :    -0.004203
      dz2     :    -0.000089  d :     0.000047
      dxz     :    -0.000007
      dyz     :    -0.000011
      dx2y2   :    -0.000100
      dxy     :     0.000253
      f0      :    -0.000000  f :     0.000021
      f+1     :     0.000010
      f-1     :     0.000004
      f+2     :    -0.000002
      f-2     :     0.000006
      f+3     :    -0.000011
      f-3     :     0.000014

  8 C s       :    -0.003214  s :    -0.003214
      pz      :     0.008431  p :    -0.026739
      px      :     0.000930
      py      :    -0.036101
      dz2     :    -0.000247  d :     0.012066
      dxz     :     0.001410
      dyz     :    -0.000526
      dx2y2   :     0.008944
      dxy     :     0.002486
      f0      :     0.000038  f :     0.001058
      f+1     :     0.000009
      f-1     :     0.000073
      f+2     :     0.000312
      f-2     :     0.000012
      f+3     :     0.000638
      f-3     :    -0.000025

  9 C s       :     0.213304  s :     0.213304
      pz      :     0.035415  p :     0.638491
      px      :     0.010978
      py      :     0.592098
      dz2     :    -0.001092  d :    -0.003140
      dxz     :    -0.001509
      dyz     :    -0.000949
      dx2y2   :    -0.001424
      dxy     :     0.001835
      f0      :    -0.000447  f :    -0.002894
      f+1     :    -0.000188
      f-1     :    -0.000567
      f+2     :    -0.000587
      f-2     :    -0.000257
      f+3     :    -0.000296
      f-3     :    -0.000551

 10 F s       :     0.000000  s :     0.000000
      pz      :    -0.000000  p :     0.000001
      px      :     0.000000
      py      :     0.000000
      dz2     :    -0.000000  d :    -0.000000
      dxz     :    -0.000000
      dyz     :    -0.000000
      dx2y2   :    -0.000000
      dxy     :     0.000000
      f0      :    -0.000000  f :    -0.000000
      f+1     :    -0.000000
      f-1     :    -0.000000
      f+2     :    -0.000000
      f-2     :    -0.000000
      f+3     :    -0.000000
      f-3     :    -0.000000

 11 F s       :     0.000000  s :     0.000000
      pz      :     0.000000  p :     0.000000
      px      :     0.000000
      py      :    -0.000000
      dz2     :    -0.000000  d :     0.000000
      dxz     :     0.000000
      dyz     :    -0.000000
      dx2y2   :    -0.000000
      dxy     :    -0.000000
      f0      :    -0.000000  f :    -0.000000
      f+1     :    -0.000000
      f-1     :    -0.000000
      f+2     :    -0.000000
      f-2     :    -0.000000
      f+3     :    -0.000000
      f-3     :     0.000000

 12 F s       :    -0.000001  s :    -0.000001
      pz      :     0.000000  p :     0.000001
      px      :     0.000000
      py      :     0.000001
      dz2     :    -0.000000  d :    -0.000000
      dxz     :    -0.000000
      dyz     :    -0.000000
      dx2y2   :    -0.000000
      dxy     :     0.000000
      f0      :    -0.000000  f :    -0.000000
      f+1     :    -0.000000
      f-1     :     0.000000
      f+2     :    -0.000000
      f-2     :    -0.000000
      f+3     :    -0.000000
[...]
 15:    138.11   0.000525    2.65  0.001185  (-0.034373  0.001720 -0.000960)
 16:    164.41   0.000233    1.18  0.000441  (-0.017996  0.009154 -0.005809)
 17:    192.17   0.003091   15.62  0.005020  (-0.001588 -0.004823 -0.070669)
 18:    202.90   0.000154    0.78  0.000237  ( 0.015103 -0.002754  0.001147)
 19:    207.93   0.000160    0.81  0.000240  ( 0.002956  0.014429  0.004770)
 20:    215.73   0.000460    2.33  0.000666  (-0.002415  0.021118 -0.014636)
 21:    231.99   0.000177    0.90  0.000238  (-0.009212 -0.004509 -0.011540)
 22:    241.08   0.000051    0.26  0.000066  (-0.007832  0.002066  0.000315)
 23:    253.24   0.000124    0.63  0.000153  (-0.006552  0.001743  0.010357)
 24:    259.73   0.000013    0.07  0.000016  ( 0.003457 -0.000058  0.001915)
 25:    263.75   0.000233    1.18  0.000276  ( 0.004844 -0.001740  0.015789)
 26:    298.13   0.001726    8.72  0.001806  (-0.041472  0.007979  0.004786)
 27:    310.40   0.000222    1.12  0.000224  ( 0.014222 -0.002240 -0.004052)
 28:    318.38   0.000193    0.97  0.000189  (-0.008424  0.010475 -0.002852)
 29:    345.91   0.000038    0.19  0.000034  ( 0.005328 -0.000032  0.002457)
 30:    354.65   0.000716    3.62  0.000630  ( 0.019302  0.000003  0.016037)
 31:    368.68   0.000215    1.08  0.000182  (-0.011663 -0.000824 -0.006698)
 32:    371.93   0.000302    1.52  0.000253  (-0.015744  0.001156 -0.001947)
 33:    378.04   0.000037    0.19  0.000030  ( 0.005240 -0.000686  0.001579)
 34:    382.05   0.000023    0.12  0.000019  (-0.004018 -0.001569 -0.000369)
 35:    422.21   0.000545    2.76  0.000403  ( 0.017168 -0.009451 -0.004358)
 36:    465.53   0.003809   19.25  0.002553  ( 0.048898 -0.009671  0.008289)
 37:    512.63   0.002278   11.51  0.001387  (-0.033400 -0.008489 -0.014110)
 38:    539.30   0.019079   96.42  0.011040  ( 0.101990 -0.020269  0.015077)
 39:    550.80   0.010723   54.19  0.006075  (-0.065605 -0.041913 -0.003793)
 40:    564.08   0.002142   10.83  0.001185  ( 0.007033 -0.028686  0.017683)
 41:    581.92   0.002611   13.19  0.001400  ( 0.030945 -0.003371 -0.020761)
 42:    586.78   0.002387   12.06  0.001269  (-0.031977  0.014387  0.006312)
 43:    610.32   0.002003   10.12  0.001024  ( 0.029685 -0.011303  0.003889)
 44:    645.56   0.000903    4.56  0.000437  ( 0.018085  0.003300  0.009928)
 45:    665.12   0.041215  208.28  0.019337  ( 0.138896  0.006708 -0.000691)
 46:    687.46   0.001206    6.09  0.000547  ( 0.021346  0.003075 -0.009071)
 47:    725.66   0.000497    2.51  0.000214  ( 0.013073 -0.002044 -0.006223)
 48:    754.53   0.004716   23.83  0.001951  ( 0.043748  0.003907 -0.004634)
 49:    778.60   0.001156    5.84  0.000463  ( 0.003182  0.021073 -0.003048)
 50:    803.99   0.018947   95.75  0.007354  (-0.062664 -0.026940  0.051977)
 51:    883.33   0.005154   26.05  0.001821  (-0.041646 -0.007702  0.005210)
 52:   1017.81   0.008693   43.93  0.002665  ( 0.048916 -0.006117  0.015334)
 53:   1083.56   0.042245  213.49  0.012166  (-0.022346 -0.102823  0.033084)
 54:   1105.79   0.040861  206.50  0.011531  ( 0.016593  0.073089  0.076903)
 55:   1113.36   0.014634   73.96  0.004102  ( 0.019920  0.002775 -0.060806)
 56:   1133.43   0.019362   97.85  0.005331  (-0.009400  0.025282 -0.067847)
 57:   1144.82   0.095766  483.96  0.026104  ( 0.005865  0.154210 -0.047846)
 58:   1154.97   0.047745  241.28  0.012900  ( 0.010630 -0.110704 -0.023062)
 59:   1161.85   0.019278   97.42  0.005178  ( 0.012915  0.066776  0.023496)
 60:   1169.78   0.040845  206.41  0.010896  (-0.006298  0.004780  0.104085)
 61:   1177.33   0.185167  935.76  0.049081  (-0.016809 -0.020633 -0.219937)
 62:   1186.18   0.004114   20.79  0.001082  ( 0.004221  0.018288  0.027021)
 63:   1214.18   0.008047   40.66  0.002068  ( 0.024282 -0.005489 -0.038057)
 64:   1242.82   0.011385   57.53  0.002859  (-0.006082  0.030454  0.043523)
 65:   1267.72   0.038559  194.86  0.009492  ( 0.034073 -0.000058 -0.091273)
 66:   1278.55   0.032198  162.71  0.007859  (-0.024766  0.017474  0.083306)
 67:   1297.35   0.004492   22.70  0.001080  (-0.019645  0.011679  0.023625)
 68:   1333.67   0.008223   41.56  0.001924  (-0.027188 -0.031397  0.014112)
 69:   1376.40   0.042688  215.73  0.009678  (-0.096210  0.019479  0.006523)
 70:   1397.83   0.024045  121.52  0.005368  (-0.063289 -0.027750  0.024342)
 71:   1758.59   0.160376  810.47  0.028459  ( 0.026623 -0.153889 -0.063783)

* The epsilon (eps) is given for a Dirac delta lineshape.
** The dipole moment derivative (T) already includes vibrational overlap.

The first frequency considered to be a vibration is 6
The total number of vibrations considered is 66


--------------------------
THERMOCHEMISTRY AT 298.15K
--------------------------

Temperature         ...   298.15 K
Pressure            ...     1.00 atm
Total Mass          ...   394.06 AMU
Quasi RRHO          ...     True
Cut-Off Frequency   ...     1.00 cm^-1

Throughout the following assumptions are being made:
  (1) The electronic state is orbitally nondegenerate
      but the spin degeneracy is treated
  (2) There are no thermally accessible electronically excited states
  (3) Hindered rotations indicated by low frequency modes are not
      treated as such but are treated as vibrations and this may
      cause some error
  (4) All equations used are the standard statistical mechanics
      equations for an ideal gas
  (5) All vibrations are strictly harmonic

freq.      30.61  E(vib)   ...       0.55 
freq.      34.09  E(vib)   ...       0.55 
freq.      42.56  E(vib)   ...       0.53 
freq.      48.73  E(vib)   ...       0.53 
freq.      59.63  E(vib)   ...       0.51 
freq.      66.31  E(vib)   ...       0.50 
freq.      71.07  E(vib)   ...       0.50 
freq.      74.57  E(vib)   ...       0.49 
freq.     120.67  E(vib)   ...       0.44 
freq.     138.11  E(vib)   ...       0.42 
freq.     164.41  E(vib)   ...       0.39 
freq.     192.17  E(vib)   ...       0.36 
freq.     202.90  E(vib)   ...       0.35 
freq.     207.93  E(vib)   ...       0.34 
freq.     215.73  E(vib)   ...       0.34 
freq.     231.99  E(vib)   ...       0.32 
freq.     241.08  E(vib)   ...       0.31 
freq.     253.24  E(vib)   ...       0.30 
freq.     259.73  E(vib)   ...       0.30 
freq.     263.75  E(vib)   ...       0.29 
freq.     298.13  E(vib)   ...       0.27 
freq.     310.40  E(vib)   ...       0.26 
freq.     318.38  E(vib)   ...       0.25 
freq.     345.91  E(vib)   ...       0.23 
freq.     354.65  E(vib)   ...       0.22 
freq.     368.68  E(vib)   ...       0.21 
freq.     371.93  E(vib)   ...       0.21 
freq.     378.04  E(vib)   ...       0.21 
freq.     382.05  E(vib)   ...       0.21 
freq.     422.21  E(vib)   ...       0.18 
freq.     465.53  E(vib)   ...       0.16 
freq.     512.63  E(vib)   ...       0.13 
freq.     539.30  E(vib)   ...       0.12 
freq.     550.80  E(vib)   ...       0.12 
freq.     564.08  E(vib)   ...       0.11 
freq.     581.92  E(vib)   ...       0.11 
freq.     586.78  E(vib)   ...       0.11 
freq.     610.32  E(vib)   ...       0.10 
freq.     645.56  E(vib)   ...       0.09 
freq.     665.12  E(vib)   ...       0.08 
freq.     687.46  E(vib)   ...       0.07 
freq.     725.66  E(vib)   ...       0.06 
freq.     754.53  E(vib)   ...       0.06 
freq.     778.60  E(vib)   ...       0.05 
freq.     803.99  E(vib)   ...       0.05 
freq.     883.33  E(vib)   ...       0.04 
freq.    1017.81  E(vib)   ...       0.02 
freq.    1083.56  E(vib)   ...       0.02 
freq.    1105.79  E(vib)   ...       0.02 
freq.    1113.36  E(vib)   ...       0.01 
freq.    1133.43  E(vib)   ...       0.01 
freq.    1144.82  E(vib)   ...       0.01 
freq.    1154.97  E(vib)   ...       0.01 
freq.    1161.85  E(vib)   ...       0.01 
freq.    1169.78  E(vib)   ...       0.01 
freq.    1177.33  E(vib)   ...       0.01 
freq.    1186.18  E(vib)   ...       0.01 
freq.    1214.18  E(vib)   ...       0.01 
freq.    1242.82  E(vib)   ...       0.01 
freq.    1267.72  E(vib)   ...       0.01 
freq.    1278.55  E(vib)   ...       0.01 
freq.    1297.35  E(vib)   ...       0.01 
freq.    1333.67  E(vib)   ...       0.01 
freq.    1376.40  E(vib)   ...       0.01 
freq.    1397.83  E(vib)   ...       0.00 
freq.    1758.59  E(vib)   ...       0.00 

------------
INNER ENERGY
------------

The inner energy is: U= E(el) + E(ZPE) + E(vib) + E(rot) + E(trans)
    E(el)   - is the total energy from the electronic structure calculation
              = E(kin-el) + E(nuc-el) + E(el-el) + E(nuc-nuc)
    E(ZPE)  - the the zero temperature vibrational energy from the frequency calculation
    E(vib)  - the the finite temperature correction to E(ZPE) due to population
              of excited vibrational states
    E(rot)  - is the rotational thermal energy
    E(trans)- is the translational thermal energy

Summary of contributions to the inner energy U:
Electronic energy                ...  -1853.09815591 Eh
Zero point energy                ...      0.09441012 Eh      59.24 kcal/mol
Thermal vibrational correction   ...      0.01948835 Eh      12.23 kcal/mol
Thermal rotational correction    ...      0.00141627 Eh       0.89 kcal/mol
Thermal translational correction ...      0.00141627 Eh       0.89 kcal/mol
-----------------------------------------------------------------------
Total thermal energy                  -1852.98142489 Eh


Summary of corrections to the electronic energy:
(perhaps to be used in another calculation)
Total thermal correction                  0.02232089 Eh      14.01 kcal/mol
Non-thermal (ZPE) correction              0.09441012 Eh      59.24 kcal/mol
-----------------------------------------------------------------------
Total correction                          0.11673102 Eh      73.25 kcal/mol


--------
ENTHALPY
--------

The enthalpy is H = U + kB*T
                kB is Boltzmann's constant
Total thermal energy              ...  -1852.98142489 Eh 
Thermal Enthalpy correction       ...      0.00094421 Eh       0.59 kcal/mol
-----------------------------------------------------------------------
Total Enthalpy                    ...  -1852.98048068 Eh


Note: Only C1 symmetry has been detected, increase convergence thresholds 
      if your molecule has a higher symmetry. Symmetry factor of 1.0 is   
      used for the rotational entropy correction. 
 

Note: Rotational entropy computed according to Herzberg 
Infrared and Raman Spectra, Chapter V,1, Van Nostrand Reinhold, 1945 
Point Group:  C1, Symmetry Number:   1  
Rotational constants in cm-1:     0.022879     0.004117     0.004089 

Vibrational entropy computed according to the QRRHO of S. Grimme
Chem.Eur.J. 2012 18 9955 using a reference frequency of 100.0 cm-1


-------
ENTROPY
-------

The entropy contributions are T*S = T*(S(el)+S(vib)+S(rot)+S(trans))
     S(el)   - electronic entropy
     S(vib)  - vibrational entropy
     S(rot)  - rotational entropy
     S(trans)- translational entropy
The entropies will be listed as multiplied by the temperature to get
units of energy

Electronic entropy                ...      0.00065446 Eh      0.41 kcal/mol
Vibrational entropy               ...      0.03482242 Eh     21.85 kcal/mol
Rotational entropy                ...      0.01648352 Eh     10.34 kcal/mol
Translational entropy             ...      0.02081341 Eh     13.06 kcal/mol
-----------------------------------------------------------------------
Final entropy term                ...      0.07277381 Eh     45.67 kcal/mol

In case the symmetry of your molecule has not been determined correctly
or in case you have a reason to use a different symmetry number we print 
out the resulting rotational entropy values for sn=1,12:

 non-linear molecules -----------------------------------
|  sn= 1 | S(rot)=       0.01648352 Eh     10.34 kcal/mol|
|  sn= 2 | S(rot)=       0.01582906 Eh      9.93 kcal/mol|
|  sn= 3 | S(rot)=       0.01544623 Eh      9.69 kcal/mol|
|  sn= 4 | S(rot)=       0.01517461 Eh      9.52 kcal/mol|
|  sn= 5 | S(rot)=       0.01496392 Eh      9.39 kcal/mol|
|  sn= 6 | S(rot)=       0.01479177 Eh      9.28 kcal/mol|
|  sn= 7 | S(rot)=       0.01464623 Eh      9.19 kcal/mol|
|  sn= 8 | S(rot)=       0.01452015 Eh      9.11 kcal/mol|
|  sn= 9 | S(rot)=       0.01440894 Eh      9.04 kcal/mol|
|  sn=10 | S(rot)=       0.01430946 Eh      8.98 kcal/mol|
|  sn=11 | S(rot)=       0.01421947 Eh      8.92 kcal/mol|
|  sn=12 | S(rot)=       0.01413732 Eh      8.87 kcal/mol|
 linear molecules ---------------------------------------
|  Dinfh | S(rot)=       0.01051840 Eh      6.60 kcal/mol|
|  Cinfv | S(rot)=       0.01117286 Eh      7.01 kcal/mol|
 --------------------------------------------------------


-------------------
GIBBS FREE ENERGY
-------------------

The Gibbs free energy is G = H - T*S

Total enthalpy                    ...  -1852.98048068 Eh 
Total entropy correction          ...     -0.07277381 Eh    -45.67 kcal/mol
-----------------------------------------------------------------------
Final Gibbs free energy         ...  -1853.05325449 Eh

For completeness - the Gibbs free energy minus the electronic energy
G-E(el)                           ...      0.04490141 Eh     28.18 kcal/mol


Maximum memory used throughout the entire PROP-calculation: 524.4 MB

--------------------------------
SUGGESTED CITATIONS FOR THIS RUN
--------------------------------

Below you find a list of papers that are relevant to this ORCA run
We neither can nor want to force you to cite these papers, but we appreciate if you do
You receive ORCA, which is the product of decades of hard work by many enthusiastic individuals, for free
The only thing we kindly ask in return is that you cite our papers,
We deeply appreciate it, if you show your appreciation for ORCA by not just citing the generic ORCA reference.

Please note that relegating all ORCA citations to the supporting information does *not* help us.
SI sections are not indexed - citations you put there will not count into any citation statistics
But we need these citations in order to attract the funding resources that allow us to do what we are doing

Therefore, if you are a happy ORCA user, please consider citing a few of the papers listed below in the main body of your paper

In addition to the list printed below, the program has created the file rf_mecn_freq_r2s_C8_D_B.bibtex that contains the list in bibtex format
You can import this file easily into all common literature databanks and citation aid programs


List of essential papers. We consider these as the minimum necessary citations

  1. Neese,F.
     Software update: the ORCA program system, version 5.0
     WIRES Comput. Molec. Sci., 2022 12(1)e1606
     doi.org/10.1002/wcms.1606

List of papers to cite with high priority. The work reported in these papers was absolutely
necessary for this run to complete.
Our perspective: the developers of density functionals and basis sets usually get cited in chemistry papers
Good! But without the algorithms to do something with them, the functionals or basis sets would not do anything.
Hence, in our opinion, the algorithm design and method developments papers are equally worthy of getting cited

  1. Neese,F.
     An improvement of the resolution of the identity approximation for the formation of the Coulomb matrix
     J. Comp. Chem., 2003 24(14)1740-1747
     doi.org/10.1002/jcc.10318
  2. Neese,F.; Wennmohs,F.; Hansen,A.; Becker,U.
     Efficient, approximate and parallel Hartree-Fock and hybrid DFT calculations. A 'chain-of-spheres' algorithm for the Hartree-Fock exchange
     Chem. Phys., 2009 356(1-3)98-109
     doi.org/10.1016/j.chemphys.2008.10.036
  3. Bykov,D.; Petrenko,T.; Izsak,R.; Kossmann,S.; Becker,U.; Valeev,E.; Neese,F.
     Efficient implementation of the analytic second derivatives of Hartree-Fock and hybrid DFT energies: a detailed analysis of different approximations
     Molec. Phys., 2015 113 1961-1977
     doi.org/10.1080/00268976.2015.1025114
  4. Garcia-Rates,M.; Neese,F.
     Efficient implementation of the analytical second derivatives of hartree-fock and hybrid DFT energies within the framework of the conductor-like polarizable continuum model
     J. Comput. Chem., 2019 40 1816-1828
     doi.org/10.1002/jcc.25833
  5. Garcia-Rates,M.; Neese,F.
     Effect of the Solute Cavity on the Solvation Energy and its Derivatives within the Framework of the Gaussian Charge Scheme
     J. Comput. Chem., 2020 41 922-939
     doi.org/10.1002/jcc.26139
  6. Helmich-Paris,B.; de Souza,B.; Neese,F.; Izsák,R.
     An improved chain of spheres for exchange algorithm
     J. Chem. Phys., 2021 155 104109
     doi.org/doi: 10.1063/5.0058766.
  7. Neese,F.
     The SHARK Integral Generation and Digestion System
     J. Comp. Chem., 2022  1-16
     doi.org/10.1002/jcc.26942
  8. Lehtola,S.; Steigemann,C.; Oliveira,M.; Marques,M.
     Recent developments in Libxc - A comprehensive library of functionals for density functional theory
     Software X, 2018 7 
     doi.org/10.1016/j.softx.2017.11.002
  9. Grimme,S.; Antony,J.; Ehrlich,S.; Krieg,H.
     A consistent and accurate ab initio parametrization of density functional dispersion correction (DFT-D) for the 94 elements H-Pu
     J. Chem. Phys., 2010 132 154104
     doi.org/10.1063/1.3382344
 10. Grimme,S.; Ehrlich,S.; Goerigk,L.
     Effect of the damping function in dispersion corrected density functional theory
     J. Comput. Chem., 2011 32(7)1456-1465
     doi.org/10.1002/jcc.21759
 11. Bursch,M.; Neugebauer,H.; Ehlert,S.; Grimme,S.
     Dispersion corrected r2SCAN based global hybrid functionals: r2SCANh, r2SCAN0, and r2SCAN50
     J. Phys. Chem., 2022 156(13)134105
     doi.org/10.1063/5.0086040

List of suggested additional citations. These are papers that are important in the 'surrounding' of 
of this run, or papers that preceded the highly important papers. If you like your results we are grateful for a citation.

  1. Izsak,R.; Neese,F.
     An overlap fitted chain of spheres exchange method
     J. Chem. Phys., 2011 135 144105
     doi.org/10.1063/1.3646921
  2. Izsak,R.; Hansen,A.; Neese,F.
     The resolution of identity and chain of spheres approximations for the LPNO-CCSD singles Fock term
     Molec. Phys., 2012 110 2413-2417
     doi.org/10.1080/00268976.2012.687466
  3. Neese,F.
     The ORCA program system
     WIRES Comput. Molec. Sci., 2012 2(1)73-78
     doi.org/10.1002/wcms.81
  4. Izsak,R.; Neese,F.; Klopper,W.
     Robust fitting techniques in the chain of spheres approximation to the Fock exchange: The role of the complementary space
     J. Chem. Phys., 2013 139 
     doi.org/10.1063/1.4819264
  5. Neese,F.
     Software update: the ORCA program system, version 4.0
     WIRES Comput. Molec. Sci., 2018 8(1)1-6
     doi.org/10.1002/wcms.1327
  6. Neese,F.; Wennmohs,F.; Becker,U.; Riplinger,C.
     The ORCA quantum chemistry program package
     J. Chem. Phys., 2020 152 Art. No. L224108
     doi.org/10.1063/5.0004608
  7. Wittmann,L.; Neugebauer,H.; Grimme,S.; Bursch,M.
     Dispersion-corrected r2SCAN based double-hybrid functionals
     J. Chem. Phys., 2023 159(22)224103
     doi.org/10.1063/5.0174988

List of optional additional citations

  1. Neese,F.
     Approximate second-order SCF convergence for spin unrestricted wavefunctions
     Chem. Phys. Lett., 2000 325(1-3)93-98
     doi.org/10.1016/s0009-2614(00)00662-x

Timings for individual modules:

Sum of individual times          ...     1371.563 sec (=  22.859 min)
Startup calculation              ...        4.541 sec (=   0.076 min)   0.3 %
SCF iterations                   ...      101.326 sec (=   1.689 min)   7.4 %
Property integrals               ...      415.921 sec (=   6.932 min)  30.3 %
SCF Response                     ...      577.531 sec (=   9.626 min)  42.1 %
Property calculations            ...      272.245 sec (=   4.537 min)  19.8 %
                             ****ORCA TERMINATED NORMALLY****
TOTAL RUN TIME: 0 days 0 hours 22 minutes 52 seconds 469 msec
