
                                 *****************
                                 * O   R   C   A *
                                 *****************

                                            #,                                       
                                            ###                                      
                                            ####                                     
                                            #####                                    
                                            ######                                   
                                           ########,                                 
                                     ,,################,,,,,                         
                               ,,#################################,,                 
                          ,,##########################################,,             
                       ,#########################################, ''#####,          
                    ,#############################################,,   '####,        
                  ,##################################################,,,,####,       
                ,###########''''           ''''###############################       
              ,#####''   ,,,,##########,,,,          '''####'''          '####       
            ,##' ,,,,###########################,,,                        '##       
           ' ,,###''''                  '''############,,,                           
         ,,##''                                '''############,,,,        ,,,,,,###''
      ,#''                                            '''#######################'''  
     '                                                          ''''####''''         
             ,#######,   #######,   ,#######,      ##                                
            ,#'     '#,  ##    ##  ,#'     '#,    #''#        ,####,   ,####,        
            ##       ##  ##   ,#'  ##            #'  '#       #'       #'  '#        
            ##       ##  #######   ##           ,######,      #####,   #    #        
            '#,     ,#'  ##    ##  '#,     ,#' ,#      #,     #,   #   #,  ,#        
             '#######'   ##     ##  '#######'  #'      '#     '####' # '####'        



                #########################################################
                #                        -***-                          #
                #          Department of theory and spectroscopy        #
                #                                                       #
                #                      Frank Neese                      #
                #                                                       #
                #     Directorship, Architecture, Infrastructure        #
                #                    SHARK, DRIVERS                     #
                #        Core code/Algorithms in most modules           #
                #                                                       #
                #        Max Planck Institute fuer Kohlenforschung      #
                #                Kaiser Wilhelm Platz 1                 #
                #                 D-45470 Muelheim/Ruhr                 #
                #                      Germany                          #
                #                                                       #
                #                  All rights reserved                  #
                #                        -***-                          #
                #########################################################


                         Program Version 6.0.1  -  RELEASE   -


 With contributions from (in alphabetic order):
[Max-Planck-Institut fuer Kohlenforschung]                               
  Daniel Aravena         : Magnetic Suceptibility                        
  Michael Atanasov       : Ab Initio Ligand Field Theory (pilot matlab implementation)
  Alexander A. Auer      : GIAO ZORA, VPT2 properties, NMR spectrum      
  Ute Becker             : All parallelization in ORCA, NUMFREQ, NUMCALC 
  Giovanni Bistoni       : ED, misc. LED, open-shell LED, HFLD           
  Martin Brehm           : Molecular dynamics                            
  Dmytro Bykov           : pre 5.0 version of the SCF Hessian            
  Marcos Casanova-Páez   : Triplet and SCS-CIS(D). UHF-(DLPNO)-IP/EA/STEOM-CCSD. UHF-CVS-IP/STEOM-CCSD   
  Vijay G. Chilkuri      : MRCI spin determinant printing, contributions to CSF-ICE 
  Pauline Colinet        : FMM embedding                                 
  Dipayan Datta          : RHF DLPNO-CCSD density                        
  Achintya Kumar Dutta   : EOM-CC, STEOM-CC                              
  Nicolas Foglia         : Exact transition moments, OPA infrastructure, MCD improvements    
  Dmitry Ganyushin       : Spin-Orbit,Spin-Spin,Magnetic field MRCI      
  Miquel Garcia-Rates    : C-PCM and meta-GGA Hessian, CCSD/C-PCM, Gaussian charge scheme 
  Tiago L. C. Gouveia    : GS-ROHF, GS-ROCIS                             
  Yang Guo               : DLPNO-NEVPT2, F12-NEVPT2, CIM, IAO-localization        
  Andreas Hansen         : Spin unrestricted coupled pair/coupled cluster methods 
  Ingolf Harden          : AUTO-CI MPn and infrastructure                
  Benjamin Helmich-Paris : MC-RPA, TRAH-(SCF,CASSCF), AVAS, COSX integrals, SCF dyn. polar. 
  Lee Huntington         : MR-EOM, pCC                                   
  Robert Izsak           : Overlap fitted RIJCOSX, COSX-SCS-MP3, EOM     
  Riya Kayal             : Wick's Theorem for AUTO-CI, AUTO-CI UHF-CCSDT 
  Emily Kempfer          : AUTO-CI, RHF CISDT and CCSDT                  
  Christian Kollmar      : KDIIS, OOCD, Brueckner-CCSD(T), CCSD density, CASPT2, CASPT2-K, improved NEVPT2 
  Axel Koslowski         : Symmetry handling                             
  Simone Kossmann        : meta-GGA functionals, TD-DFT gradient, OOMP2, (MP2 Hessian; deprecated post 5.0) 
  Lucas Lang             : DCDCAS                                        
  Marvin Lechner         : AUTO-CI (C++ implementation), FIC-MRCC        
  Spencer Leger          : CASSCF response                               
  Dagmar Lenk            : GEPOL surface, SMD, ORCA-2-JSON               
  Dimitrios Liakos       : Extrapolation schemes; Compound Job, initial MDCI parallelization 
  Dimitrios Manganas     : Further ROCIS development; embedding schemes. LFT, Crystal Embedding 
  Dimitrios Pantazis     : SARC Basis sets                               
  Anastasios Papadopoulos: AUTO-CI, single reference methods and gradients 
  Taras Petrenko         : pre 6.0 DFT Hessian and TD-DFT gradient, (ASA, deprecated), ECA, 1-Electron XAS/XES, NRVS 
  Peter Pinski           : DLPNO-MP2, DLPNO-MP2 Gradient                 
  Christoph Reimann      : Effective Core Potentials                     
  Marius Retegan         : Local ZFS, SOC                                
  Christoph Riplinger    : Optimizer, TS searches, QM/MM, DLPNO-CCSD(T), (RO)-DLPNO pert. Triples 
  Michael Roemelt        : Original ROCIS implementation                 
  Masaaki Saitow         : Open-shell DLPNO-CCSD energy and density      
  Barbara Sandhoefer     : DKH picture change effects                    
  Kantharuban Sivalingam : CASSCF convergence/infrastructure, NEVPT2 and variants, FIC-MRCI 
  Bernardo de Souza      : ESD, SOC TD-DFT                               
  Georgi L. Stoychev     : AutoAux, RI-MP2 NMR, DLPNO-MP2 response, X2C  
  Van Anh Tran           : RI-MP2 g-tensors                              
  Willem Van den Heuvel  : Paramagnetic NMR                              
  Zikuan Wang            : NOTCH, Electric field optimization            
  Frank Wennmohs         : Technical directorship and infrastructure     
  Hang Xu                : AUTO-CI-Response properties                   
                                                                         
[FACCTs GmbH]                                                            
  Markus Bursch, Miquel Garcia-Rates, Christoph Riplinger, Bernardo de Souza, Georgi L. Stoychev 
                                                                 
  APM, Basis sets (HGBS, AHGBS, def-TZVP (Ac-Lr), def2-XVPD (La-Lu)), CI-OPT, improved COSX, DLPNO-Multilevel,           
  DOCKER, DRACO, updates on ESD, GOAT, IRC, LR-CPCM, MBIS, meta-GGA TD-DFT gradient, ML-optimized integration grids, 
  MM, NACMEs, nearIR, NEB, NEB-TS, NL-DFT gradient (VV10), 2- and 3-layer-ONIOM, interface openCOSMO-RS, QMMM,   
  Crystal-QMMM, SF, symmetry and pop. for TD-DFT, r2SCAN hybrids, SOLVATOR                                   
                                                                         
[Other institutions]                                                     
  V. Asgeirsson          : NEB                                           
  Christoph Bannwarth    : sTDA-DFT, sTD-DFT, PBEh-3c, B97-3c, D3        
  Sebastian Ehlert       : rSCAN, r2SCAN, r2SCAN-3c, D4, dhf basis sets  
  Marvin Friede          : D4 for Fr, Ra, Ac-Lr                          
  Lars Goerigk           : TD-DFT with DH, B97 family of functionals     
  Stefan Grimme          : VdW corrections, initial TS optimization, DFT functionals, gCP, sTDA/sTD-DF 
  Waldemar Hujo          : DFT-NL                                        
  H. Jonsson             : NEB                                           
  Holger Kruse           : gCP                                           
  Marcel Mueller         : wB97X-3c, vDZP basis set                      
  Hagen Neugebauer       : wr2SCAN                                       
  Tobias Risthaus        : range-separated hybrid DFT                    
  Lukas Wittmann         : regularized MP2, r2SCAN double-hybrids, wr2SCAN        
                                                                         
We gratefully acknowledge several colleagues who have allowed us to      
interface, adapt or use parts of their codes:                            
  Ed Valeev, F. Pavosevic, A. Kumar             : LibInt (2-el integral package), F12 methods 
  Garnet Chan, S. Sharma, J. Yang, R. Olivares  : DMRG                   
  Ulf Ekstrom                                   : XCFun DFT Library      
  Mihaly Kallay                                 : mrcc  (arbitrary order and MRCC methods)
  Frank Weinhold                                : gennbo (NPA and NBO analysis)           
  Simon Mueller                                 : openCOSMO-RS                            
  Christopher J. Cramer and Donald G. Truhlar   : smd solvation model                     
  S Lehtola, MJT Oliveira, MAL Marques          : LibXC Library                           
  Liviu Ungur et al                             : ANISO software                          


 Your calculation uses the libint2 library for the computation of 2-el integrals
 For citations please refer to: http://libint.valeyev.net

 Your ORCA version has been built with support for libXC version: 6.2.2
 For citations please refer to: https://libxc.gitlab.io

 This ORCA versions uses:
   CBLAS   interface :  Fast vector & matrix operations
   LAPACKE interface :  Fast linear algebra routines
   SCALAPACK package :  Parallel linear algebra routines
   Shared memory     :  Shared parallel matrices
   BLAS/LAPACK       :  OpenBLAS 0.3.27  USE64BITINT DYNAMIC_ARCH NO_AFFINITY SkylakeX SINGLE_THREADED
        Core in use  :  SkylakeX
   Copyright (c) 2011-2014, The OpenBLAS Project


NOTE: MaxCore=8000 MB was set to SCF,MP2,MDCI,CIPSI,MRCI and CIS
      => If you want to overwrite this, your respective input block should be placed after the MaxCore statement
Your calculation utilizes the atom-pairwise dispersion correction
with the Becke-Johnson damping scheme (D3BJ)


Your calculation utilizes the SMD solvation module
Please cite in your paper:
A.V. Marenich, C.J. Cramer, D.G. Truhlar J. Phys. Chem. B, 113, (2009), 6378 

Warning: RI is on but no J-basis has been assigned. Assigning Def2/J (nothing to worry about!)
================================================================================

----- Orbital basis set information -----
Your calculation utilizes the basis: def2-TZVP
   F. Weigend and R. Ahlrichs, Phys. Chem. Chem. Phys. 7, 3297 (2005).

----- AuxJ basis set information -----
Your calculation utilizes the auxiliary basis: def2/J
   F. Weigend, Phys. Chem. Chem. Phys. 8, 1057 (2006).

================================================================================
                                        WARNINGS
                       Please study these warnings very carefully!
================================================================================


WARNING: your system is open-shell and RHF/RKS was chosen
  ===> : WILL SWITCH to UHF/UKS


WARNING: Geometry Optimization
  ===> : Switching off AutoStart
         For restart on a previous wavefunction, please use MOREAD

================================================================================
                                       INPUT FILE
================================================================================
NAME = rf_mecn_opt_B3L_C8_P_B.inp
|  1> !B3LYP def2-TZVP opt d3 TightSCF SlowConv defgrid2
|  2>  
|  3> %pal
|  4> nprocs 20
|  5> end
|  6>  
|  7> %scf
|  8> MaxIter 1500
|  9> end
| 10>  
| 11> %maxcore 8000
| 12>  
| 13> !CPCM
| 14> %cpcm smd true
| 15> SMDsolvent "ACETONITRILE"
| 16> end
| 17>  
| 18> * xyz 0 2
| 19> 6        4.790427000     -0.033865800     -0.529943200
| 20> 8        5.449345000     -1.206924000     -0.894594600
| 21> 8        4.978223000      1.323071000     -0.737377200
| 22> 6        3.506687600     -0.338741600      0.376153800
| 23> 6        2.222300000      0.400524800     -0.110681600
| 24> 6        0.900506800     -0.386389800      0.175703000
| 25> 6       -0.395261200      0.487294000      0.065549000
| 26> 6       -1.705693600     -0.364773800     -0.068373600
| 27> 6       -3.005136200      0.445344800      0.258164000
| 28> 6       -4.319880200     -0.214526000     -0.270540800
| 29> 9        3.211587400     -1.692050400      0.412735200
| 30> 9        3.741061800      0.055285800      1.689948800
| 31> 9        2.125696800      1.616867800      0.483236600
| 32> 9        2.314152400      0.589704000     -1.455769200
| 33> 9        0.794028800     -1.413561400     -0.700839000
| 34> 9        0.958350600     -0.884509000      1.435093400
| 35> 9       -0.498373400      1.260265600      1.173340200
| 36> 9       -0.299075000      1.289512600     -1.020910800
| 37> 9       -1.641790400     -1.418189000      0.779523800
| 38> 9       -1.792381400     -0.831391600     -1.336863600
| 39> 9       -2.918792200      1.679227200     -0.295171200
| 40> 9       -3.119771000      0.573779800      1.598579800
| 41> 9       -4.383115600     -1.504377600      0.089127600
| 42> 9       -5.365669800      0.430528600      0.260394200
| 43> 1        5.903122371     -2.014774547     -1.145719253
| 44> *
| 45> 
| 46>                          ****END OF INPUT****
================================================================================

                       *****************************
                       * Geometry Optimization Run *
                       *****************************

Geometry optimization settings:
Update method            Update   .... BFGS
Choice of coordinates    CoordSys .... (2022) Redundant Internals
Initial Hessian          InHess   .... Almloef's Model
Max. no of cycles        MaxIter  .... 75

Convergence Tolerances:
Energy Change            TolE     ....  5.0000e-06 Eh
Max. Gradient            TolMAXG  ....  3.0000e-04 Eh/bohr
RMS Gradient             TolRMSG  ....  1.0000e-04 Eh/bohr
Max. Displacement        TolMAXD  ....  4.0000e-03 bohr
RMS Displacement         TolRMSD  ....  2.0000e-03 bohr
Strict Convergence                .... False

------------------------------------------------------------------------------
                        ORCA OPTIMIZATION COORDINATE SETUP
------------------------------------------------------------------------------

The optimization will be done in redundant internal coordinates (2022)
Making redundant internal coordinates   ...  (2022 redundants) done
Evaluating the initial hessian          ...  (Almloef) done
Evaluating the coordinates              ...  done
Calculating the B-matrix                .... done
Calculating the G-matrix                .... done
Diagonalizing the G-matrix              .... done
Small eigenvalue found = 4.878e-03
Small eigenvalue found = 1.411e-02
Small eigenvalue found = 2.899e-02
The first mode is                       ....   40
The number of degrees of freedom        ....   69

    -----------------------------------------------------------------
                    Redundant Internal Coordinates


    -----------------------------------------------------------------
         Definition                    Initial Value    Approx d2E/dq
    -----------------------------------------------------------------
      1. B(O   1,C   0)                  1.3940         0.551454   
      2. B(O   2,C   0)                  1.3855         0.568952   
      3. B(C   3,C   0)                  1.6006         0.288221   
      4. B(C   4,C   3)                  1.5599         0.334759   
      5. B(C   5,C   4)                  1.5647         0.328824   
      6. B(C   6,C   5)                  1.5667         0.326486   
      7. B(C   7,C   6)                  1.5688         0.323927   
      8. B(C   8,C   7)                  1.5657         0.327637   
      9. B(C   9,C   8)                  1.5632         0.330714   
     10. B(F  10,C   3)                  1.3856         0.528443   
     11. B(F  11,C   3)                  1.3915         0.517117   
     12. B(F  12,C   4)                  1.3570         0.586881   
     13. B(F  13,C   4)                  1.3614         0.577499   
     14. B(F  14,C   5)                  1.3545         0.592326   
     15. B(F  15,C   5)                  1.3556         0.590092   
     16. B(F  16,C   6)                  1.3547         0.591865   
     17. B(F  17,C   6)                  1.3540         0.593567   
     18. B(F  18,C   7)                  1.3538         0.593973   
     19. B(F  19,C   7)                  1.3544         0.592672   
     20. B(F  20,C   8)                  1.3550         0.591238   
     21. B(F  21,C   8)                  1.3514         0.599114   
     22. B(F  22,C   9)                  1.3406         0.623533   
     23. B(F  23,C   9)                  1.3385         0.628179   
     24. B(H  24,O   1)                  0.9600         0.519956   
     25. A(O   2,C   0,C   3)          112.3347         0.371210   
     26. A(O   1,C   0,C   3)          111.5249         0.369222   
     27. A(O   1,C   0,O   2)          136.1318         0.413163   
     28. L(C   0,O   1,H  24,C   3, 2) 180.0000         0.362759   
     29. L(C   0,O   1,H  24,C   3, 1) 180.0000         0.362759   
     30. A(C   4,C   3,F  11)          107.4072         0.373095   
     31. A(C   0,C   3,F  11)          110.2099         0.363632   
     32. A(F  10,C   3,F  11)          106.7094         0.399684   
     33. A(C   4,C   3,F  10)          107.2033         0.374492   
     34. A(C   0,C   3,F  10)          111.8265         0.364982   
     35. A(C   0,C   3,C   4)          113.1687         0.341363   
     36. A(C   3,C   4,F  12)          110.2926         0.381351   
     37. A(F  12,C   4,F  13)          108.2194         0.415201   
     38. A(C   3,C   4,C   5)          113.5839         0.349005   
     39. A(C   5,C   4,F  13)          107.9208         0.379109   
     40. A(C   3,C   4,F  13)          108.5818         0.380286   
     41. A(C   5,C   4,F  12)          108.0911         0.380169   
     42. A(F  14,C   5,F  15)          109.0206         0.417483   
     43. A(C   4,C   5,C   6)          113.9128         0.347536   
     44. A(C   6,C   5,F  15)          107.7906         0.380059   
     45. A(C   4,C   5,F  15)          108.5900         0.380529   
     46. A(C   6,C   5,F  14)          108.2026         0.380308   
     47. A(C   4,C   5,F  14)          109.2282         0.380779   
     48. A(C   5,C   6,C   7)          113.2023         0.346660   
     49. A(F  16,C   6,F  17)          108.8752         0.417862   
     50. A(C   7,C   6,F  17)          108.2186         0.379927   
     51. A(C   5,C   6,F  17)          109.1523         0.380446   
     52. A(C   7,C   6,F  16)          108.4284         0.379738   
     53. A(C   5,C   6,F  16)          108.8835         0.380256   
     54. A(C   8,C   7,F  18)          108.1296         0.380723   
     55. A(C   6,C   7,F  18)          109.2524         0.379972   
     56. A(F  18,C   7,F  19)          108.7561         0.418014   
     57. A(C   6,C   7,C   8)          113.2298         0.346865   
     58. A(C   8,C   7,F  19)          108.6915         0.380579   
     59. A(C   6,C   7,F  19)          108.6955         0.379828   
     60. A(F  20,C   8,F  21)          108.8987         0.418476   
     61. A(C   9,C   8,F  21)          107.7127         0.381912   
     62. A(C   7,C   8,F  21)          109.0521         0.381293   
     63. A(C   9,C   8,F  20)          107.4499         0.381036   
     64. A(C   7,C   8,C   9)          114.1471         0.348078   
     65. A(C   7,C   8,F  20)          109.4572         0.380419   
     66. A(F  22,C   9,F  23)          108.6877         0.426061   
     67. A(C   8,C   9,F  23)          108.6349         0.385069   
     68. A(C   8,C   9,F  22)          110.7995         0.384572   
     69. D(F  11,C   3,C   0,O   2)    -70.4768         0.006601   
     70. D(C   4,C   3,C   0,O   1)   -131.0839         0.006601   
     71. D(F  11,C   3,C   0,O   1)    108.6317         0.006601   
     72. D(F  10,C   3,C   0,O   2)    171.0025         0.006601   
     73. D(F  10,C   3,C   0,O   1)     -9.8890         0.006601   
     74. D(C   4,C   3,C   0,O   2)     49.8076         0.006601   
     75. D(F  12,C   4,C   3,C   0)    -89.8453         0.009100   
     76. D(C   5,C   4,C   3,C   0)    148.6429         0.009100   
     77. D(F  12,C   4,C   3,F  10)    146.3851         0.009100   
     78. D(F  12,C   4,C   3,F  11)     32.0233         0.009100   
     79. D(C   5,C   4,C   3,F  10)     24.8733         0.009100   
     80. D(C   5,C   4,C   3,F  11)    -89.4885         0.009100   
     81. D(C   6,C   5,C   4,F  12)     41.2001         0.008811   
     82. D(C   6,C   5,C   4,F  13)    -75.6292         0.008811   
     83. D(C   6,C   5,C   4,C   3)    163.9326         0.008811   
     84. D(F  14,C   5,C   4,F  13)     45.4721         0.008811   
     85. D(F  14,C   5,C   4,F  12)    162.3014         0.008811   
     86. D(F  14,C   5,C   4,C   3)    -74.9661         0.008811   
     87. D(F  16,C   6,C   5,F  15)     44.2190         0.008700   
     88. D(F  16,C   6,C   5,F  14)    161.9826         0.008700   
     89. D(F  16,C   6,C   5,C   4)    -76.3465         0.008700   
     90. D(C   7,C   6,C   5,F  15)    -76.4529         0.008700   
     91. D(C   7,C   6,C   5,F  14)     41.3107         0.008700   
     92. D(C   7,C   6,C   5,C   4)    162.9815         0.008700   
     93. D(F  18,C   7,C   6,F  17)    162.9167         0.008578   
     94. D(F  18,C   7,C   6,F  16)    -79.1358         0.008578   
     95. D(F  18,C   7,C   6,C   5)     41.7939         0.008578   
     96. D(C   8,C   7,C   6,F  17)    -76.5134         0.008578   
     97. D(C   8,C   7,C   6,F  16)     41.4341         0.008578   
     98. D(C   8,C   7,C   6,C   5)    162.3638         0.008578   
     99. D(C   9,C   8,C   7,C   6)    162.4166         0.008755   
    100. D(F  20,C   8,C   7,F  19)    -78.9355         0.008755   
    101. D(F  20,C   8,C   7,F  18)    163.1633         0.008755   
    102. D(F  20,C   8,C   7,C   6)     41.9584         0.008755   
    103. D(C   9,C   8,C   7,F  19)     41.5227         0.008755   
    104. D(C   9,C   8,C   7,F  18)    -76.3785         0.008755   
    105. D(F  23,C   9,C   8,F  20)    -69.0724         0.008360   
    106. D(F  23,C   9,C   8,C   7)    169.3552         0.008360   
    107. D(F  22,C   9,C   8,F  21)    -71.2185         0.008360   
    108. D(F  22,C   9,C   8,F  20)    171.5999         0.008360   
    109. D(F  22,C   9,C   8,C   7)     50.0276         0.008360   
    -----------------------------------------------------------------

Number of atoms                         .... 25
Number of degrees of freedom            .... 109


         *************************************************************
         *                GEOMETRY OPTIMIZATION CYCLE   1            *
         *************************************************************
---------------------------------
CARTESIAN COORDINATES (ANGSTROEM)
---------------------------------
  C      4.790427   -0.033866   -0.529943
  O      5.449345   -1.206924   -0.894595
  O      4.978223    1.323071   -0.737377
  C      3.506688   -0.338742    0.376154
  C      2.222300    0.400525   -0.110682
  C      0.900507   -0.386390    0.175703
  C     -0.395261    0.487294    0.065549
  C     -1.705694   -0.364774   -0.068374
  C     -3.005136    0.445345    0.258164
  C     -4.319880   -0.214526   -0.270541
  F      3.211587   -1.692050    0.412735
  F      3.741062    0.055286    1.689949
  F      2.125697    1.616868    0.483237
  F      2.314152    0.589704   -1.455769
  F      0.794029   -1.413561   -0.700839
  F      0.958351   -0.884509    1.435093
  F     -0.498373    1.260266    1.173340
  F     -0.299075    1.289513   -1.020911
  F     -1.641790   -1.418189    0.779524
  F     -1.792381   -0.831392   -1.336864
  F     -2.918792    1.679227   -0.295171
  F     -3.119771    0.573780    1.598580
  F     -4.383116   -1.504378    0.089128
  F     -5.365670    0.430529    0.260394
  H      5.903122   -2.014775   -1.145719

----------------------------
CARTESIAN COORDINATES (A.U.)
----------------------------
  NO LB      ZA    FRAG     MASS         X           Y           Z
   0 C     6.0000    0    12.011    9.052595   -0.063997   -1.001448
   1 O     8.0000    0    15.999   10.297770   -2.280756   -1.690539
   2 O     8.0000    0    15.999    9.407478    2.500242   -1.393441
   3 C     6.0000    0    12.011    6.626679   -0.640129    0.710828
   4 C     6.0000    0    12.011    4.199538    0.756882   -0.209158
   5 C     6.0000    0    12.011    1.701711   -0.730171    0.332031
   6 C     6.0000    0    12.011   -0.746935    0.920852    0.123870
   7 C     6.0000    0    12.011   -3.223294   -0.689323   -0.129207
   8 C     6.0000    0    12.011   -5.678884    0.841580    0.487859
   9 C     6.0000    0    12.011   -8.163391   -0.405395   -0.511248
  10 F     9.0000    0    18.998    6.069021   -3.197512    0.779956
  11 F     9.0000    0    18.998    7.069582    0.104475    3.193540
  12 F     9.0000    0    18.998    4.016985    3.055437    0.913185
  13 F     9.0000    0    18.998    4.373114    1.114379   -2.751005
  14 F     9.0000    0    18.998    1.500497   -2.671244   -1.324394
  15 F     9.0000    0    18.998    1.811020   -1.671480    2.711934
  16 F     9.0000    0    18.998   -0.941789    2.381557    2.217292
  17 F     9.0000    0    18.998   -0.565170    2.436826   -1.929242
  18 F     9.0000    0    18.998   -3.102534   -2.679989    1.473086
  19 F     9.0000    0    18.998   -3.387110   -1.571102   -2.526306
  20 F     9.0000    0    18.998   -5.515718    3.173280   -0.557793
  21 F     9.0000    0    18.998   -5.895513    1.084287    3.020878
  22 F     9.0000    0    18.998   -8.282888   -2.842862    0.168427
  23 F     9.0000    0    18.998  -10.139646    0.813581    0.492074
  24 H     1.0000    0     1.008   11.155285   -3.807372   -2.165096

--------------------------------
INTERNAL COORDINATES (ANGSTROEM)
--------------------------------
 C      0   0   0     0.000000000000     0.00000000     0.00000000
 O      1   0   0     1.393990356793     0.00000000     0.00000000
 O      1   2   0     1.385486802956   136.13177198     0.00000000
 C      1   2   3     1.600608594862   111.52489317   181.18992567
 C      4   1   2     1.559863783763   113.16872737   228.91614990
 C      5   4   1     1.564732561934   113.58394786   148.64287440
 C      6   5   4     1.566675459667   113.91280616   163.93256239
 C      7   6   5     1.568817348692   113.20226571   162.98152714
 C      8   7   6     1.565717094808   113.22984595   162.36375422
 C      9   8   7     1.563173062643   114.14707705   162.41661495
 F      4   1   2     1.385592665621   111.82651119   350.11101305
 F      4   1   2     1.391490625050   110.20991618   108.63170802
 F      5   4   1     1.357041377479   110.29260564   270.15468021
 F      5   4   1     1.361428031433   108.58179722    28.57841973
 F      6   5   4     1.354527570075   109.22822656   285.03385927
 F      6   5   4     1.355556277776   108.59004089    43.81583148
 F      7   6   5     1.354739297058   108.88346185   283.65347401
 F      7   6   5     1.353957667090   109.15230848    42.38718856
 F      8   7   6     1.353771473879   109.25240264    41.79387651
 F      8   7   6     1.354368423305   108.69554158   283.25540020
 F      9   8   7     1.355028009646   109.45719767    41.95842364
 F      9   8   7     1.351425618925   109.05210362   282.91820052
 F     10   9   8     1.340551089588   110.79953142    50.02756898
 F     10   9   8     1.338530275591   108.63493714   169.35523750
 H      2   1   3     0.960000000033   180.00000000     0.00000000

---------------------------
INTERNAL COORDINATES (A.U.)
---------------------------
 C      0   0   0     0.000000000000     0.00000000     0.00000000
 O      1   0   0     2.634260007667     0.00000000     0.00000000
 O      1   2   0     2.618190619750   136.13177198     0.00000000
 C      1   2   3     3.024711891890   111.52489317   181.18992567
 C      4   1   2     2.947715357535   113.16872737   228.91614990
 C      5   4   1     2.956916014884   113.58394786   148.64287440
 C      6   5   4     2.960587559506   113.91280616   163.93256239
 C      7   6   5     2.964635143173   113.20226571   162.98152714
 C      8   7   6     2.958776512386   113.22984595   162.36375422
 C      9   8   7     2.953968988318   114.14707705   162.41661495
 F      4   1   2     2.618390671194   111.82651119   350.11101305
 F      4   1   2     2.629536199263   110.20991618   108.63170802
 F      5   4   1     2.564436555835   110.29260564   270.15468021
 F      5   4   1     2.572726130452   108.58179722    28.57841973
 F      6   5   4     2.559686148288   109.22822656   285.03385927
 F      6   5   4     2.561630124115   108.59004089    43.81583148
 F      7   6   5     2.560086254300   108.88346185   283.65347401
 F      7   6   5     2.558609187723   109.15230848    42.38718856
 F      8   7   6     2.558257333546   109.25240264    41.79387651
 F      8   7   6     2.559385404477   108.69554158   283.25540020
 F      9   8   7     2.560631842023   109.45719767    41.95842364
 F      9   8   7     2.553824310132   109.05210362   282.91820052
 F     10   9   8     2.533274427850   110.79953142    50.02756898
 F     10   9   8     2.529455642830   108.63493714   169.35523750
 H      2   1   3     1.814137088628   180.00000000     0.00000000

---------------------
BASIS SET INFORMATION
---------------------
There are 4 groups of distinct atoms

 Group   1 Type C   : 11s6p2d1f contracted to 5s3p2d1f pattern {62111/411/11/1}
 Group   2 Type O   : 11s6p2d1f contracted to 5s3p2d1f pattern {62111/411/11/1}
 Group   3 Type F   : 11s6p2d1f contracted to 5s3p2d1f pattern {62111/411/11/1}
 Group   4 Type H   : 5s1p contracted to 3s1p pattern {311/1}

Atom   0C    basis set group =>   1
Atom   1O    basis set group =>   2
Atom   2O    basis set group =>   2
Atom   3C    basis set group =>   1
Atom   4C    basis set group =>   1
Atom   5C    basis set group =>   1
Atom   6C    basis set group =>   1
Atom   7C    basis set group =>   1
Atom   8C    basis set group =>   1
Atom   9C    basis set group =>   1
Atom  10F    basis set group =>   3
Atom  11F    basis set group =>   3
Atom  12F    basis set group =>   3
Atom  13F    basis set group =>   3
Atom  14F    basis set group =>   3
Atom  15F    basis set group =>   3
Atom  16F    basis set group =>   3
Atom  17F    basis set group =>   3
Atom  18F    basis set group =>   3
Atom  19F    basis set group =>   3
Atom  20F    basis set group =>   3
Atom  21F    basis set group =>   3
Atom  22F    basis set group =>   3
Atom  23F    basis set group =>   3
Atom  24H    basis set group =>   4
---------------------------------
AUXILIARY/J BASIS SET INFORMATION
---------------------------------
There are 4 groups of distinct atoms

 Group   1 Type C   : 12s5p4d2f1g contracted to 6s4p3d1f1g pattern {711111/2111/211/2/1}
 Group   2 Type O   : 12s5p4d2f1g contracted to 6s4p3d1f1g pattern {711111/2111/211/2/1}
 Group   3 Type F   : 12s5p4d2f1g contracted to 6s4p3d1f1g pattern {711111/2111/211/2/1}
 Group   4 Type H   : 5s2p1d contracted to 3s1p1d pattern {311/2/1}

Atom   0C    basis set group =>   1
Atom   1O    basis set group =>   2
Atom   2O    basis set group =>   2
Atom   3C    basis set group =>   1
Atom   4C    basis set group =>   1
Atom   5C    basis set group =>   1
Atom   6C    basis set group =>   1
Atom   7C    basis set group =>   1
Atom   8C    basis set group =>   1
Atom   9C    basis set group =>   1
Atom  10F    basis set group =>   3
Atom  11F    basis set group =>   3
Atom  12F    basis set group =>   3
Atom  13F    basis set group =>   3
Atom  14F    basis set group =>   3
Atom  15F    basis set group =>   3
Atom  16F    basis set group =>   3
Atom  17F    basis set group =>   3
Atom  18F    basis set group =>   3
Atom  19F    basis set group =>   3
Atom  20F    basis set group =>   3
Atom  21F    basis set group =>   3
Atom  22F    basis set group =>   3
Atom  23F    basis set group =>   3
Atom  24H    basis set group =>   4


           ************************************************************
           *        Program running with 20 parallel MPI-processes    *
           *              working on a common directory               *
           ************************************************************
------------------------------------------------------------------------------
                             ORCA STARTUP CALCULATIONS
                           -- RI-GTO INTEGRALS CHOSEN --
------------------------------------------------------------------------------
------------------------------------------------------------------------------
                   ___                                                        
                  /   \      - P O W E R E D   B Y -                         
                 /     \                                                     
                 |  |  |   _    _      __       _____    __    __             
                 |  |  |  | |  | |    /  \     |  _  \  |  |  /  |          
                  \  \/   | |  | |   /    \    | | | |  |  | /  /          
                 / \  \   | |__| |  /  /\  \   | |_| |  |  |/  /          
                |  |  |   |  __  | /  /__\  \  |    /   |      \           
                |  |  |   | |  | | |   __   |  |    \   |  |\   \          
                \     /   | |  | | |  |  |  |  | |\  \  |  | \   \       
                 \___/    |_|  |_| |__|  |__|  |_| \__\ |__|  \__/        
                                                                              
                      - O R C A' S   B I G   F R I E N D -                    
                                      &                                       
                       - I N T E G R A L  F E E D E R -                       
                                                                              
 v1 FN, 2020, v2 2021, v3 2022-2024                                           
------------------------------------------------------------------------------


----------------------
SHARK INTEGRAL PACKAGE
----------------------

Number of atoms                             ...     25
Number of basis functions                   ...    750
Number of shells                            ...    268
Maximum angular momentum                    ...      3
Integral batch strategy                     ... SHARK/LIBINT Hybrid
RI-J (if used) integral strategy            ... SPLIT-RIJ (Revised 2003 algorithm where possible)
Printlevel                                  ...      1
Contraction scheme used                     ... SEGMENTED contraction
Prescreening option                         ... SCHWARTZ
   Thresh                                   ... 2.500e-11
   Tcut                                     ... 2.500e-12
   Tpresel                                  ... 2.500e-12 
Coulomb Range Separation                    ... NOT USED
Exchange Range Separation                   ... NOT USED
Multipole approximations                    ... NOT USED
Finite Nucleus Model                        ... NOT USED
CABS basis                                  ... NOT available
Auxiliary Coulomb fitting basis             ... AVAILABLE
   # of basis functions in Aux-J            ...   1187
   # of shells in Aux-J                     ...    365
   Maximum angular momentum in Aux-J        ...      4
Auxiliary J/K fitting basis                 ... NOT available
Auxiliary Correlation fitting basis         ... NOT available
Auxiliary 'external' fitting basis          ... NOT available

Checking pre-screening integrals            ... done (  0.0 sec) Dimension = 268
Check shell pair data                       ... done (  0.0 sec)
Shell pair information
Shell pair cut-off parameter TPreSel        ...   2.5e-12
Total number of shell pairs                 ...     36046
Shell pairs after pre-screening             ...     22481
Total number of primitive shell pairs       ...    118872
Primitive shell pairs kept                  ...     47640
          la=0 lb=0:   4290 shell pairs
          la=1 lb=0:   6140 shell pairs
          la=1 lb=1:   2117 shell pairs
          la=2 lb=0:   3339 shell pairs
          la=2 lb=1:   2436 shell pairs
          la=2 lb=2:    689 shell pairs
          la=3 lb=0:   1514 shell pairs
          la=3 lb=1:   1175 shell pairs
          la=3 lb=2:    629 shell pairs
          la=3 lb=3:    152 shell pairs

Calculating one electron integrals          ... done (  0.0 sec)
Calculating RI/J V-Matrix + Cholesky decomp.... done (  0.1 sec)
Calculating Nuclear repulsion               ... done (  0.0 sec) ENN=   2659.344683347456 Eh

Diagonalization of the overlap matrix:
Smallest eigenvalue                        ... 6.427e-05
Time for diagonalization                   ...    0.102 sec
Threshold for overlap eigenvalues          ... 1.000e-07
Number of eigenvalues below threshold      ... 0
Time for construction of square roots      ...    0.048 sec
Total time needed                          ...    0.156 sec

-------------------
DFT GRID GENERATION
-------------------

General Integration Accuracy     IntAcc      ... 4.388
Radial Grid Type                 RadialGrid  ... OptM3 with GC (2021)
Angular Grid (max. ang.)         AngularGrid ... 4 (Lebedev-302)
Angular grid pruning method      GridPruning ... 4 (adaptive)
Weight generation scheme         WeightScheme... mBecke (2022)
Basis function cutoff            BFCut       ... 1.0000e-11
Integration weight cutoff        WCut        ... 1.0000e-14
Partially contracted basis set               ... off
Rotationally invariant grid construction     ... off
Angular grids for H and He will be reduced by one unit

Total number of grid points                  ...   148703
Total number of batches                      ...     2333
Average number of points per batch           ...       63
Average number of grid points per atom       ...     5948

--------------------
COSX GRID GENERATION
--------------------

GRIDX 1
-------
General Integration Accuracy     IntAcc      ... 3.816
Radial Grid Type                 RadialGrid  ... OptM3 with GC (2021)
Angular Grid (max. ang.)         AngularGrid ... 1 (Lebedev-50)
Angular grid pruning method      GridPruning ... 4 (adaptive)
Weight generation scheme         WeightScheme... mBecke (2022)
Basis function cutoff            BFCut       ... 1.0000e-11
Integration weight cutoff        WCut        ... 1.0000e-14
Partially contracted basis set               ... on
Rotationally invariant grid construction     ... off
Angular grids for H and He will be reduced by one unit

Total number of grid points                  ...    18711
Total number of batches                      ...      158
Average number of points per batch           ...      118
Average number of grid points per atom       ...      748
UseSFitting                                  ... on

GRIDX 2
-------
General Integration Accuracy     IntAcc      ... 4.020
Radial Grid Type                 RadialGrid  ... OptM3 with GC (2021)
Angular Grid (max. ang.)         AngularGrid ... 2 (Lebedev-110)
Angular grid pruning method      GridPruning ... 4 (adaptive)
Weight generation scheme         WeightScheme... mBecke (2022)
Basis function cutoff            BFCut       ... 1.0000e-11
Integration weight cutoff        WCut        ... 1.0000e-14
Partially contracted basis set               ... on
Rotationally invariant grid construction     ... off
Angular grids for H and He will be reduced by one unit

Total number of grid points                  ...    44091
Total number of batches                      ...      360
Average number of points per batch           ...      122
Average number of grid points per atom       ...     1764
UseSFitting                                  ... on

GRIDX 3
-------
General Integration Accuracy     IntAcc      ... 4.338
Radial Grid Type                 RadialGrid  ... OptM3 with GC (2021)
Angular Grid (max. ang.)         AngularGrid ... 3 (Lebedev-194)
Angular grid pruning method      GridPruning ... 4 (adaptive)
Weight generation scheme         WeightScheme... mBecke (2022)
Basis function cutoff            BFCut       ... 1.0000e-11
Integration weight cutoff        WCut        ... 1.0000e-14
Partially contracted basis set               ... on
Rotationally invariant grid construction     ... off
Angular grids for H and He will be reduced by one unit

Total number of grid points                  ...    97583
Total number of batches                      ...      773
Average number of points per batch           ...      126
Average number of grid points per atom       ...     3903
UseSFitting                                  ... on
Initializing property integral containers    ... done (  0.0 sec)

SHARK setup successfully completed in   3.2 seconds

Maximum memory used throughout the entire STARTUP-calculation: 57.5 MB


           ************************************************************
           *        Program running with 20 parallel MPI-processes    *
           *              working on a common directory               *
           ************************************************************
-------------------------------------------------------------------------------
                                 ORCA GUESS
                   Start orbitals & Density for SCF / CASSCF
-------------------------------------------------------------------------------

------------
SCF SETTINGS
------------
Hamiltonian:
 Density Functional     Method          .... DFT(GTOs)
 Exchange Functional    Exchange        .... B88
   X-Alpha parameter    XAlpha          ....  0.666667
   Becke's b parameter  XBeta           ....  0.004200
 Correlation Functional Correlation     .... LYP
 LDA part of GGA corr.  LDAOpt          .... VWN-5
 Gradients option       PostSCFGGA      .... off
 Hybrid DFT is turned on
   Fraction HF Exchange ScalHFX         ....  0.200000
   Scaling of DF-GGA-X  ScalDFX         ....  0.720000
   Scaling of DF-GGA-C  ScalDFC         ....  0.810000
   Scaling of DF-LDA-C  ScalLDAC        ....  1.000000
   Perturbative correction              ....  0.000000
   NL short-range parameter             ....  4.800000
 RI-approximation to the Coulomb term is turned on
   Number of AuxJ basis functions       .... 1187
   RIJ-COSX (HFX calculated with COS-X)).... on


General Settings:
 Integral files         IntName         .... rf_mecn_opt_B3L_C8_P_B
 Hartree-Fock type      HFTyp           .... UHF
 Total Charge           Charge          ....    0
 Multiplicity           Mult            ....    2
 Number of Electrons    NEL             ....  191
 Basis Dimension        Dim             ....  750
 Nuclear Repulsion      ENuc            ....   2659.3446833475 Eh

Convergence Acceleration:
 AO-DIIS                CNVDIIS         .... on
   Start iteration      DIISMaxIt       ....     0
   Startup error        DIISStart       ....  0.200000
   # of expansion vecs  DIISMaxEq       ....     5
   Bias factor          DIISBfac        ....   1.050
   Max. coefficient     DIISMaxC        ....  10.000
 MO-DIIS                CNVKDIIS        .... off
 Trust-Rad. Augm. Hess. CNVTRAH         .... auto
   Auto Start mean grad. ratio tolernc. ....  1.125000
   Auto Start start iteration           ....    50
   Auto Start num. interpolation iter.  ....    10
   Max. Number of Micro iterations      ....    24
   Max. Number of Macro iterations      .... Maxiter - #DIIS iter
   Number of Davidson start vectors     ....     2
   Converg. threshold    (grad. norm)   ....   1.000e-05
   Grad. Scal. Fac. for Micro threshold ....   0.100
   Minimum threshold for Micro iter.    ....   1.000e-02
   NR start threshold (gradient norm)   ....   1.000e-04
   Initial trust radius                 ....   0.400
   Minimum AH scaling param. (alpha)    ....   1.000
   Maximum AH scaling param. (alpha)    .... 1000.000
   Quad. conv. algorithm                .... NR
   White noise on init. David. guess    .... on
   Maximum white noise                  ....   0.010
   Pseudo random numbers                .... off
   Inactive MOs                         .... canonical
   Orbital update algorithm             .... Taylor
   Preconditioner                       .... Diag
   Full preconditioner red. dimension   ....   250
 SOSCF                  CNVSOSCF        .... on
   Start iteration      SOSCFMaxIt      ....   150
   Startup grad/error   SOSCFStart      ....  0.001000
   Hessian update       SOSCFHessUp     .... L-BFGS
 Level Shifting         CNVShift        .... on
   Level shift para.    LevelShift      ....    0.2500
   Turn off err/grad.   ShiftErr        ....    0.0000
 Zerner damping         CNVZerner       .... off
 Static damping         CNVDamp         .... on
   Fraction old density DampFac         ....    0.8500
   Max. Damping (<1)    DampMax         ....    0.9800
   Min. Damping (>=0)   DampMin         ....    0.0000
   Turn off err/grad.   DampErr         ....    0.0300

SCF Procedure:
 Maximum # iterations   MaxIter         ....  1500
 SCF integral mode      SCFMode         .... Direct
   Integral package                     .... SHARK and LIBINT hybrid scheme
 Reset frequency        DirectResetFreq ....    20
 Integral Threshold     Thresh          ....  2.500e-11 Eh
 Primitive CutOff       TCut            ....  2.500e-12 Eh

Convergence Tolerance:
 Convergence Check Mode ConvCheckMode   .... Total+1el-Energy
 Convergence forced     ConvForced      .... 0
 Energy Change          TolE            ....  1.000e-08 Eh
 1-El. energy change                    ....  1.000e-05 Eh
 Orbital Gradient       TolG            ....  1.000e-05
 Orbital Rotation angle TolX            ....  1.000e-05
 DIIS Error             TolErr          ....  5.000e-07

------------------------------
INITIAL GUESS: MODEL POTENTIAL
------------------------------
Loading Hartree-Fock densities                     ... done
Calculating cut-offs                               ... done
Initializing the effective Hamiltonian             ... done
Setting up the integral package (SHARK)            ... done
Starting the Coulomb interaction                   ... done (   0.2 sec)
Making the grid                                    ... done (   0.5 sec)
Mapping shells                                     ... done
Starting the XC term evaluation                    ... done (   0.1 sec)
  promolecular density results
     # of electrons  =    191.000381577
     EX              =   -198.443335915
     EC              =     -7.162410779
     EX+EC           =   -205.605746694
Transforming the Hamiltonian                       ... done (   0.0 sec)
Diagonalizing the Hamiltonian                      ... done (   0.1 sec)
Back transforming the eigenvectors                 ... done (   0.0 sec)
Now organizing SCF variables                       ... done
                      ------------------
                      INITIAL GUESS DONE (   1.2 sec)
                      ------------------
             **** ENERGY FILE WAS UPDATED (rf_mecn_opt_B3L_C8_P_B.en.tmp) ****
Finished Guess after   1.8 sec
Maximum memory used throughout the entire GUESS-calculation: 46.8 MB


           ************************************************************
           *        Program running with 20 parallel MPI-processes    *
           *              working on a common directory               *
           ************************************************************

-------------------------------------------------------------------------------------------
                                      ORCA LEAN-SCF
                              memory conserving SCF solver
-------------------------------------------------------------------------------------------

--------------------
CPCM SOLVATION MODEL
--------------------
CPCM parameters:
  Epsilon                                         ...      35.6880
  Refrac                                          ...       1.3442
  Rsolv                                           ...       1.3000
  Surface type                                    ... GAUSSIAN VDW
  Discretization scheme                           ... Constant charge density
    Threshold for H atoms                         ...       5.0000 (charges/Ang^2)
    Threshold for non-H atoms                     ...       5.0000 (charges/Ang^2)
  Epsilon function type                           ...         CPCM
Solvent:                                          ... ACETONITRILE
SMD-CDS solvent descriptors:
  Soln                                            ...       1.3442
  Soln25                                          ...       1.3416
  Sola                                            ...       0.0700
  Solb                                            ...       0.3200
  Solg                                            ...      41.2500
  Solc                                            ...       0.0000
  Solh                                            ...       0.0000
Radii:
  Scheme                                          ... Element-dependent radii
  Radius for C  used is    3.4960 Bohr (=   1.8500 Ang.)
  Radius for O  used is    4.0969 Bohr (=   2.1680 Ang.)
  Radius for F  used is    3.2692 Bohr (=   1.7300 Ang.)
  Radius for H  used is    2.2677 Bohr (=   1.2000 Ang.)
Calculating surface                               ...        done! (  0.0s)
Cavity surface points                             ...         2132
Cavity Volume                                     ...    2127.2962
Cavity Surface-area                               ...    1104.9996
Calculating surface distance matrix               ...        done! (  0.0s)
Performing Cholesky decomposition & store         ...        done! (  0.1s)
Overall time for CPCM initialization              ...                 0.1s

----------------------------------------D-I-I-S--------------------------------------------
Iteration    Energy (Eh)           Delta-E    RMSDP     MaxDP     DIISErr   Damp  Time(sec)
-------------------------------------------------------------------------------------------
               ***  Starting incremental Fock matrix formation  ***
    1    -1853.0500495051583130     0.00e+00  2.24e-04  1.71e-02  1.57e-01  0.850   6.3
Warning: op=1 Small HOMO/LUMO gap (   0.067) - skipping pre-diagonalization
         Will do a full diagonalization
    2    -1853.2206448225188069    -1.71e-01  2.14e-04  1.73e-02  9.71e-02  0.850   4.5
                               ***Turning on AO-DIIS***
    3    -1853.3058043770934091    -8.52e-02  9.04e-05  1.01e-02  5.54e-02  0.850   3.7
    4    -1853.3560354802812071    -5.02e-02  5.22e-05  8.98e-03  3.99e-02  0.850   3.5
    5    -1853.3916301164708784    -3.56e-02  3.96e-05  8.33e-03  3.26e-02  0.850   3.4
    6    -1853.4200056943409436    -2.84e-02  3.48e-05  7.79e-03  2.95e-02  0.850   3.5
    7    -1853.4438633351301178    -2.39e-02  2.20e-04  4.91e-02  2.49e-02  0.000   3.3
    8    -1853.5700378351530162    -1.26e-01  5.52e-05  8.02e-03  1.38e-02  0.000   3.6
    9    -1853.5701538511775652    -1.16e-04  2.03e-05  2.73e-03  1.27e-02  0.000   3.2
   10    -1853.5711373914182332    -9.84e-04  8.83e-06  1.28e-03  3.31e-03  0.000   3.1
                              *** Initializing SOSCF ***
---------------------------------------S-O-S-C-F--------------------------------------
Iteration    Energy (Eh)           Delta-E    RMSDP     MaxDP     MaxGrad    Time(sec)
--------------------------------------------------------------------------------------
   11    -1853.5712221636949835    -8.48e-05  4.03e-06  8.85e-04  8.50e-04     3.4
               *** Restarting incremental Fock matrix formation ***
   12    -1853.5712578594502702    -3.57e-05  3.35e-06  5.40e-04  2.48e-04     5.9
   13    -1853.5712585790306548    -7.20e-07  2.29e-06  4.58e-04  2.25e-04     3.9
   14    -1853.5712594803026150    -9.01e-07  1.24e-06  1.16e-04  1.35e-04     3.9
   15    -1853.5712593803154959     1.00e-07  9.33e-07  1.09e-04  1.98e-04     3.7
   16    -1853.5712597399760853    -3.60e-07  5.97e-07  4.30e-05  2.53e-05     3.4
   17    -1853.5712597749370616    -3.50e-08  2.29e-07  1.63e-05  2.03e-05     3.3
   18    -1853.5712597675837969     7.35e-09  1.41e-07  9.03e-06  3.79e-06     2.9
                 **** Energy Check signals convergence ****

               *****************************************************
               *                     SUCCESS                       *
               *           SCF CONVERGED AFTER  18 CYCLES          *
               *****************************************************

Recomputing exchange energy using gridx3       ... done (    7.442 sec)
Old exchange energy                            :    -39.747398703 Eh
New exchange energy                            :    -39.747419742 Eh
Exchange energy change after final integration :     -0.000021039 Eh
Total energy after final integration           :  -1853.571280807 Eh

SMD CDS free energy correction energy :                 4.03038     Kcal/mol
Total Energy after SMD CDS correction =             -1853.564857996 Eh
             **** ENERGY FILE WAS UPDATED (rf_mecn_opt_B3L_C8_P_B.en.tmp) ****

----------------
TOTAL SCF ENERGY
----------------

Total Energy       :      -1853.56485799563779 Eh          -50438.06401 eV

Components:
Nuclear Repulsion  :       2659.34468334745634 Eh           72364.44777 eV
Electronic Energy  :      -4512.89879497476795 Eh         -122802.21936 eV
One Electron Energy:      -7870.38426880461157 Eh         -214164.04384 eV
Two Electron Energy:       3357.48547382984316 Eh           91361.82449 eV
CPCM Dielectric    :         -0.01714814027193 Eh              -0.46662 eV
SMD CDS (Gcds)     :          0.00642281100933 Eh               0.17477 eV

Virial components:
Potential Energy   :      -3699.67968004718068 Eh         -100673.40223 eV
Kinetic Energy     :       1846.11482205154289 Eh           50235.33822 eV
Virial Ratio       :          2.00403552143946

DFT components:
N(Alpha)           :       95.999992230573 electrons
N(Beta)            :       94.999972784702 electrons
N(Total)           :      190.999965015275 electrons
E(X)               :     -158.458985683104 Eh       
E(C)               :       -8.364516201752 Eh       
E(XC)              :     -166.823501884857 Eh       

CPCM Solvation Model Properties:
Surface-charge          :         -0.00965775491845
Corrected charge        :          0.00000000000000
Outlying charge corr.   :          0.00000510714106 Eh               0.00014 eV
Free-energy (cav+disp)  :          0.00642281100933 Eh               0.17477 eV

---------------
SCF CONVERGENCE
---------------

  Last Energy change         ...   -7.3533e-09  Tolerance :   1.0000e-08
  Last MAX-Density change    ...    9.0306e-06  Tolerance :   1.0000e-07
  Last RMS-Density change    ...    1.4089e-07  Tolerance :   5.0000e-09
  Last DIIS Error            ...    8.4994e-04  Tolerance :   5.0000e-07
  Last Orbital Gradient      ...    3.7907e-06  Tolerance :   1.0000e-05
  Last Orbital Rotation      ...    2.3915e-05  Tolerance :   1.0000e-05


----------------------
UHF SPIN CONTAMINATION
----------------------

Warning: in a DFT calculation there is little theoretical justification to 
         calculate <S**2> as in Hartree-Fock theory. We will do it anyways
         but you should keep in mind that the values have only limited relevance

Expectation value of <S**2>     :     0.752286
Ideal value S*(S+1) for S=0.5   :     0.750000
Deviation                       :     0.002286

----------------
ORBITAL ENERGIES
----------------
                 SPIN UP ORBITALS
  NO   OCC          E(Eh)            E(eV) 
   0   1.0000     -24.746861      -673.3963 
   1   1.0000     -24.746391      -673.3835 
   2   1.0000     -24.745185      -673.3507 
   3   1.0000     -24.745170      -673.3503 
   4   1.0000     -24.744746      -673.3388 
   5   1.0000     -24.744687      -673.3372 
   6   1.0000     -24.744642      -673.3359 
   7   1.0000     -24.743157      -673.2955 
   8   1.0000     -24.741920      -673.2619 
   9   1.0000     -24.740929      -673.2349 
  10   1.0000     -24.739544      -673.1972 
  11   1.0000     -24.739144      -673.1863 
  12   1.0000     -24.733430      -673.0309 
  13   1.0000     -24.733421      -673.0306 
  14   1.0000     -19.204854      -522.5906 
  15   1.0000     -19.173142      -521.7277 
  16   1.0000     -10.412543      -283.3397 
  17   1.0000     -10.411751      -283.3182 
  18   1.0000     -10.410848      -283.2936 
  19   1.0000     -10.410680      -283.2890 
  20   1.0000     -10.409930      -283.2686 
  21   1.0000     -10.407487      -283.2021 
  22   1.0000     -10.407227      -283.1950 
  23   1.0000     -10.387575      -282.6603 
  24   1.0000      -1.333964       -36.2990 
  25   1.0000      -1.323712       -36.0200 
  26   1.0000      -1.314206       -35.7614 
  27   1.0000      -1.306250       -35.5449 
  28   1.0000      -1.304086       -35.4860 
  29   1.0000      -1.300535       -35.3894 
  30   1.0000      -1.286550       -35.0088 
  31   1.0000      -1.265310       -34.4308 
  32   1.0000      -1.257691       -34.2235 
  33   1.0000      -1.254426       -34.1347 
  34   1.0000      -1.251679       -34.0599 
  35   1.0000      -1.248394       -33.9705 
  36   1.0000      -1.248086       -33.9621 
  37   1.0000      -1.233167       -33.5562 
  38   1.0000      -1.090849       -29.6835 
  39   1.0000      -1.004286       -27.3280 
  40   1.0000      -0.853342       -23.2206 
  41   1.0000      -0.835917       -22.7465 
  42   1.0000      -0.809946       -22.0397 
  43   1.0000      -0.776424       -21.1276 
  44   1.0000      -0.742534       -20.2054 
  45   1.0000      -0.709562       -19.3082 
  46   1.0000      -0.682470       -18.5710 
  47   1.0000      -0.679081       -18.4787 
  48   1.0000      -0.646995       -17.6056 
  49   1.0000      -0.645024       -17.5520 
  50   1.0000      -0.634286       -17.2598 
  51   1.0000      -0.626869       -17.0580 
  52   1.0000      -0.624736       -16.9999 
  53   1.0000      -0.620301       -16.8793 
  54   1.0000      -0.608617       -16.5613 
  55   1.0000      -0.604706       -16.4549 
  56   1.0000      -0.601182       -16.3590 
  57   1.0000      -0.594389       -16.1742 
  58   1.0000      -0.592759       -16.1298 
  59   1.0000      -0.585045       -15.9199 
  60   1.0000      -0.582823       -15.8594 
  61   1.0000      -0.573701       -15.6112 
  62   1.0000      -0.554286       -15.0829 
  63   1.0000      -0.518266       -14.1027 
  64   1.0000      -0.514682       -14.0052 
  65   1.0000      -0.508015       -13.8238 
  66   1.0000      -0.506529       -13.7834 
  67   1.0000      -0.502191       -13.6653 
  68   1.0000      -0.498390       -13.5619 
  69   1.0000      -0.492758       -13.4086 
  70   1.0000      -0.489368       -13.3164 
  71   1.0000      -0.485729       -13.2174 
  72   1.0000      -0.485093       -13.2000 
  73   1.0000      -0.479876       -13.0581 
  74   1.0000      -0.476754       -12.9731 
  75   1.0000      -0.472363       -12.8536 
  76   1.0000      -0.467986       -12.7346 
  77   1.0000      -0.464017       -12.6265 
  78   1.0000      -0.457103       -12.4384 
  79   1.0000      -0.454361       -12.3638 
  80   1.0000      -0.453988       -12.3536 
  81   1.0000      -0.451286       -12.2801 
  82   1.0000      -0.449445       -12.2300 
  83   1.0000      -0.446309       -12.1447 
  84   1.0000      -0.445252       -12.1159 
  85   1.0000      -0.441471       -12.0130 
  86   1.0000      -0.439857       -11.9691 
  87   1.0000      -0.437812       -11.9135 
  88   1.0000      -0.434766       -11.8306 
  89   1.0000      -0.423027       -11.5112 
  90   1.0000      -0.396376       -10.7859 
  91   1.0000      -0.369046       -10.0423 
  92   1.0000      -0.353789        -9.6271 
  93   1.0000      -0.345331        -9.3969 
  94   1.0000      -0.320317        -8.7163 
  95   1.0000      -0.286978        -7.8091 
  96   0.0000      -0.100076        -2.7232 
  97   0.0000      -0.026584        -0.7234 
  98   0.0000      -0.008532        -0.2322 
  99   0.0000       0.001266         0.0345 
 100   0.0000       0.026435         0.7193 
 101   0.0000       0.036103         0.9824 
 102   0.0000       0.071337         1.9412 
 103   0.0000       0.078850         2.1456 
 104   0.0000       0.095265         2.5923 
 105   0.0000       0.101108         2.7513 
 106   0.0000       0.103150         2.8069 

                 SPIN DOWN ORBITALS
  NO   OCC          E(Eh)            E(eV) 
   0   1.0000     -24.745183      -673.3507 
   1   1.0000     -24.745170      -673.3503 
   2   1.0000     -24.744746      -673.3388 
   3   1.0000     -24.744649      -673.3361 
   4   1.0000     -24.744556      -673.3336 
   5   1.0000     -24.743157      -673.2955 
   6   1.0000     -24.743143      -673.2951 
   7   1.0000     -24.742795      -673.2857 
   8   1.0000     -24.741920      -673.2619 
   9   1.0000     -24.739844      -673.2054 
  10   1.0000     -24.739543      -673.1972 
  11   1.0000     -24.739197      -673.1878 
  12   1.0000     -24.733430      -673.0309 
  13   1.0000     -24.733421      -673.0306 
  14   1.0000     -19.204854      -522.5906 
  15   1.0000     -19.173142      -521.7277 
  16   1.0000     -10.412521      -283.3391 
  17   1.0000     -10.411750      -283.3181 
  18   1.0000     -10.410848      -283.2936 
  19   1.0000     -10.410753      -283.2910 
  20   1.0000     -10.409929      -283.2686 
  21   1.0000     -10.407227      -283.1950 
  22   1.0000     -10.406150      -283.1657 
  23   1.0000     -10.371738      -282.2293 
  24   1.0000      -1.333524       -36.2870 
  25   1.0000      -1.321412       -35.9575 
  26   1.0000      -1.311166       -35.6786 
  27   1.0000      -1.305917       -35.5358 
  28   1.0000      -1.303540       -35.4711 
  29   1.0000      -1.296936       -35.2914 
  30   1.0000      -1.286549       -35.0088 
  31   1.0000      -1.265233       -34.4287 
  32   1.0000      -1.257398       -34.2155 
  33   1.0000      -1.251527       -34.0558 
  34   1.0000      -1.248319       -33.9685 
  35   1.0000      -1.247672       -33.9509 
  36   1.0000      -1.246431       -33.9171 
  37   1.0000      -1.233167       -33.5562 
  38   1.0000      -1.090849       -29.6835 
  39   1.0000      -1.004286       -27.3280 
  40   1.0000      -0.852941       -23.2097 
  41   1.0000      -0.834231       -22.7006 
  42   1.0000      -0.806282       -21.9400 
  43   1.0000      -0.772070       -21.0091 
  44   1.0000      -0.738947       -20.1078 
  45   1.0000      -0.706088       -19.2136 
  46   1.0000      -0.679532       -18.4910 
  47   1.0000      -0.677103       -18.4249 
  48   1.0000      -0.645588       -17.5673 
  49   1.0000      -0.644581       -17.5400 
  50   1.0000      -0.633935       -17.2502 
  51   1.0000      -0.625935       -17.0326 
  52   1.0000      -0.623038       -16.9537 
  53   1.0000      -0.618395       -16.8274 
  54   1.0000      -0.606503       -16.5038 
  55   1.0000      -0.602341       -16.3905 
  56   1.0000      -0.599733       -16.3196 
  57   1.0000      -0.591879       -16.1058 
  58   1.0000      -0.589193       -16.0327 
  59   1.0000      -0.583120       -15.8675 
  60   1.0000      -0.581189       -15.8150 
  61   1.0000      -0.573676       -15.6105 
  62   1.0000      -0.527173       -14.3451 
  63   1.0000      -0.517655       -14.0861 
  64   1.0000      -0.514123       -13.9900 
  65   1.0000      -0.506759       -13.7896 
  66   1.0000      -0.505107       -13.7447 
  67   1.0000      -0.501596       -13.6491 
  68   1.0000      -0.498217       -13.5572 
  69   1.0000      -0.491400       -13.3717 
  70   1.0000      -0.489106       -13.3093 
  71   1.0000      -0.485242       -13.2041 
  72   1.0000      -0.482733       -13.1358 
  73   1.0000      -0.478868       -13.0307 
  74   1.0000      -0.472143       -12.8477 
  75   1.0000      -0.467499       -12.7213 
  76   1.0000      -0.464162       -12.6305 
  77   1.0000      -0.461429       -12.5561 
  78   1.0000      -0.457005       -12.4357 
  79   1.0000      -0.453844       -12.3497 
  80   1.0000      -0.451172       -12.2770 
  81   1.0000      -0.450318       -12.2538 
  82   1.0000      -0.449028       -12.2187 
  83   1.0000      -0.445528       -12.1234 
  84   1.0000      -0.444822       -12.1042 
  85   1.0000      -0.441385       -12.0107 
  86   1.0000      -0.439215       -11.9516 
  87   1.0000      -0.437343       -11.9007 
  88   1.0000      -0.433477       -11.7955 
  89   1.0000      -0.420396       -11.4396 
  90   1.0000      -0.393418       -10.7055 
  91   1.0000      -0.367708       -10.0058 
  92   1.0000      -0.352302        -9.5866 
  93   1.0000      -0.345331        -9.3969 
  94   1.0000      -0.320292        -8.7156 
  95   0.0000      -0.124225        -3.3803 
  96   0.0000      -0.100069        -2.7230 
  97   0.0000      -0.025936        -0.7057 
  98   0.0000      -0.007656        -0.2083 
  99   0.0000       0.002127         0.0579 
 100   0.0000       0.028278         0.7695 
 101   0.0000       0.039533         1.0757 
 102   0.0000       0.075661         2.0589 
 103   0.0000       0.082684         2.2499 
 104   0.0000       0.095999         2.6123 
 105   0.0000       0.101531         2.7628 
*Only the first 10 virtual orbitals were printed.

                    ********************************
                    * MULLIKEN POPULATION ANALYSIS *
                    ********************************

--------------------------------------------
MULLIKEN ATOMIC CHARGES AND SPIN POPULATIONS
--------------------------------------------
   0 C :    0.388793   -0.000000
   1 O :   -0.451622    0.000001
   2 O :   -0.388268    0.000001
   3 C :    0.375615    0.000013
   4 C :    0.343461   -0.000005
   5 C :    0.339015    0.000093
   6 C :    0.328343    0.000138
   7 C :    0.327582   -0.000269
   8 C :    0.370217    0.010504
   9 C :    0.280776    0.835817
  10 F :   -0.181685   -0.000000
  11 F :   -0.183222    0.000000
  12 F :   -0.170968    0.000002
  13 F :   -0.175385    0.000001
  14 F :   -0.169155    0.000005
  15 F :   -0.169945   -0.000004
  16 F :   -0.168765    0.000032
  17 F :   -0.168222    0.000002
  18 F :   -0.170614    0.000044
  19 F :   -0.169840    0.001492
  20 F :   -0.173470   -0.000657
  21 F :   -0.165498    0.023923
  22 F :   -0.151621    0.065825
  23 F :   -0.148519    0.063043
  24 H :    0.452998    0.000000
Sum of atomic charges         :    0.0000000
Sum of atomic spin populations:    1.0000000

-----------------------------------------------------
MULLIKEN REDUCED ORBITAL CHARGES AND SPIN POPULATIONS
-----------------------------------------------------
CHARGE
  0 C s       :     3.160144  s :     3.160144
      pz      :     0.776331  p :     2.229313
      px      :     0.788507
      py      :     0.664475
      dz2     :     0.015353  d :     0.203642
      dxz     :     0.014731
      dyz     :     0.057172
      dx2y2   :     0.050690
      dxy     :     0.065696
      f0      :     0.001743  f :     0.018108
      f+1     :     0.001068
      f-1     :     0.002348
      f+2     :     0.002581
      f-2     :     0.001943
      f+3     :     0.003919
      f-3     :     0.004506

  1 O s       :     3.664354  s :     3.664354
      pz      :     1.725326  p :     4.770711
      px      :     1.690424
      py      :     1.354961
      dz2     :     0.001633  d :     0.013737
      dxz     :     0.001146
      dyz     :     0.002996
      dx2y2   :     0.003092
      dxy     :     0.004871
      f0      :     0.000276  f :     0.002820
      f+1     :     0.000129
      f-1     :     0.000378
      f+2     :     0.000242
      f-2     :     0.000433
      f+3     :     0.000923
      f-3     :     0.000441

  2 O s       :     3.878823  s :     3.878823
      pz      :     1.540155  p :     4.483393
      px      :     1.696397
      py      :     1.246842
      dz2     :     0.003271  d :     0.024771
      dxz     :     0.000322
      dyz     :     0.006529
      dx2y2   :     0.009202
      dxy     :     0.005448
      f0      :     0.000116  f :     0.001281
      f+1     :     0.000012
      f-1     :     0.000222
      f+2     :     0.000222
      f-2     :     0.000029
      f+3     :     0.000288
      f-3     :     0.000392

  3 C s       :     3.120239  s :     3.120239
      pz      :     0.678309  p :     2.221624
      px      :     0.903629
      py      :     0.639685
      dz2     :     0.045450  d :     0.257292
      dxz     :     0.051596
      dyz     :     0.064143
      dx2y2   :     0.043928
      dxy     :     0.052174
      f0      :     0.005345  f :     0.025231
      f+1     :     0.003582
      f-1     :     0.003907
      f+2     :     0.003596
      f-2     :     0.002024
      f+3     :     0.003711
      f-3     :     0.003066

  4 C s       :     3.129938  s :     3.129938
      pz      :     0.608678  p :     2.221058
      px      :     0.916267
      py      :     0.696113
      dz2     :     0.059852  d :     0.278128
      dxz     :     0.058631
      dyz     :     0.067235
      dx2y2   :     0.033931
      dxy     :     0.058480
      f0      :     0.003796  f :     0.027414
      f+1     :     0.004841
      f-1     :     0.007884
      f+2     :     0.002234
      f-2     :     0.002629
      f+3     :     0.003459
      f-3     :     0.002571

  5 C s       :     3.156141  s :     3.156141
      pz      :     0.588395  p :     2.192380
      px      :     0.897212
      py      :     0.706772
      dz2     :     0.073688  d :     0.284760
      dxz     :     0.061187
      dyz     :     0.058276
      dx2y2   :     0.033049
      dxy     :     0.058559
      f0      :     0.004945  f :     0.027704
      f+1     :     0.004351
      f-1     :     0.006210
      f+2     :     0.003182
      f-2     :     0.004290
      f+3     :     0.002500
      f-3     :     0.002227

  6 C s       :     3.151465  s :     3.151465
      pz      :     0.580680  p :     2.209013
      px      :     0.910568
      py      :     0.717764
      dz2     :     0.078456  d :     0.283511
      dxz     :     0.060797
      dyz     :     0.053534
      dx2y2   :     0.032871
      dxy     :     0.057853
      f0      :     0.006006  f :     0.027667
      f+1     :     0.003901
      f-1     :     0.004574
      f+2     :     0.004030
      f-2     :     0.005124
      f+3     :     0.002054
      f-3     :     0.001979

  7 C s       :     3.149719  s :     3.149719
      pz      :     0.586427  p :     2.213264
      px      :     0.914597
      py      :     0.712240
      dz2     :     0.071691  d :     0.281792
      dxz     :     0.060325
      dyz     :     0.059097
      dx2y2   :     0.032959
      dxy     :     0.057721
      f0      :     0.004789  f :     0.027643
      f+1     :     0.004323
      f-1     :     0.006495
      f+2     :     0.003045
      f-2     :     0.004206
      f+3     :     0.002585
      f-3     :     0.002199

  8 C s       :     3.115764  s :     3.115764
      pz      :     0.609119  p :     2.207743
      px      :     0.911120
      py      :     0.687504
      dz2     :     0.057080  d :     0.278547
      dxz     :     0.062522
      dyz     :     0.069572
      dx2y2   :     0.033924
      dxy     :     0.055447
      f0      :     0.003815  f :     0.027730
      f+1     :     0.004926
      f-1     :     0.008090
      f+2     :     0.002221
      f-2     :     0.002377
      f+3     :     0.003692
      f-3     :     0.002608

  9 C s       :     3.291906  s :     3.291906
      pz      :     0.907252  p :     2.201346
      px      :     0.719445
      py      :     0.574649
      dz2     :     0.029696  d :     0.200237
      dxz     :     0.024899
      dyz     :     0.039801
      dx2y2   :     0.051091
      dxy     :     0.054749
      f0      :     0.001725  f :     0.025736
      f+1     :     0.002919
      f-1     :     0.003580
      f+2     :     0.004245
      f-2     :     0.003084
      f+3     :     0.006724
      f-3     :     0.003460

 10 F s       :     3.920220  s :     3.920220
      pz      :     1.896908  p :     5.245757
      px      :     1.887469
      py      :     1.461380
      dz2     :     0.002164  d :     0.015076
      dxz     :     0.000293
      dyz     :     0.002844
      dx2y2   :     0.005781
      dxy     :     0.003994
      f0      :     0.000049  f :     0.000631
      f+1     :     0.000015
      f-1     :     0.000128
      f+2     :     0.000070
      f-2     :     0.000018
      f+3     :     0.000168
      f-3     :     0.000182

 11 F s       :     3.919978  s :     3.919978
      pz      :     1.476659  p :     5.248032
      px      :     1.902039
      py      :     1.869334
      dz2     :     0.006671  d :     0.014591
      dxz     :     0.003383
      dyz     :     0.003670
      dx2y2   :     0.000431
      dxy     :     0.000436
      f0      :     0.000224  f :     0.000621
      f+1     :     0.000136
      f-1     :     0.000181
      f+2     :     0.000037
      f-2     :     0.000037
      f+3     :     0.000003
      f-3     :     0.000002

 12 F s       :     3.917266  s :     3.917266
      pz      :     1.811611  p :     5.236798
      px      :     1.906206
      py      :     1.518981
      dz2     :     0.002040  d :     0.016209
      dxz     :     0.000779
      dyz     :     0.005291
      dx2y2   :     0.004850
      dxy     :     0.003248
      f0      :     0.000079  f :     0.000695
      f+1     :     0.000003
      f-1     :     0.000121
      f+2     :     0.000187
      f-2     :     0.000063
      f+3     :     0.000107
      f-3     :     0.000135

 13 F s       :     3.919742  s :     3.919742
      pz      :     1.448346  p :     5.238891
      px      :     1.908122
      py      :     1.882424
      dz2     :     0.008391  d :     0.016066
      dxz     :     0.003660
      dyz     :     0.003470
      dx2y2   :     0.000268
      dxy     :     0.000277
      f0      :     0.000343  f :     0.000686
      f+1     :     0.000152
      f-1     :     0.000161
      f+2     :     0.000011
      f-2     :     0.000017
      f+3     :     0.000001
      f-3     :     0.000001

 14 F s       :     3.916962  s :     3.916962
      pz      :     1.706955  p :     5.235150
      px      :     1.905407
      py      :     1.622788
      dz2     :     0.002632  d :     0.016344
      dxz     :     0.001594
      dyz     :     0.006537
      dx2y2   :     0.003077
      dxy     :     0.002503
      f0      :     0.000078  f :     0.000698
      f+1     :     0.000013
      f-1     :     0.000187
      f+2     :     0.000196
      f-2     :     0.000104
      f+3     :     0.000059
      f-3     :     0.000062

 15 F s       :     3.917036  s :     3.917036
      pz      :     1.500972  p :     5.235880
      px      :     1.908560
      py      :     1.826348
      dz2     :     0.006779  d :     0.016332
      dxz     :     0.003242
      dyz     :     0.004903
      dx2y2   :     0.000620
      dxy     :     0.000788
      f0      :     0.000232  f :     0.000698
      f+1     :     0.000106
      f-1     :     0.000242
      f+2     :     0.000051
      f-2     :     0.000059
      f+3     :     0.000005
      f-3     :     0.000004

 16 F s       :     3.917652  s :     3.917652
      pz      :     1.592584  p :     5.234062
      px      :     1.904757
      py      :     1.736722
      dz2     :     0.004465  d :     0.016353
      dxz     :     0.002559
      dyz     :     0.006269
      dx2y2   :     0.001523
      dxy     :     0.001537
      f0      :     0.000117  f :     0.000698
      f+1     :     0.000054
      f-1     :     0.000262
      f+2     :     0.000126
      f-2     :     0.000100
      f+3     :     0.000021
      f-3     :     0.000018

 17 F s       :     3.917464  s :     3.917464
      pz      :     1.603562  p :     5.233677
      px      :     1.905269
      py      :     1.724845
      dz2     :     0.004238  d :     0.016381
      dxz     :     0.002457
      dyz     :     0.006391
      dx2y2   :     0.001661
      dxy     :     0.001634
      f0      :     0.000109  f :     0.000700
      f+1     :     0.000048
      f-1     :     0.000259
      f+2     :     0.000136
      f-2     :     0.000102
      f+3     :     0.000024
      f-3     :     0.000021

 18 F s       :     3.917506  s :     3.917506
      pz      :     1.719490  p :     5.236049
      px      :     1.906943
      py      :     1.609616
      dz2     :     0.002515  d :     0.016361
      dxz     :     0.001472
      dyz     :     0.006501
      dx2y2   :     0.003293
      dxy     :     0.002580
      f0      :     0.000078  f :     0.000699
      f+1     :     0.000010
      f-1     :     0.000179
      f+2     :     0.000202
      f-2     :     0.000098
      f+3     :     0.000063
      f-3     :     0.000069

 19 F s       :     3.917600  s :     3.917600
      pz      :     1.496757  p :     5.235241
      px      :     1.905193
      py      :     1.833291
      dz2     :     0.006975  d :     0.016300
      dxz     :     0.003353
      dyz     :     0.004735
      dx2y2   :     0.000559
      dxy     :     0.000678
      f0      :     0.000244  f :     0.000700
      f+1     :     0.000115
      f-1     :     0.000234
      f+2     :     0.000045
      f-2     :     0.000054
      f+3     :     0.000004
      f-3     :     0.000003

 20 F s       :     3.916536  s :     3.916536
      pz      :     1.822877  p :     5.240140
      px      :     1.904045
      py      :     1.513218
      dz2     :     0.001993  d :     0.016102
      dxz     :     0.000642
      dyz     :     0.005102
      dx2y2   :     0.005016
      dxy     :     0.003348
[...]
      pz      :     0.000004  p :    -0.000003
      px      :    -0.000001
      py      :    -0.000006
      dz2     :    -0.000000  d :    -0.000002
      dxz     :    -0.000001
      dyz     :    -0.000001
      dx2y2   :    -0.000000
      dxy     :    -0.000000
      f0      :    -0.000000  f :    -0.000000
      f+1     :    -0.000000
      f-1     :    -0.000000
      f+2     :    -0.000000
      f-2     :    -0.000000
      f+3     :    -0.000000
      f-3     :    -0.000000

 16 F s       :     0.000023  s :     0.000023
      pz      :     0.000011  p :     0.000114
      px      :     0.000060
      py      :     0.000043
      dz2     :    -0.000000  d :    -0.000000
      dxz     :    -0.000001
      dyz     :     0.000001
      dx2y2   :    -0.000000
      dxy     :     0.000000
      f0      :     0.000000  f :    -0.000000
      f+1     :     0.000000
      f-1     :    -0.000000
      f+2     :     0.000000
      f-2     :    -0.000000
      f+3     :    -0.000000
      f-3     :    -0.000000

 17 F s       :    -0.000002  s :    -0.000002
      pz      :     0.000013  p :    -0.000019
      px      :    -0.000031
      py      :    -0.000001
      dz2     :    -0.000001  d :    -0.000004
      dxz     :    -0.000002
      dyz     :    -0.000001
      dx2y2   :     0.000000
      dxy     :    -0.000001
      f0      :    -0.000000  f :    -0.000000
      f+1     :    -0.000000
      f-1     :    -0.000000
      f+2     :     0.000000
      f-2     :    -0.000000
      f+3     :    -0.000000
      f-3     :    -0.000000

 18 F s       :     0.000007  s :     0.000007
      pz      :     0.000027  p :     0.000624
      px      :     0.000144
      py      :     0.000454
      dz2     :    -0.000003  d :    -0.000003
      dxz     :     0.000006
      dyz     :    -0.000002
      dx2y2   :    -0.000005
      dxy     :     0.000001
      f0      :     0.000000  f :    -0.000000
      f+1     :     0.000000
      f-1     :    -0.000000
      f+2     :    -0.000000
      f-2     :     0.000000
      f+3     :    -0.000000
      f-3     :    -0.000000

 19 F s       :     0.000656  s :     0.000656
      pz      :     0.000068  p :     0.004400
      px      :     0.004037
      py      :     0.000295
      dz2     :     0.000020  d :     0.000078
      dxz     :    -0.000005
      dyz     :    -0.000003
      dx2y2   :     0.000058
      dxy     :     0.000008
      f0      :    -0.000000  f :     0.000000
      f+1     :     0.000000
      f-1     :    -0.000000
      f+2     :    -0.000000
      f-2     :    -0.000000
      f+3     :     0.000000
      f-3     :     0.000000

 20 F s       :     0.000020  s :     0.000020
      pz      :     0.001071  p :     0.001068
      px      :    -0.000938
      py      :     0.000936
      dz2     :    -0.000055  d :    -0.000025
      dxz     :     0.000100
      dyz     :     0.000034
      dx2y2   :    -0.000014
      dxy     :    -0.000091
      f0      :     0.000000  f :    -0.000000
      f+1     :     0.000000
      f-1     :    -0.000003
      f+2     :     0.000001
      f-2     :     0.000003
      f+3     :    -0.000003
      f-3     :     0.000001

 21 F s       :     0.001568  s :     0.001568
      pz      :     0.012438  p :     0.029224
      px      :     0.007706
      py      :     0.009080
      dz2     :     0.000067  d :     0.000941
      dxz     :     0.000371
      dyz     :     0.000425
      dx2y2   :     0.000013
      dxy     :     0.000065
      f0      :    -0.000003  f :     0.000048
      f+1     :     0.000022
      f-1     :     0.000018
      f+2     :     0.000004
      f-2     :     0.000006
      f+3     :     0.000000
      f-3     :    -0.000000

 22 F s       :     0.003239  s :     0.003239
      pz      :     0.078856  p :     0.077785
      px      :    -0.000154
      py      :    -0.000918
      dz2     :     0.004120  d :     0.009023
      dxz     :     0.000363
      dyz     :     0.003627
      dx2y2   :     0.000816
      dxy     :     0.000097
      f0      :    -0.000004  f :     0.000472
      f+1     :     0.000021
      f-1     :     0.000357
      f+2     :     0.000033
      f-2     :     0.000020
      f+3     :     0.000011
      f-3     :     0.000034

 23 F s       :     0.003280  s :     0.003280
      pz      :     0.073827  p :     0.078688
      px      :    -0.003433
      py      :     0.008294
      dz2     :     0.000157  d :     0.009033
      dxz     :     0.005229
      dyz     :     0.002522
      dx2y2   :     0.000331
      dxy     :     0.000794
      f0      :     0.000161  f :     0.000474
      f+1     :    -0.000003
      f-1     :     0.000000
      f+2     :     0.000028
      f-2     :     0.000240
      f+3     :     0.000033
      f-3     :     0.000016

 24 H s       :    -0.000000  s :    -0.000000
      pz      :    -0.000000  p :    -0.000000
      px      :     0.000000
      py      :     0.000000



                      *****************************
                      * MAYER POPULATION ANALYSIS *
                      *****************************

  NA   - Mulliken gross atomic population
  ZA   - Total nuclear charge
  QA   - Mulliken gross atomic charge
  VA   - Mayer's total valence
  BVA  - Mayer's bonded valence
  FA   - Mayer's free valence

  ATOM       NA         ZA         QA         VA         BVA        FA
  0 C      5.7725     6.0000     0.2275     4.3947     4.3947     0.0000
  1 O      8.3471     8.0000    -0.3471     2.1771     2.1771     0.0000
  2 O      8.2848     8.0000    -0.2848     2.2067     2.2067     0.0000
  3 C      5.5873     6.0000     0.4127     4.1133     4.1133     0.0000
  4 C      5.6927     6.0000     0.3073     4.1233     4.1233     0.0000
  5 C      5.6722     6.0000     0.3278     4.1701     4.1701     0.0000
  6 C      5.6630     6.0000     0.3370     4.1618     4.1618     0.0000
  7 C      5.6765     6.0000     0.3235     4.1039     4.1039     0.0000
  8 C      5.6211     6.0000     0.3789     4.1127     4.1108     0.0019
  9 C      5.7288     6.0000     0.2712     4.0054     3.3113     0.6941
 10 F      9.1764     9.0000    -0.1764     1.1363     1.1363     0.0000
 11 F      9.1723     9.0000    -0.1723     1.1435     1.1435     0.0000
 12 F      9.1702     9.0000    -0.1702     1.1512     1.1512     0.0000
 13 F      9.1721     9.0000    -0.1721     1.1476     1.1476     0.0000
 14 F      9.1681     9.0000    -0.1681     1.1516     1.1516     0.0000
 15 F      9.1665     9.0000    -0.1665     1.1534     1.1534     0.0000
 16 F      9.1664     9.0000    -0.1664     1.1539     1.1539     0.0000
 17 F      9.1677     9.0000    -0.1677     1.1521     1.1521     0.0000
 18 F      9.1696     9.0000    -0.1696     1.1514     1.1514     0.0000
 19 F      9.1679     9.0000    -0.1679     1.1518     1.1517     0.0000
 20 F      9.1721     9.0000    -0.1721     1.1393     1.1392     0.0000
 21 F      9.1770     9.0000    -0.1770     1.1333     1.1322     0.0010
 22 F      9.1453     9.0000    -0.1453     1.1667     1.1601     0.0066
 23 F      9.1434     9.0000    -0.1434     1.1733     1.1666     0.0068
 24 H      0.6190     1.0000     0.3810     0.8795     0.8795     0.0000

  Mayer bond orders larger than 0.100000
B(  0-C ,  1-O ) :   1.3086 B(  0-C ,  2-O ) :   2.0841 B(  0-C ,  3-C ) :   0.8999 
B(  1-O , 24-H ) :   0.8216 B(  3-C ,  4-C ) :   0.9436 B(  3-C , 10-F ) :   1.0899 
B(  3-C , 11-F ) :   1.1055 B(  4-C ,  5-C ) :   0.9349 B(  4-C , 12-F ) :   1.0822 
B(  4-C , 13-F ) :   1.0754 B(  5-C ,  6-C ) :   0.9368 B(  5-C , 14-F ) :   1.0824 
B(  5-C , 15-F ) :   1.0839 B(  6-C ,  7-C ) :   0.9341 B(  6-C , 16-F ) :   1.0851 
B(  6-C , 17-F ) :   1.0813 B(  7-C ,  8-C ) :   0.9268 B(  7-C , 18-F ) :   1.0793 
B(  7-C , 19-F ) :   1.0806 B(  8-C ,  9-C ) :   0.9572 B(  8-C , 20-F ) :   1.0800 
B(  8-C , 21-F ) :   1.0707 B(  9-C , 22-F ) :   1.1328 B(  9-C , 23-F ) :   1.1354 


-------
TIMINGS
-------

Total SCF time: 0 days 0 hours 0 min 44 sec 

Total time                  ....      44.042 sec
Sum of individual times     ....      42.808 sec  ( 97.2%)

SCF preparation             ....       1.459 sec  (  3.3%)
Fock matrix formation       ....      36.513 sec  ( 82.9%)
  Startup                   ....       0.149 sec  (  0.4% of F)
  Split-RI-J                ....       2.282 sec  (  6.3% of F)
  Chain of spheres X        ....      26.279 sec  ( 72.0% of F)
  XC integration            ....       5.517 sec  ( 15.1% of F)
    XC Preparation          ....       0.000 sec  (  0.0% of XC)
    Basis function eval.    ....       0.552 sec  ( 10.0% of XC)
    Density eval.           ....       1.218 sec  ( 22.1% of XC)
    XC-Functional eval.     ....       0.044 sec  (  0.8% of XC)
    XC-Potential eval.      ....       1.304 sec  ( 23.6% of XC)
  CPCM terms                ....       1.886 sec  (  5.2% of F)
Diagonalization             ....       0.000 sec  (  0.0%)
Density matrix formation    ....       0.413 sec  (  0.9%)
Total Energy calculation    ....       0.236 sec  (  0.5%)
Population analysis         ....       0.534 sec  (  1.2%)
Orbital Transformation      ....       0.497 sec  (  1.1%)
Orbital Orthonormalization  ....       0.000 sec  (  0.0%)
DIIS solution               ....       0.631 sec  (  1.4%)
SOSCF solution              ....       2.525 sec  (  5.7%)
Finished LeanSCF after  44.6 sec

Maximum memory used throughout the entire LEANSCF-calculation: 109.8 MB


-------------------------------------------------------------------------------
                          DFT DISPERSION CORRECTION                            
                                                                               
                              DFTD3 V3.1  Rev 1                                
                          USING Becke-Johnson damping                          
-------------------------------------------------------------------------------
The B3LYP functional is recognized
Active option DFTDOPT                   ...         4   

molecular C6(AA) [au] = 6520.170633 


            DFT-D V3
 parameters
 s6 scaling factor         :     1.0000 
 a1 scaling factor         :     0.3981 
 s8 scaling factor         :     1.9889 
 a2 scaling factor         :     4.4211 
 ad hoc parameters k1-k3   :    16.0000     1.3333    -4.0000 

 Edisp/kcal,au: -27.255105925815  -0.043433771353 
 E6   /kcal   : -12.964368771 
 E8   /kcal   : -14.290737155 
 % E8         :  52.433247530 

-------------------------   ----------------
Dispersion correction           -0.043433771
-------------------------   ----------------


-------------------------   --------------------
FINAL SINGLE POINT ENERGY     -1853.717241231424
-------------------------   --------------------

                                *** OPTIMIZATION RUN DONE ***



           ************************************************************
           *        Program running with 20 parallel MPI-processes    *
           *              working on a common directory               *
           ************************************************************

------------------------------------------------------------------------------
                              ORCA PROPERTY CALCULATIONS
------------------------------------------------------------------------------

GBWName                                 ... rf_mecn_opt_B3L_C8_P_B.gbw
Number of atoms                         ...     25
Number of basis functions               ...    750
Max core memory                         ...   8000 MB

Electric properties:
Dipole moment                           ... YES
Quadrupole moment                       ...  NO
Static polarizability (Dipole/Dipole)   ...  NO
Static polarizability (Dipole/Quad.)    ...  NO
Static polarizability (Quad./Quad.)     ...  NO
Static polarizability (Velocity)        ...  NO

Atomic electric properties:
Dipole moment                           ...  NO
Quadrupole moment                       ...  NO
Static polarizability                   ...  NO

Choice of electric origin               ... Center of mass
Position of electric origin             ...     0.313545    -0.138345     0.171497

General magnetic properties:
Magnetizability                         ...  NO

EPR properties:
g-Tensor (aka g-matrix)                 ...  NO
Zero-Field splitting spin-orbit         ...  NO
Zero-field splitting spin-spin          ...  NO
Hyperfine couplings                     ...  NO (   0 nuclei)
Quadrupole couplings                    ...  NO (   0 nuclei)
Contact density                         ...  NO (   0 nuclei)

NMR properties:
Chemical shifts                         ...  NO (   0 nuclei)
Spin-rotation constants                 ...  NO (   0 nuclei)
Spin-spin couplings                     ...  NO (   0 nuclei,    0 pairs)

Choice of magnetic origin               ... GIAO
Position of magnetic origin             ...     0.000000     0.000000     0.000000

Properties with geometric perturbations:
SCF Hessian                             ...  NO
IR spectrum                             ...  NO
VCD spectrum                            ...  NO
X-ray spectroscopy properties:
SCF XES/XAS/RIXS spectra                ...  NO


-------------
DIPOLE MOMENT
-------------

Method             : SCF
Type of density    : Electron Density
Multiplicity       :   2
Irrep              :   0
Energy             : -1853.6738074600707478 Eh
Relativity type    : 
Basis              : AO
                                X                 Y                 Z
Electronic contribution:    -13.585513551      -0.321120081       2.030259977
Nuclear contribution   :     14.131488302      -0.159631110      -3.041653928
                        -----------------------------------------
Total Dipole Moment    :      0.545974752      -0.480751192      -1.011393951
                        -----------------------------------------
Magnitude (a.u.)       :      1.245844237
Magnitude (Debye)      :      3.166684389



--------------------
Rotational spectrum 
--------------------
 
Rotational constants in cm-1:             0.022640             0.004059             0.003967 
Rotational constants in MHz :           678.719564           121.699769           118.916411 

Dipole components along the rotational axes: 
x,y,z [a.u.] :    -0.592832     0.299308     1.054084 
x,y,z [Debye]:    -1.506860     0.760781     2.679268 

 

Dipole moment calculation done in   0.1 sec 

Maximum memory used throughout the entire PROP-calculation: 57.3 MB

--------------------------------
SUGGESTED CITATIONS FOR THIS RUN
--------------------------------

Below you find a list of papers that are relevant to this ORCA run
We neither can nor want to force you to cite these papers, but we appreciate if you do
You receive ORCA, which is the product of decades of hard work by many enthusiastic individuals, for free
The only thing we kindly ask in return is that you cite our papers,
We deeply appreciate it, if you show your appreciation for ORCA by not just citing the generic ORCA reference.

Please note that relegating all ORCA citations to the supporting information does *not* help us.
SI sections are not indexed - citations you put there will not count into any citation statistics
But we need these citations in order to attract the funding resources that allow us to do what we are doing

Therefore, if you are a happy ORCA user, please consider citing a few of the papers listed below in the main body of your paper

In addition to the list printed below, the program has created the file rf_mecn_opt_B3L_C8_P_B.bibtex that contains the list in bibtex format
You can import this file easily into all common literature databanks and citation aid programs


List of essential papers. We consider these as the minimum necessary citations

  1. Neese,F.
     Software update: the ORCA program system, version 5.0
     WIRES Comput. Molec. Sci., 2022 12(1)e1606
     doi.org/10.1002/wcms.1606

List of papers to cite with high priority. The work reported in these papers was absolutely
necessary for this run to complete.
Our perspective: the developers of density functionals and basis sets usually get cited in chemistry papers
Good! But without the algorithms to do something with them, the functionals or basis sets would not do anything.
Hence, in our opinion, the algorithm design and method developments papers are equally worthy of getting cited

  1. Neese,F.
     An improvement of the resolution of the identity approximation for the formation of the Coulomb matrix
     J. Comp. Chem., 2003 24(14)1740-1747
     doi.org/10.1002/jcc.10318
  2. Neese,F.; Wennmohs,F.; Hansen,A.; Becker,U.
     Efficient, approximate and parallel Hartree-Fock and hybrid DFT calculations. A 'chain-of-spheres' algorithm for the Hartree-Fock exchange
     Chem. Phys., 2009 356(1-3)98-109
     doi.org/10.1016/j.chemphys.2008.10.036
  3. Garcia-Rates,M.; Neese,F.
     Effect of the Solute Cavity on the Solvation Energy and its Derivatives within the Framework of the Gaussian Charge Scheme
     J. Comput. Chem., 2020 41 922-939
     doi.org/10.1002/jcc.26139
  4. Helmich-Paris,B.; de Souza,B.; Neese,F.; Izsák,R.
     An improved chain of spheres for exchange algorithm
     J. Chem. Phys., 2021 155 104109
     doi.org/doi: 10.1063/5.0058766.
  5. Neese,F.
     The SHARK Integral Generation and Digestion System
     J. Comp. Chem., 2022  1-16
     doi.org/10.1002/jcc.26942
  6. Grimme,S.; Antony,J.; Ehrlich,S.; Krieg,H.
     A consistent and accurate ab initio parametrization of density functional dispersion correction (DFT-D) for the 94 elements H-Pu
     J. Chem. Phys., 2010 132 154104
     doi.org/10.1063/1.3382344
  7. Grimme,S.; Ehrlich,S.; Goerigk,L.
     Effect of the damping function in dispersion corrected density functional theory
     J. Comput. Chem., 2011 32(7)1456-1465
     doi.org/10.1002/jcc.21759

List of suggested additional citations. These are papers that are important in the 'surrounding' of 
of this run, or papers that preceded the highly important papers. If you like your results we are grateful for a citation.

  1. Izsak,R.; Neese,F.
     An overlap fitted chain of spheres exchange method
     J. Chem. Phys., 2011 135 144105
     doi.org/10.1063/1.3646921
  2. Izsak,R.; Hansen,A.; Neese,F.
     The resolution of identity and chain of spheres approximations for the LPNO-CCSD singles Fock term
     Molec. Phys., 2012 110 2413-2417
     doi.org/10.1080/00268976.2012.687466
  3. Neese,F.
     The ORCA program system
     WIRES Comput. Molec. Sci., 2012 2(1)73-78
     doi.org/10.1002/wcms.81
  4. Izsak,R.; Neese,F.; Klopper,W.
     Robust fitting techniques in the chain of spheres approximation to the Fock exchange: The role of the complementary space
     J. Chem. Phys., 2013 139 
     doi.org/10.1063/1.4819264
  5. Neese,F.
     Software update: the ORCA program system, version 4.0
     WIRES Comput. Molec. Sci., 2018 8(1)1-6
     doi.org/10.1002/wcms.1327
  6. Neese,F.; Wennmohs,F.; Becker,U.; Riplinger,C.
     The ORCA quantum chemistry program package
     J. Chem. Phys., 2020 152 Art. No. L224108
     doi.org/10.1063/5.0004608

List of optional additional citations

  1. Neese,F.
     Approximate second-order SCF convergence for spin unrestricted wavefunctions
     Chem. Phys. Lett., 2000 325(1-3)93-98
     doi.org/10.1016/s0009-2614(00)00662-x

Timings for individual modules:

Sum of individual times          ...     3874.256 sec (=  64.571 min)
Startup calculation              ...      187.742 sec (=   3.129 min)   4.8 %
SCF iterations                   ...     2675.291 sec (=  44.588 min)  69.1 %
Property calculations            ...        1.010 sec (=   0.017 min)   0.0 %
SCF Gradient evaluation          ...     1009.322 sec (=  16.822 min)  26.1 %
Geometry relaxation              ...        0.891 sec (=   0.015 min)   0.0 %
                             ****ORCA TERMINATED NORMALLY****
TOTAL RUN TIME: 0 days 1 hours 5 minutes 5 seconds 66 msec
