
                                 *****************
                                 * O   R   C   A *
                                 *****************

                                            #,                                       
                                            ###                                      
                                            ####                                     
                                            #####                                    
                                            ######                                   
                                           ########,                                 
                                     ,,################,,,,,                         
                               ,,#################################,,                 
                          ,,##########################################,,             
                       ,#########################################, ''#####,          
                    ,#############################################,,   '####,        
                  ,##################################################,,,,####,       
                ,###########''''           ''''###############################       
              ,#####''   ,,,,##########,,,,          '''####'''          '####       
            ,##' ,,,,###########################,,,                        '##       
           ' ,,###''''                  '''############,,,                           
         ,,##''                                '''############,,,,        ,,,,,,###''
      ,#''                                            '''#######################'''  
     '                                                          ''''####''''         
             ,#######,   #######,   ,#######,      ##                                
            ,#'     '#,  ##    ##  ,#'     '#,    #''#        ,####,   ,####,        
            ##       ##  ##   ,#'  ##            #'  '#       #'       #'  '#        
            ##       ##  #######   ##           ,######,      #####,   #    #        
            '#,     ,#'  ##    ##  '#,     ,#' ,#      #,     #,   #   #,  ,#        
             '#######'   ##     ##  '#######'  #'      '#     '####' # '####'        



                #########################################################
                #                        -***-                          #
                #          Department of theory and spectroscopy        #
                #                                                       #
                #                      Frank Neese                      #
                #                                                       #
                #     Directorship, Architecture, Infrastructure        #
                #                    SHARK, DRIVERS                     #
                #        Core code/Algorithms in most modules           #
                #                                                       #
                #        Max Planck Institute fuer Kohlenforschung      #
                #                Kaiser Wilhelm Platz 1                 #
                #                 D-45470 Muelheim/Ruhr                 #
                #                      Germany                          #
                #                                                       #
                #                  All rights reserved                  #
                #                        -***-                          #
                #########################################################


                         Program Version 6.0.1  -  RELEASE   -


 With contributions from (in alphabetic order):
[Max-Planck-Institut fuer Kohlenforschung]                               
  Daniel Aravena         : Magnetic Suceptibility                        
  Michael Atanasov       : Ab Initio Ligand Field Theory (pilot matlab implementation)
  Alexander A. Auer      : GIAO ZORA, VPT2 properties, NMR spectrum      
  Ute Becker             : All parallelization in ORCA, NUMFREQ, NUMCALC 
  Giovanni Bistoni       : ED, misc. LED, open-shell LED, HFLD           
  Martin Brehm           : Molecular dynamics                            
  Dmytro Bykov           : pre 5.0 version of the SCF Hessian            
  Marcos Casanova-Páez   : Triplet and SCS-CIS(D). UHF-(DLPNO)-IP/EA/STEOM-CCSD. UHF-CVS-IP/STEOM-CCSD   
  Vijay G. Chilkuri      : MRCI spin determinant printing, contributions to CSF-ICE 
  Pauline Colinet        : FMM embedding                                 
  Dipayan Datta          : RHF DLPNO-CCSD density                        
  Achintya Kumar Dutta   : EOM-CC, STEOM-CC                              
  Nicolas Foglia         : Exact transition moments, OPA infrastructure, MCD improvements    
  Dmitry Ganyushin       : Spin-Orbit,Spin-Spin,Magnetic field MRCI      
  Miquel Garcia-Rates    : C-PCM and meta-GGA Hessian, CCSD/C-PCM, Gaussian charge scheme 
  Tiago L. C. Gouveia    : GS-ROHF, GS-ROCIS                             
  Yang Guo               : DLPNO-NEVPT2, F12-NEVPT2, CIM, IAO-localization        
  Andreas Hansen         : Spin unrestricted coupled pair/coupled cluster methods 
  Ingolf Harden          : AUTO-CI MPn and infrastructure                
  Benjamin Helmich-Paris : MC-RPA, TRAH-(SCF,CASSCF), AVAS, COSX integrals, SCF dyn. polar. 
  Lee Huntington         : MR-EOM, pCC                                   
  Robert Izsak           : Overlap fitted RIJCOSX, COSX-SCS-MP3, EOM     
  Riya Kayal             : Wick's Theorem for AUTO-CI, AUTO-CI UHF-CCSDT 
  Emily Kempfer          : AUTO-CI, RHF CISDT and CCSDT                  
  Christian Kollmar      : KDIIS, OOCD, Brueckner-CCSD(T), CCSD density, CASPT2, CASPT2-K, improved NEVPT2 
  Axel Koslowski         : Symmetry handling                             
  Simone Kossmann        : meta-GGA functionals, TD-DFT gradient, OOMP2, (MP2 Hessian; deprecated post 5.0) 
  Lucas Lang             : DCDCAS                                        
  Marvin Lechner         : AUTO-CI (C++ implementation), FIC-MRCC        
  Spencer Leger          : CASSCF response                               
  Dagmar Lenk            : GEPOL surface, SMD, ORCA-2-JSON               
  Dimitrios Liakos       : Extrapolation schemes; Compound Job, initial MDCI parallelization 
  Dimitrios Manganas     : Further ROCIS development; embedding schemes. LFT, Crystal Embedding 
  Dimitrios Pantazis     : SARC Basis sets                               
  Anastasios Papadopoulos: AUTO-CI, single reference methods and gradients 
  Taras Petrenko         : pre 6.0 DFT Hessian and TD-DFT gradient, (ASA, deprecated), ECA, 1-Electron XAS/XES, NRVS 
  Peter Pinski           : DLPNO-MP2, DLPNO-MP2 Gradient                 
  Christoph Reimann      : Effective Core Potentials                     
  Marius Retegan         : Local ZFS, SOC                                
  Christoph Riplinger    : Optimizer, TS searches, QM/MM, DLPNO-CCSD(T), (RO)-DLPNO pert. Triples 
  Michael Roemelt        : Original ROCIS implementation                 
  Masaaki Saitow         : Open-shell DLPNO-CCSD energy and density      
  Barbara Sandhoefer     : DKH picture change effects                    
  Kantharuban Sivalingam : CASSCF convergence/infrastructure, NEVPT2 and variants, FIC-MRCI 
  Bernardo de Souza      : ESD, SOC TD-DFT                               
  Georgi L. Stoychev     : AutoAux, RI-MP2 NMR, DLPNO-MP2 response, X2C  
  Van Anh Tran           : RI-MP2 g-tensors                              
  Willem Van den Heuvel  : Paramagnetic NMR                              
  Zikuan Wang            : NOTCH, Electric field optimization            
  Frank Wennmohs         : Technical directorship and infrastructure     
  Hang Xu                : AUTO-CI-Response properties                   
                                                                         
[FACCTs GmbH]                                                            
  Markus Bursch, Miquel Garcia-Rates, Christoph Riplinger, Bernardo de Souza, Georgi L. Stoychev 
                                                                 
  APM, Basis sets (HGBS, AHGBS, def-TZVP (Ac-Lr), def2-XVPD (La-Lu)), CI-OPT, improved COSX, DLPNO-Multilevel,           
  DOCKER, DRACO, updates on ESD, GOAT, IRC, LR-CPCM, MBIS, meta-GGA TD-DFT gradient, ML-optimized integration grids, 
  MM, NACMEs, nearIR, NEB, NEB-TS, NL-DFT gradient (VV10), 2- and 3-layer-ONIOM, interface openCOSMO-RS, QMMM,   
  Crystal-QMMM, SF, symmetry and pop. for TD-DFT, r2SCAN hybrids, SOLVATOR                                   
                                                                         
[Other institutions]                                                     
  V. Asgeirsson          : NEB                                           
  Christoph Bannwarth    : sTDA-DFT, sTD-DFT, PBEh-3c, B97-3c, D3        
  Sebastian Ehlert       : rSCAN, r2SCAN, r2SCAN-3c, D4, dhf basis sets  
  Marvin Friede          : D4 for Fr, Ra, Ac-Lr                          
  Lars Goerigk           : TD-DFT with DH, B97 family of functionals     
  Stefan Grimme          : VdW corrections, initial TS optimization, DFT functionals, gCP, sTDA/sTD-DF 
  Waldemar Hujo          : DFT-NL                                        
  H. Jonsson             : NEB                                           
  Holger Kruse           : gCP                                           
  Marcel Mueller         : wB97X-3c, vDZP basis set                      
  Hagen Neugebauer       : wr2SCAN                                       
  Tobias Risthaus        : range-separated hybrid DFT                    
  Lukas Wittmann         : regularized MP2, r2SCAN double-hybrids, wr2SCAN        
                                                                         
We gratefully acknowledge several colleagues who have allowed us to      
interface, adapt or use parts of their codes:                            
  Ed Valeev, F. Pavosevic, A. Kumar             : LibInt (2-el integral package), F12 methods 
  Garnet Chan, S. Sharma, J. Yang, R. Olivares  : DMRG                   
  Ulf Ekstrom                                   : XCFun DFT Library      
  Mihaly Kallay                                 : mrcc  (arbitrary order and MRCC methods)
  Frank Weinhold                                : gennbo (NPA and NBO analysis)           
  Simon Mueller                                 : openCOSMO-RS                            
  Christopher J. Cramer and Donald G. Truhlar   : smd solvation model                     
  S Lehtola, MJT Oliveira, MAL Marques          : LibXC Library                           
  Liviu Ungur et al                             : ANISO software                          


 Your calculation uses the libint2 library for the computation of 2-el integrals
 For citations please refer to: http://libint.valeyev.net

 Your ORCA version has been built with support for libXC version: 6.2.2
 For citations please refer to: https://libxc.gitlab.io

 This ORCA versions uses:
   CBLAS   interface :  Fast vector & matrix operations
   LAPACKE interface :  Fast linear algebra routines
   SCALAPACK package :  Parallel linear algebra routines
   Shared memory     :  Shared parallel matrices
   BLAS/LAPACK       :  OpenBLAS 0.3.27  USE64BITINT DYNAMIC_ARCH NO_AFFINITY SkylakeX SINGLE_THREADED
        Core in use  :  SkylakeX
   Copyright (c) 2011-2014, The OpenBLAS Project


NOTE: MaxCore=8000 MB was set to SCF,MP2,MDCI,CIPSI,MRCI and CIS
      => If you want to overwrite this, your respective input block should be placed after the MaxCore statement
Your calculation utilizes the atom-pairwise dispersion correction
with the Becke-Johnson damping scheme (D3BJ)


Your calculation utilizes the SMD solvation module
Please cite in your paper:
A.V. Marenich, C.J. Cramer, D.G. Truhlar J. Phys. Chem. B, 113, (2009), 6378 

Warning: RI is on but no J-basis has been assigned. Assigning Def2/J (nothing to worry about!)
================================================================================

----- Orbital basis set information -----
Your calculation utilizes the basis: def2-TZVP
   F. Weigend and R. Ahlrichs, Phys. Chem. Chem. Phys. 7, 3297 (2005).

----- AuxJ basis set information -----
Your calculation utilizes the auxiliary basis: def2/J
   F. Weigend, Phys. Chem. Chem. Phys. 8, 1057 (2006).

================================================================================
                                        WARNINGS
                       Please study these warnings very carefully!
================================================================================



WARNING: SCAN, rSCAN, or r2SCAN functional requested.
  ===> : libXC variant has now been activated.



WARNING: your system is open-shell and RHF/RKS was chosen
  ===> : WILL SWITCH to UHF/UKS


WARNING: Geometry Optimization
  ===> : Switching off AutoStart
         For restart on a previous wavefunction, please use MOREAD

================================================================================
                                       INPUT FILE
================================================================================
NAME = rf_mecn_opt_r2s_P_A-2.inp
|  1> !r2scanh def2-TZVP opt d3 TightSCF SlowConv defgrid2
|  2>  
|  3> %pal
|  4> nprocs 20
|  5> end
|  6>  
|  7> %scf
|  8> MaxIter 1500
|  9> end
| 10>  
| 11> %maxcore 8000
| 12>  
| 13> !CPCM
| 14> %cpcm smd true
| 15> SMDsolvent "ACETONITRILE"
| 16> end
| 17>  
| 18> * xyz -1 2
| 19> 6        4.870906397      0.061888661     -0.237292510
| 20> 8        5.271940174     -0.267476354     -1.399541711
| 21> 8        5.203187478      1.337876105      0.278273556
| 22> 1        5.668158999      1.786076840     -0.446718784
| 23> 6        3.577190606     -0.417061850      0.325730837
| 24> 6        2.245024540      0.218842756     -0.204004451
| 25> 6        0.891320286     -0.467997151      0.173792354
| 26> 6       -0.382269188      0.419918005     -0.023365189
| 27> 6       -1.728626502     -0.380951428     -0.034067234
| 28> 6       -2.989669377      0.508649937      0.220799218
| 29> 6       -4.341700350     -0.148256685     -0.200457220
| 30> 9        3.454956342     -1.770907039      0.081229207
| 31> 9        3.545488518     -0.229037896      1.697273539
| 32> 9        2.190934323      1.506680122      0.238734203
| 33> 9        2.305906375      0.246046282     -1.564120563
| 34> 9        0.746279290     -1.583774915     -0.584187158
| 35> 9        0.928008200     -0.837544543      1.477151553
| 36> 9       -0.436766777      1.327546928      0.978944699
| 37> 9       -0.285373169      1.079994905     -1.200191876
| 38> 9       -1.690728565     -1.332385248      0.925305417
| 39> 9       -1.863434049     -0.985412705     -1.235071462
| 40> 9       -2.875331257      1.665488073     -0.468927793
| 41> 9       -3.065592445      0.790736220      1.537304067
| 42> 9       -4.452300700     -1.378234719      0.311637220
| 43> 9       -5.347318642      0.600905856      0.263788886
| 44> 9       -4.445219507     -0.217868155     -1.529143803
| 45> *
| 46> 
| 47>                          ****END OF INPUT****
================================================================================

                       *****************************
                       * Geometry Optimization Run *
                       *****************************

Geometry optimization settings:
Update method            Update   .... BFGS
Choice of coordinates    CoordSys .... (2022) Redundant Internals
Initial Hessian          InHess   .... Almloef's Model
Max. no of cycles        MaxIter  .... 78

Convergence Tolerances:
Energy Change            TolE     ....  5.0000e-06 Eh
Max. Gradient            TolMAXG  ....  3.0000e-04 Eh/bohr
RMS Gradient             TolRMSG  ....  1.0000e-04 Eh/bohr
Max. Displacement        TolMAXD  ....  4.0000e-03 bohr
RMS Displacement         TolRMSD  ....  2.0000e-03 bohr
Strict Convergence                .... False

------------------------------------------------------------------------------
                        ORCA OPTIMIZATION COORDINATE SETUP
------------------------------------------------------------------------------

The optimization will be done in redundant internal coordinates (2022)
Making redundant internal coordinates   ...  (2022 redundants) done
Evaluating the initial hessian          ...  (Almloef) done
Evaluating the coordinates              ...  done
Calculating the B-matrix                .... done
Calculating the G-matrix                .... done
Diagonalizing the G-matrix              .... done
Small eigenvalue found = 4.715e-03
Small eigenvalue found = 1.362e-02
Small eigenvalue found = 2.480e-02
The first mode is                       ....   42
The number of degrees of freedom        ....   72

    -----------------------------------------------------------------
                    Redundant Internal Coordinates


    -----------------------------------------------------------------
         Definition                    Initial Value    Approx d2E/dq
    -----------------------------------------------------------------
      1. B(O   1,C   0)                  1.2728         0.860577   
      2. B(O   2,C   0)                  1.4158         0.509078   
      3. B(H   3,O   2)                  0.9709         0.499500   
      4. B(C   4,C   0)                  1.4900         0.432714   
      5. B(C   5,C   4)                  1.5683         0.324507   
      6. B(C   6,C   5)                  1.5643         0.329363   
      7. B(C   7,C   6)                  1.5650         0.328475   
      8. B(C   8,C   7)                  1.5666         0.326596   
      9. B(C   9,C   8)                  1.5642         0.329524   
     10. B(C  10,C   9)                  1.5611         0.333266   
     11. B(F  11,C   4)                  1.3812         0.537107   
     12. B(F  12,C   4)                  1.3847         0.530113   
     13. B(F  13,C   5)                  1.3629         0.574407   
     14. B(F  14,C   5)                  1.3617         0.576817   
     15. B(F  15,C   6)                  1.3567         0.587701   
     16. B(F  16,C   6)                  1.3552         0.590793   
     17. B(F  17,C   7)                  1.3533         0.595032   
     18. B(F  18,C   7)                  1.3528         0.596143   
     19. B(F  19,C   8)                  1.3517         0.598539   
     20. B(F  20,C   8)                  1.3513         0.599435   
     21. B(F  21,C   9)                  1.3517         0.598529   
     22. B(F  22,C   9)                  1.3485         0.605531   
     23. B(F  23,C  10)                  1.3369         0.631937   
     24. B(F  24,C  10)                  1.3372         0.631314   
     25. B(F  25,C  10)                  1.3345         0.637479   
     26. A(O   2,C   0,C   4)          110.8479         0.390707   
     27. A(O   1,C   0,O   2)          119.4584         0.438606   
     28. A(O   1,C   0,C   4)          122.3726         0.428775   
     29. A(C   0,O   2,H   3)          104.8640         0.355418   
     30. A(C   5,C   4,F  11)          105.2171         0.373535   
     31. A(C   0,C   4,F  12)          110.5179         0.391785   
     32. A(F  11,C   4,F  12)          107.8431         0.402587   
     33. A(C   5,C   4,F  12)          105.0731         0.372692   
     34. A(C   0,C   4,C   5)          118.6562         0.363733   
     35. A(C   0,C   4,F  11)          108.9677         0.392684   
     36. A(C   4,C   5,C   6)          118.3895         0.347276   
     37. A(C   6,C   5,F  14)          106.7793         0.379139   
     38. A(F  13,C   5,F  14)          107.9002         0.413531   
     39. A(C   4,C   5,F  14)          107.9080         0.378165   
     40. A(C   6,C   5,F  13)          107.5834         0.378864   
     41. A(C   4,C   5,F  13)          107.8860         0.377891   
     42. A(C   5,C   6,C   7)          115.1316         0.347988   
     43. A(F  15,C   6,F  16)          108.4183         0.416989   
     44. A(C   7,C   6,F  16)          107.3310         0.380537   
     45. A(C   5,C   6,F  16)          109.1820         0.380716   
     46. A(C   7,C   6,F  15)          108.0126         0.380191   
     47. A(C   5,C   6,F  15)          108.5841         0.380369   
     48. A(F  17,C   7,F  18)          108.6595         0.418582   
     49. A(C   8,C   7,F  18)          107.7618         0.380754   
     50. A(C   6,C   7,F  18)          109.1557         0.381133   
     51. A(C   8,C   7,F  17)          108.2593         0.380631   
     52. A(C   6,C   7,F  17)          108.6617         0.381010   
     53. A(C   6,C   7,C   8)          114.2176         0.347494   
     54. A(C   7,C   8,F  19)          109.3232         0.381019   
     55. A(C   7,C   8,C   9)          113.6415         0.347680   
     56. A(F  19,C   8,F  20)          108.5879         0.419432   
     57. A(C   9,C   8,F  20)          108.5906         0.381709   
     58. A(C   7,C   8,F  20)          108.6927         0.381118   
     59. A(C   9,C   8,F  19)          107.8957         0.381609   
     60. A(F  21,C   9,F  22)          108.8983         0.420189   
     61. A(C   8,C   9,C  10)          114.5164         0.348867   
     62. A(C  10,C   9,F  22)          107.6201         0.383130   
     63. A(C   8,C   9,F  22)          108.8707         0.382380   
     64. A(C  10,C   9,F  21)          107.1999         0.382357   
     65. A(C   8,C   9,F  21)          109.5977         0.381608   
     66. A(F  24,C  10,F  25)          108.4545         0.428134   
     67. A(F  23,C  10,F  25)          109.0844         0.428210   
     68. A(C   9,C  10,F  25)          110.9651         0.386573   
     69. A(F  23,C  10,F  24)          108.6777         0.427465   
     70. A(C   9,C  10,F  24)          108.7774         0.385919   
     71. A(C   9,C  10,F  23)          110.8199         0.385986   
     72. D(H   3,O   2,C   0,O   1)      4.1084         0.018637   
     73. D(H   3,O   2,C   0,C   4)   -146.7124         0.018637   
     74. D(C   5,C   4,C   0,O   2)     74.8919         0.013825   
     75. D(F  11,C   4,C   0,O   2)   -164.8353         0.013825   
     76. D(C   5,C   4,C   0,O   1)    -74.9342         0.013825   
     77. D(F  11,C   4,C   0,O   1)     45.3386         0.013825   
     78. D(F  12,C   4,C   0,O   1)    163.6703         0.013825   
     79. D(F  13,C   5,C   4,F  12)     54.7129         0.008606   
     80. D(F  13,C   5,C   4,F  11)    168.4235         0.008606   
     81. D(F  13,C   5,C   4,C   0)    -69.4008         0.008606   
     82. D(C   6,C   5,C   4,F  12)    -67.6479         0.008606   
     83. D(C   6,C   5,C   4,F  11)     46.0626         0.008606   
     84. D(C   6,C   5,C   4,C   0)    168.2384         0.008606   
     85. D(C   7,C   6,C   5,F  13)     40.5489         0.008837   
     86. D(C   7,C   6,C   5,C   4)    163.0620         0.008837   
     87. D(F  15,C   6,C   5,F  14)     46.1377         0.008837   
     88. D(F  15,C   6,C   5,F  13)    161.7523         0.008837   
     89. D(F  15,C   6,C   5,C   4)    -75.7347         0.008837   
     90. D(C   7,C   6,C   5,F  14)    -75.0657         0.008837   
     91. D(F  17,C   7,C   6,F  16)     46.4048         0.008795   
     92. D(F  17,C   7,C   6,F  15)    163.1169         0.008795   
     93. D(F  17,C   7,C   6,C   5)    -75.3696         0.008795   
     94. D(C   8,C   7,C   6,F  16)    -74.5610         0.008795   
     95. D(C   8,C   7,C   6,F  15)     42.1511         0.008795   
     96. D(C   8,C   7,C   6,C   5)    163.6646         0.008795   
     97. D(F  19,C   8,C   7,F  17)    -79.9657         0.008705   
     98. D(F  19,C   8,C   7,C   6)     41.2230         0.008705   
     99. D(C   9,C   8,C   7,F  18)    -76.7233         0.008705   
    100. D(C   9,C   8,C   7,F  17)     40.6288         0.008705   
    101. D(F  19,C   8,C   7,F  18)    162.6822         0.008705   
    102. D(C   9,C   8,C   7,C   6)    161.8175         0.008705   
    103. D(F  21,C   9,C   8,F  20)    -79.0785         0.008845   
    104. D(F  21,C   9,C   8,F  19)    163.4041         0.008845   
    105. D(F  21,C   9,C   8,C   7)     42.0095         0.008845   
    106. D(C  10,C   9,C   8,F  20)     41.4105         0.008845   
    107. D(C  10,C   9,C   8,F  19)    -76.1068         0.008845   
    108. D(C  10,C   9,C   8,C   7)    162.4985         0.008845   
    109. D(F  24,C  10,C   9,F  21)    -68.3344         0.009027   
    110. D(F  24,C  10,C   9,C   8)    169.8568         0.009027   
    111. D(F  23,C  10,C   9,F  22)    -70.7471         0.009027   
    112. D(F  23,C  10,C   9,F  21)    172.2486         0.009027   
    113. D(F  24,C  10,C   9,F  22)     48.6698         0.009027   
    114. D(F  23,C  10,C   9,C   8)     50.4398         0.009027   
    -----------------------------------------------------------------

Number of atoms                         .... 26
Number of degrees of freedom            .... 114


         *************************************************************
         *                GEOMETRY OPTIMIZATION CYCLE   1            *
         *************************************************************
---------------------------------
CARTESIAN COORDINATES (ANGSTROEM)
---------------------------------
  C      4.870906    0.061889   -0.237293
  O      5.271940   -0.267476   -1.399542
  O      5.203187    1.337876    0.278274
  H      5.668159    1.786077   -0.446719
  C      3.577191   -0.417062    0.325731
  C      2.245025    0.218843   -0.204004
  C      0.891320   -0.467997    0.173792
  C     -0.382269    0.419918   -0.023365
  C     -1.728627   -0.380951   -0.034067
  C     -2.989669    0.508650    0.220799
  C     -4.341700   -0.148257   -0.200457
  F      3.454956   -1.770907    0.081229
  F      3.545489   -0.229038    1.697274
  F      2.190934    1.506680    0.238734
  F      2.305906    0.246046   -1.564121
  F      0.746279   -1.583775   -0.584187
  F      0.928008   -0.837545    1.477152
  F     -0.436767    1.327547    0.978945
  F     -0.285373    1.079995   -1.200192
  F     -1.690729   -1.332385    0.925305
  F     -1.863434   -0.985413   -1.235071
  F     -2.875331    1.665488   -0.468928
  F     -3.065592    0.790736    1.537304
  F     -4.452301   -1.378235    0.311637
  F     -5.347319    0.600906    0.263789
  F     -4.445220   -0.217868   -1.529144

----------------------------
CARTESIAN COORDINATES (A.U.)
----------------------------
  NO LB      ZA    FRAG     MASS         X           Y           Z
   0 C     6.0000    0    12.011    9.204679    0.116953   -0.448418
   1 O     8.0000    0    15.999    9.962523   -0.505457   -2.644751
   2 O     8.0000    0    15.999    9.832599    2.528219    0.525861
   3 H     1.0000    0     1.008   10.711268    3.375196   -0.844176
   4 C     6.0000    0    12.011    6.759911   -0.788133    0.615542
   5 C     6.0000    0    12.011    4.242482    0.413553   -0.385513
   6 C     6.0000    0    12.011    1.684351   -0.884386    0.328420
   7 C     6.0000    0    12.011   -0.722384    0.793530   -0.044154
   8 C     6.0000    0    12.011   -3.266631   -0.719894   -0.064378
   9 C     6.0000    0    12.011   -5.649656    0.961209    0.417250
  10 C     6.0000    0    12.011   -8.204625   -0.280165   -0.378809
  11 F     9.0000    0    18.998    6.528921   -3.346529    0.153501
  12 F     9.0000    0    18.998    6.700002   -0.432819    3.207382
  13 F     9.0000    0    18.998    4.140266    2.847213    0.451142
  14 F     9.0000    0    18.998    4.357532    0.464960   -2.955760
  15 F     9.0000    0    18.998    1.410263   -2.992901   -1.103954
  16 F     9.0000    0    18.998    1.753681   -1.582730    2.791412
  17 F     9.0000    0    18.998   -0.825370    2.508700    1.849937
  18 F     9.0000    0    18.998   -0.539277    2.040895   -2.268034
  19 F     9.0000    0    18.998   -3.195014   -2.517843    1.748574
  20 F     9.0000    0    18.998   -3.521380   -1.862160   -2.333947
  21 F     9.0000    0    18.998   -5.433589    3.147316   -0.886145
  22 F     9.0000    0    18.998   -5.793130    1.494275    2.905084
  23 F     9.0000    0    18.998   -8.413629   -2.604486    0.588909
  24 F     9.0000    0    18.998  -10.104968    1.135548    0.498489
  25 F     9.0000    0    18.998   -8.400247   -0.411711   -2.889663

--------------------------------
INTERNAL COORDINATES (ANGSTROEM)
--------------------------------
 C      0   0   0     0.000000000000     0.00000000     0.00000000
 O      1   0   0     1.272844298658     0.00000000     0.00000000
 O      1   2   0     1.415755290453   119.45839702     0.00000000
 H      3   1   2     0.970925490063   104.86400436     4.10837617
 C      1   2   3     1.489996452726   122.37260179   147.35283953
 C      5   1   2     1.568330504290   118.65624957   285.06581125
 C      6   5   1     1.564287278927   118.38948113   168.23841826
 C      7   6   5     1.565022226456   115.13156022   163.06195834
 C      8   7   6     1.566583671382   114.21763865   163.66456105
 C      9   8   7     1.564153646402   113.64149341   161.81749991
 C     10   9   8     1.561080090365   114.51636816   162.49853055
 F      5   1   2     1.381165832964   108.96772863    45.33858690
 F      5   1   2     1.384733697528   110.51794064   163.67030744
 F      6   5   1     1.362889705217   107.88596219   290.59923255
 F      6   5   1     1.361749781635   107.90795562    46.93939246
 F      7   6   5     1.356661287783   108.58413614   284.26534576
 F      7   6   5     1.355232998265   109.18201704    42.29299117
 F      8   7   6     1.353286873008   108.66167954   284.63041459
 F      8   7   6     1.352779140750   109.15568906    42.97753383
 F      9   8   7     1.351687260780   109.32317519    41.22300646
 F      9   8   7     1.351280010137   108.69266879   282.84835274
 F     10   9   8     1.351691913230   109.59774096    42.00947727
 F     10   9   8     1.348525862100   108.87071593   282.99501307
 F     11  10   9     1.336906547602   110.81991369    50.43981205
 F     11  10   9     1.337175047994   108.77741850   169.85676687
 F     11  10   9     1.334529882942   110.96513327   289.08716228

---------------------------
INTERNAL COORDINATES (A.U.)
---------------------------
 C      0   0   0     0.000000000000     0.00000000     0.00000000
 O      1   0   0     2.405327135587     0.00000000     0.00000000
 O      1   2   0     2.675389771607   119.45839702     0.00000000
 H      3   1   2     1.834783272663   104.86400436     4.10837617
 C      1   2   3     2.815685236167   122.37260179   147.35283953
 C      5   1   2     2.963715140583   118.65624957   285.06581125
 C      6   5   1     2.956074551949   118.38948113   168.23841826
 C      7   6   5     2.957463401501   115.13156022   163.06195834
 C      8   7   6     2.960414104786   114.21763865   163.66456105
 C      9   8   7     2.955822023074   113.64149341   161.81749991
 C     10   9   8     2.950013843908   114.51636816   162.49853055
 F      5   1   2     2.610025169831   108.96772863    45.33858690
 F      5   1   2     2.616767456741   110.51794064   163.67030744
 F      6   5   1     2.575488293601   107.88596219   290.59923255
 F      6   5   1     2.573334150216   107.90795562    46.93939246
 F      7   6   5     2.563718290403   108.58413614   284.26534576
 F      7   6   5     2.561019214373   109.18201704    42.29299117
 F      8   7   6     2.557341570616   108.66167954   284.63041459
 F      8   7   6     2.556382095698   109.15568906    42.97753383
 F      9   8   7     2.554318741585   109.32317519    41.22300646
 F      9   8   7     2.553549149400   108.69266879   282.84835274
 F     10   9   8     2.554327533441   109.59774096    42.00947727
 F     10   9   8     2.548344563879   108.87071593   282.99501307
 F     11  10   9     2.526387241614   110.81991369    50.43981205
 F     11  10   9     2.526894633822   108.77741850   169.85676687
 F     11  10   9     2.521895996295   110.96513327   289.08716228

---------------------
BASIS SET INFORMATION
---------------------
There are 4 groups of distinct atoms

 Group   1 Type C   : 11s6p2d1f contracted to 5s3p2d1f pattern {62111/411/11/1}
 Group   2 Type O   : 11s6p2d1f contracted to 5s3p2d1f pattern {62111/411/11/1}
 Group   3 Type H   : 5s1p contracted to 3s1p pattern {311/1}
 Group   4 Type F   : 11s6p2d1f contracted to 5s3p2d1f pattern {62111/411/11/1}

Atom   0C    basis set group =>   1
Atom   1O    basis set group =>   2
Atom   2O    basis set group =>   2
Atom   3H    basis set group =>   3
Atom   4C    basis set group =>   1
Atom   5C    basis set group =>   1
Atom   6C    basis set group =>   1
Atom   7C    basis set group =>   1
Atom   8C    basis set group =>   1
Atom   9C    basis set group =>   1
Atom  10C    basis set group =>   1
Atom  11F    basis set group =>   4
Atom  12F    basis set group =>   4
Atom  13F    basis set group =>   4
Atom  14F    basis set group =>   4
Atom  15F    basis set group =>   4
Atom  16F    basis set group =>   4
Atom  17F    basis set group =>   4
Atom  18F    basis set group =>   4
Atom  19F    basis set group =>   4
Atom  20F    basis set group =>   4
Atom  21F    basis set group =>   4
Atom  22F    basis set group =>   4
Atom  23F    basis set group =>   4
Atom  24F    basis set group =>   4
Atom  25F    basis set group =>   4
---------------------------------
AUXILIARY/J BASIS SET INFORMATION
---------------------------------
There are 4 groups of distinct atoms

 Group   1 Type C   : 12s5p4d2f1g contracted to 6s4p3d1f1g pattern {711111/2111/211/2/1}
 Group   2 Type O   : 12s5p4d2f1g contracted to 6s4p3d1f1g pattern {711111/2111/211/2/1}
 Group   3 Type H   : 5s2p1d contracted to 3s1p1d pattern {311/2/1}
 Group   4 Type F   : 12s5p4d2f1g contracted to 6s4p3d1f1g pattern {711111/2111/211/2/1}

Atom   0C    basis set group =>   1
Atom   1O    basis set group =>   2
Atom   2O    basis set group =>   2
Atom   3H    basis set group =>   3
Atom   4C    basis set group =>   1
Atom   5C    basis set group =>   1
Atom   6C    basis set group =>   1
Atom   7C    basis set group =>   1
Atom   8C    basis set group =>   1
Atom   9C    basis set group =>   1
Atom  10C    basis set group =>   1
Atom  11F    basis set group =>   4
Atom  12F    basis set group =>   4
Atom  13F    basis set group =>   4
Atom  14F    basis set group =>   4
Atom  15F    basis set group =>   4
Atom  16F    basis set group =>   4
Atom  17F    basis set group =>   4
Atom  18F    basis set group =>   4
Atom  19F    basis set group =>   4
Atom  20F    basis set group =>   4
Atom  21F    basis set group =>   4
Atom  22F    basis set group =>   4
Atom  23F    basis set group =>   4
Atom  24F    basis set group =>   4
Atom  25F    basis set group =>   4


           ************************************************************
           *        Program running with 20 parallel MPI-processes    *
           *              working on a common directory               *
           ************************************************************
------------------------------------------------------------------------------
                             ORCA STARTUP CALCULATIONS
                           -- RI-GTO INTEGRALS CHOSEN --
------------------------------------------------------------------------------
------------------------------------------------------------------------------
                   ___                                                        
                  /   \      - P O W E R E D   B Y -                         
                 /     \                                                     
                 |  |  |   _    _      __       _____    __    __             
                 |  |  |  | |  | |    /  \     |  _  \  |  |  /  |          
                  \  \/   | |  | |   /    \    | | | |  |  | /  /          
                 / \  \   | |__| |  /  /\  \   | |_| |  |  |/  /          
                |  |  |   |  __  | /  /__\  \  |    /   |      \           
                |  |  |   | |  | | |   __   |  |    \   |  |\   \          
                \     /   | |  | | |  |  |  |  | |\  \  |  | \   \       
                 \___/    |_|  |_| |__|  |__|  |_| \__\ |__|  \__/        
                                                                              
                      - O R C A' S   B I G   F R I E N D -                    
                                      &                                       
                       - I N T E G R A L  F E E D E R -                       
                                                                              
 v1 FN, 2020, v2 2021, v3 2022-2024                                           
------------------------------------------------------------------------------


----------------------
SHARK INTEGRAL PACKAGE
----------------------

Number of atoms                             ...     26
Number of basis functions                   ...    781
Number of shells                            ...    279
Maximum angular momentum                    ...      3
Integral batch strategy                     ... SHARK/LIBINT Hybrid
RI-J (if used) integral strategy            ... SPLIT-RIJ (Revised 2003 algorithm where possible)
Printlevel                                  ...      1
Contraction scheme used                     ... SEGMENTED contraction
Prescreening option                         ... SCHWARTZ
   Thresh                                   ... 2.500e-11
   Tcut                                     ... 2.500e-12
   Tpresel                                  ... 2.500e-12 
Coulomb Range Separation                    ... NOT USED
Exchange Range Separation                   ... NOT USED
Multipole approximations                    ... NOT USED
Finite Nucleus Model                        ... NOT USED
CABS basis                                  ... NOT available
Auxiliary Coulomb fitting basis             ... AVAILABLE
   # of basis functions in Aux-J            ...   1236
   # of shells in Aux-J                     ...    380
   Maximum angular momentum in Aux-J        ...      4
Auxiliary J/K fitting basis                 ... NOT available
Auxiliary Correlation fitting basis         ... NOT available
Auxiliary 'external' fitting basis          ... NOT available

Checking pre-screening integrals            ... done (  0.0 sec) Dimension = 279
Check shell pair data                       ... done (  0.0 sec)
Shell pair information
Shell pair cut-off parameter TPreSel        ...   2.5e-12
Total number of shell pairs                 ...     39060
Shell pairs after pre-screening             ...     23859
Total number of primitive shell pairs       ...    128824
Primitive shell pairs kept                  ...     50525
          la=0 lb=0:   4547 shell pairs
          la=1 lb=0:   6527 shell pairs
          la=1 lb=1:   2260 shell pairs
          la=2 lb=0:   3542 shell pairs
          la=2 lb=1:   2591 shell pairs
          la=2 lb=2:    724 shell pairs
          la=3 lb=0:   1597 shell pairs
          la=3 lb=1:   1244 shell pairs
          la=3 lb=2:    670 shell pairs
          la=3 lb=3:    157 shell pairs

Calculating one electron integrals          ... done (  0.0 sec)
Calculating RI/J V-Matrix + Cholesky decomp.... done (  0.1 sec)
Calculating Nuclear repulsion               ... done (  0.0 sec) ENN=   2887.874269974818 Eh

Diagonalization of the overlap matrix:
Smallest eigenvalue                        ... 5.999e-05
Time for diagonalization                   ...    0.128 sec
Threshold for overlap eigenvalues          ... 1.000e-07
Number of eigenvalues below threshold      ... 0
Time for construction of square roots      ...    0.056 sec
Total time needed                          ...    0.191 sec

-------------------
DFT GRID GENERATION
-------------------

General Integration Accuracy     IntAcc      ... 4.388
Radial Grid Type                 RadialGrid  ... OptM3 with GC (2021)
Angular Grid (max. ang.)         AngularGrid ... 4 (Lebedev-302)
Angular grid pruning method      GridPruning ... 4 (adaptive)
Weight generation scheme         WeightScheme... mBecke (2022)
Basis function cutoff            BFCut       ... 1.0000e-11
Integration weight cutoff        WCut        ... 1.0000e-14
Partially contracted basis set               ... off
Rotationally invariant grid construction     ... off
Angular grids for H and He will be reduced by one unit

Total number of grid points                  ...   154714
Total number of batches                      ...     2428
Average number of points per batch           ...       63
Average number of grid points per atom       ...     5951

--------------------
COSX GRID GENERATION
--------------------

GRIDX 1
-------
General Integration Accuracy     IntAcc      ... 3.816
Radial Grid Type                 RadialGrid  ... OptM3 with GC (2021)
Angular Grid (max. ang.)         AngularGrid ... 1 (Lebedev-50)
Angular grid pruning method      GridPruning ... 4 (adaptive)
Weight generation scheme         WeightScheme... mBecke (2022)
Basis function cutoff            BFCut       ... 1.0000e-11
Integration weight cutoff        WCut        ... 1.0000e-14
Partially contracted basis set               ... on
Rotationally invariant grid construction     ... off
Angular grids for H and He will be reduced by one unit

Total number of grid points                  ...    19426
Total number of batches                      ...      163
Average number of points per batch           ...      119
Average number of grid points per atom       ...      747
UseSFitting                                  ... on

GRIDX 2
-------
General Integration Accuracy     IntAcc      ... 4.020
Radial Grid Type                 RadialGrid  ... OptM3 with GC (2021)
Angular Grid (max. ang.)         AngularGrid ... 2 (Lebedev-110)
Angular grid pruning method      GridPruning ... 4 (adaptive)
Weight generation scheme         WeightScheme... mBecke (2022)
Basis function cutoff            BFCut       ... 1.0000e-11
Integration weight cutoff        WCut        ... 1.0000e-14
Partially contracted basis set               ... on
Rotationally invariant grid construction     ... off
Angular grids for H and He will be reduced by one unit

Total number of grid points                  ...    45821
Total number of batches                      ...      375
Average number of points per batch           ...      122
Average number of grid points per atom       ...     1762
UseSFitting                                  ... on

GRIDX 3
-------
General Integration Accuracy     IntAcc      ... 4.338
Radial Grid Type                 RadialGrid  ... OptM3 with GC (2021)
Angular Grid (max. ang.)         AngularGrid ... 3 (Lebedev-194)
Angular grid pruning method      GridPruning ... 4 (adaptive)
Weight generation scheme         WeightScheme... mBecke (2022)
Basis function cutoff            BFCut       ... 1.0000e-11
Integration weight cutoff        WCut        ... 1.0000e-14
Partially contracted basis set               ... on
Rotationally invariant grid construction     ... off
Angular grids for H and He will be reduced by one unit

Total number of grid points                  ...   101438
Total number of batches                      ...      804
Average number of points per batch           ...      126
Average number of grid points per atom       ...     3901
UseSFitting                                  ... on
Initializing property integral containers    ... done (  0.0 sec)

SHARK setup successfully completed in   4.2 seconds

Maximum memory used throughout the entire STARTUP-calculation: 60.9 MB


           ************************************************************
           *        Program running with 20 parallel MPI-processes    *
           *              working on a common directory               *
           ************************************************************
-------------------------------------------------------------------------------
                                 ORCA GUESS
                   Start orbitals & Density for SCF / CASSCF
-------------------------------------------------------------------------------

------------
SCF SETTINGS
------------
Hamiltonian:
 Density Functional     Method          .... DFT(GTOs)
  Functional kind                       .... Exchange
  Functional name                       .... Re-regularized SCAN exchange by Furness et al
  Functional family                     .... MGGA
  Functional refs                              
    [ 0] J. W. Furness, A. D. Kaplan, J. Ning, J. P. Perdew, and J. Sun.,  J. Phys. Chem. Lett. 11, 8208-8215 (2020), doi: 10.1021/acs.jpclett.0c02405
    [ 1] J. W. Furness, A. D. Kaplan, J. Ning, J. P. Perdew, and J. Sun.,  J. Phys. Chem. Lett. 11, 9248-9248 (2020), doi: 10.1021/acs.jpclett.0c03077
  Functional external parameters        .... 6
    Parameter  0 _c1        =  6.670000e-01 : c1 parameter        
    Parameter  1 _c2        =  8.000000e-01 : c2 parameter        
    Parameter  2 _d         =  1.240000e+00 : d parameter         
    Parameter  3 _k1        =  6.500000e-02 : k1 parameter        
    Parameter  4 _eta       =  1.000000e-03 : eta parameter       
    Parameter  5 _dp2       =  3.610000e-01 : dp2 parameter       
  Functional kind                       .... Correlation
  Functional name                       .... Re-regularized SCAN correlation by Furness et al
  Functional family                     .... MGGA
  Functional refs                              
    [ 0] J. W. Furness, A. D. Kaplan, J. Ning, J. P. Perdew, and J. Sun.,  J. Phys. Chem. Lett. 11, 8208-8215 (2020), doi: 10.1021/acs.jpclett.0c02405
    [ 1] J. W. Furness, A. D. Kaplan, J. Ning, J. P. Perdew, and J. Sun.,  J. Phys. Chem. Lett. 11, 9248-9248 (2020), doi: 10.1021/acs.jpclett.0c03077
  Functional external parameters        .... 1
    Parameter  0 _eta       =  1.000000e-03 : Regularization parameter
 Gradients option       PostSCFGGA      .... off
 Hybrid DFT is turned on
   Fraction HF Exchange ScalHFX         ....  0.100000
   Scaling of DF-GGA-X  ScalDFX         ....  0.900000
   Scaling of DF-GGA-C  ScalDFC         ....  1.000000
   Scaling of DF-LDA-C  ScalLDAC        ....  1.000000
   Perturbative correction              ....  0.000000
   NL short-range parameter             .... 11.900000
 RI-approximation to the Coulomb term is turned on
   Number of AuxJ basis functions       .... 1236
   RIJ-COSX (HFX calculated with COS-X)).... on


General Settings:
 Integral files         IntName         .... rf_mecn_opt_r2s_P_A-2
 Hartree-Fock type      HFTyp           .... UHF
 Total Charge           Charge          ....   -1
 Multiplicity           Mult            ....    2
 Number of Electrons    NEL             ....  201
 Basis Dimension        Dim             ....  781
 Nuclear Repulsion      ENuc            ....   2887.8742699748 Eh

Convergence Acceleration:
 AO-DIIS                CNVDIIS         .... on
   Start iteration      DIISMaxIt       ....     0
   Startup error        DIISStart       ....  0.200000
   # of expansion vecs  DIISMaxEq       ....     5
   Bias factor          DIISBfac        ....   1.050
   Max. coefficient     DIISMaxC        ....  10.000
 MO-DIIS                CNVKDIIS        .... off
 Trust-Rad. Augm. Hess. CNVTRAH         .... auto
   Auto Start mean grad. ratio tolernc. ....  1.125000
   Auto Start start iteration           ....    50
   Auto Start num. interpolation iter.  ....    10
   Max. Number of Micro iterations      ....    24
   Max. Number of Macro iterations      .... Maxiter - #DIIS iter
   Number of Davidson start vectors     ....     2
   Converg. threshold    (grad. norm)   ....   1.000e-05
   Grad. Scal. Fac. for Micro threshold ....   0.100
   Minimum threshold for Micro iter.    ....   1.000e-02
   NR start threshold (gradient norm)   ....   1.000e-04
   Initial trust radius                 ....   0.400
   Minimum AH scaling param. (alpha)    ....   1.000
   Maximum AH scaling param. (alpha)    .... 1000.000
   Quad. conv. algorithm                .... NR
   White noise on init. David. guess    .... on
   Maximum white noise                  ....   0.010
   Pseudo random numbers                .... off
   Inactive MOs                         .... canonical
   Orbital update algorithm             .... Taylor
   Preconditioner                       .... Diag
   Full preconditioner red. dimension   ....   250
 SOSCF                  CNVSOSCF        .... on
   Start iteration      SOSCFMaxIt      ....   150
   Startup grad/error   SOSCFStart      ....  0.001000
   Hessian update       SOSCFHessUp     .... L-BFGS
 Level Shifting         CNVShift        .... on
   Level shift para.    LevelShift      ....    0.2500
   Turn off err/grad.   ShiftErr        ....    0.0000
 Zerner damping         CNVZerner       .... off
 Static damping         CNVDamp         .... on
   Fraction old density DampFac         ....    0.8500
   Max. Damping (<1)    DampMax         ....    0.9800
   Min. Damping (>=0)   DampMin         ....    0.0000
   Turn off err/grad.   DampErr         ....    0.0300

SCF Procedure:
 Maximum # iterations   MaxIter         ....  1500
 SCF integral mode      SCFMode         .... Direct
   Integral package                     .... SHARK and LIBINT hybrid scheme
 Reset frequency        DirectResetFreq ....    20
 Integral Threshold     Thresh          ....  2.500e-11 Eh
 Primitive CutOff       TCut            ....  2.500e-12 Eh

Convergence Tolerance:
 Convergence Check Mode ConvCheckMode   .... Total+1el-Energy
 Convergence forced     ConvForced      .... 0
 Energy Change          TolE            ....  1.000e-08 Eh
 1-El. energy change                    ....  1.000e-05 Eh
 Orbital Gradient       TolG            ....  1.000e-05
 Orbital Rotation angle TolX            ....  1.000e-05
 DIIS Error             TolErr          ....  5.000e-07

------------------------------
INITIAL GUESS: MODEL POTENTIAL
------------------------------
Loading Hartree-Fock densities                     ... done
Calculating cut-offs                               ... done
Initializing the effective Hamiltonian             ... done
Setting up the integral package (SHARK)            ... done
Starting the Coulomb interaction                   ... done (   0.2 sec)
Making the grid                                    ... done (   0.6 sec)
Mapping shells                                     ... done
Starting the XC term evaluation                    ... done (   0.1 sec)
  promolecular density results
     # of electrons  =    199.999329166
     EX              =   -207.498293227
     EC              =     -7.028408430
     EX+EC           =   -214.526701657
Transforming the Hamiltonian                       ... done (   0.1 sec)
Diagonalizing the Hamiltonian                      ... done (   0.1 sec)
Back transforming the eigenvectors                 ... done (   0.0 sec)
Now organizing SCF variables                       ... done
                      ------------------
                      INITIAL GUESS DONE (   1.4 sec)
                      ------------------
             **** ENERGY FILE WAS UPDATED (rf_mecn_opt_r2s_P_A-2.en.tmp) ****
Finished Guess after   2.1 sec
Maximum memory used throughout the entire GUESS-calculation: 49.4 MB


           ************************************************************
           *        Program running with 20 parallel MPI-processes    *
           *              working on a common directory               *
           ************************************************************

-------------------------------------------------------------------------------------------
                                      ORCA LEAN-SCF
                              memory conserving SCF solver
-------------------------------------------------------------------------------------------

--------------------
CPCM SOLVATION MODEL
--------------------
CPCM parameters:
  Epsilon                                         ...      35.6880
  Refrac                                          ...       1.3442
  Rsolv                                           ...       1.3000
  Surface type                                    ... GAUSSIAN VDW
  Discretization scheme                           ... Constant charge density
    Threshold for H atoms                         ...       5.0000 (charges/Ang^2)
    Threshold for non-H atoms                     ...       5.0000 (charges/Ang^2)
  Epsilon function type                           ...         CPCM
Solvent:                                          ... ACETONITRILE
SMD-CDS solvent descriptors:
  Soln                                            ...       1.3442
  Soln25                                          ...       1.3416
  Sola                                            ...       0.0700
  Solb                                            ...       0.3200
  Solg                                            ...      41.2500
  Solc                                            ...       0.0000
  Solh                                            ...       0.0000
Radii:
  Scheme                                          ... Element-dependent radii
  Radius for C  used is    3.4960 Bohr (=   1.8500 Ang.)
  Radius for O  used is    4.0969 Bohr (=   2.1680 Ang.)
  Radius for H  used is    2.2677 Bohr (=   1.2000 Ang.)
  Radius for F  used is    3.2692 Bohr (=   1.7300 Ang.)
Calculating surface                               ...        done! (  0.0s)
Cavity surface points                             ...         2175
Cavity Volume                                     ...    2179.2438
Cavity Surface-area                               ...    1119.3936
Calculating surface distance matrix               ...        done! (  0.0s)
Performing Cholesky decomposition & store         ...        done! (  0.1s)
Overall time for CPCM initialization              ...                 0.1s

----------------------------------------D-I-I-S--------------------------------------------
Iteration    Energy (Eh)           Delta-E    RMSDP     MaxDP     DIISErr   Damp  Time(sec)
-------------------------------------------------------------------------------------------
               ***  Starting incremental Fock matrix formation  ***
    1    -1953.0850725191785386     0.00e+00  5.29e-04  1.32e-01  1.71e-01  0.850   8.4
Warning: op=0 Small HOMO/LUMO gap (  -0.024) - skipping pre-diagonalization
         Will do a full diagonalization
    2    -1953.2238982159424268    -1.39e-01  8.33e-04  2.16e-01  1.17e-01  0.850   5.7
                               ***Turning on AO-DIIS***
    3    -1953.3006846842336017    -7.68e-02  5.55e-04  1.49e-01  6.58e-02  0.850   5.1
    4    -1953.3460328006785858    -4.53e-02  3.09e-04  8.41e-02  4.93e-02  0.850   4.9
    5    -1953.3781970566296877    -3.22e-02  1.62e-04  4.41e-02  4.24e-02  0.850   4.9
    6    -1953.4037021742969955    -2.55e-02  9.39e-05  2.43e-02  3.76e-02  0.850   4.5
    7    -1953.4249871068077482    -2.13e-02  7.44e-05  1.80e-02  3.28e-02  0.850   4.7
    8    -1953.4431060080441966    -1.81e-02  7.37e-05  1.94e-02  2.73e-02  0.850   4.5
    9    -1953.4583270546290805    -1.52e-02  4.78e-04  1.35e-01  2.27e-02  0.000   4.3
   10    -1953.5389573028223822    -8.06e-02  6.08e-05  9.81e-03  3.36e-03  0.000   5.1
   11    -1953.5391333444285920    -1.76e-04  4.47e-05  7.13e-03  1.85e-03  0.000   4.4
   12    -1953.5392026766485287    -6.93e-05  3.31e-05  5.96e-03  1.33e-03  0.000   4.3
                              *** Initializing SOSCF ***
---------------------------------------S-O-S-C-F--------------------------------------
Iteration    Energy (Eh)           Delta-E    RMSDP     MaxDP     MaxGrad    Time(sec)
--------------------------------------------------------------------------------------
   13    -1953.5392377773741828    -3.51e-05  3.03e-05  7.15e-03  2.93e-04     5.0
               *** Restarting incremental Fock matrix formation ***
   14    -1953.5392446612804633    -6.88e-06  6.50e-05  1.02e-02  1.32e-03     8.1
   15    -1953.5392653423268712    -2.07e-05  5.15e-05  1.45e-02  1.56e-04     6.1
   16    -1953.5392668951926680    -1.55e-06  1.42e-05  3.19e-03  1.86e-04     5.9
   17    -1953.5392704717014567    -3.58e-06  5.88e-06  1.78e-03  6.84e-05     5.7
   18    -1953.5392703581337628     1.14e-07  3.77e-06  1.21e-03  8.88e-05     5.1
   19    -1953.5392706962038574    -3.38e-07  1.48e-06  3.97e-04  1.60e-05     4.8
   20    -1953.5392707304263240    -3.42e-08  1.10e-06  3.14e-04  1.43e-05     4.3
   21    -1953.5392707196442643     1.08e-08  5.69e-07  1.74e-04  1.35e-06     4.2
                  *** Gradient check signals convergence ***

               *****************************************************
               *                     SUCCESS                       *
               *           SCF CONVERGED AFTER  21 CYCLES          *
               *****************************************************

Recomputing exchange energy using gridx3       ... done (    9.270 sec)
Old exchange energy                            :    -20.946408727 Eh
New exchange energy                            :    -20.946413949 Eh
Exchange energy change after final integration :     -0.000005222 Eh
Total energy after final integration           :  -1953.539275942 Eh

SMD CDS free energy correction energy :                 3.55544     Kcal/mol
Total Energy after SMD CDS correction =             -1953.533609987 Eh
             **** ENERGY FILE WAS UPDATED (rf_mecn_opt_r2s_P_A-2.en.tmp) ****

----------------
TOTAL SCF ENERGY
----------------

Total Energy       :      -1953.53360998687003 Eh          -53158.35205 eV

Components:
Nuclear Repulsion  :       2887.87426997481816 Eh           78583.05397 eV
Electronic Energy  :      -4841.33285723160589 Eh         -131739.36455 eV
One Electron Energy:      -8492.53031160006140 Eh         -231093.49835 eV
Two Electron Energy:       3651.19745436845551 Eh           99354.13380 eV
CPCM Dielectric    :         -0.08068346285668 Eh              -2.19551 eV
SMD CDS (Gcds)     :          0.00566595502630 Eh               0.15418 eV

Virial components:
Potential Energy   :      -3900.15667133336683 Eh         -106128.65850 eV
Kinetic Energy     :       1946.62306134649680 Eh           52970.30646 eV
Virial Ratio       :          2.00355001889045

DFT components:
N(Alpha)           :      101.000013607612 electrons
N(Beta)            :       99.999978343266 electrons
N(Total)           :      200.999991950879 electrons
E(X)               :     -189.542662567542 Eh       
E(C)               :       -6.998685719468 Eh       
E(XC)              :     -196.541348287010 Eh       

CPCM Solvation Model Properties:
Surface-charge          :          0.98906030102953
Corrected charge        :          1.00000000000000
Outlying charge corr.   :          0.00000650888858 Eh               0.00018 eV
Free-energy (cav+disp)  :          0.00566595502630 Eh               0.15418 eV

---------------
SCF CONVERGENCE
---------------

  Last Energy change         ...   -1.0782e-08  Tolerance :   1.0000e-08
  Last MAX-Density change    ...    1.7376e-04  Tolerance :   1.0000e-07
  Last RMS-Density change    ...    5.6892e-07  Tolerance :   5.0000e-09
  Last DIIS Error            ...    2.9277e-04  Tolerance :   5.0000e-07
  Last Orbital Gradient      ...    1.3460e-06  Tolerance :   1.0000e-05
  Last Orbital Rotation      ...    1.2240e-05  Tolerance :   1.0000e-05


----------------------
UHF SPIN CONTAMINATION
----------------------

Warning: in a DFT calculation there is little theoretical justification to 
         calculate <S**2> as in Hartree-Fock theory. We will do it anyways
         but you should keep in mind that the values have only limited relevance

Expectation value of <S**2>     :     0.755563
Ideal value S*(S+1) for S=0.5   :     0.750000
Deviation                       :     0.005563

----------------
ORBITAL ENERGIES
----------------
                 SPIN UP ORBITALS
  NO   OCC          E(Eh)            E(eV) 
   0   1.0000     -24.732047      -672.9932 
   1   1.0000     -24.730719      -672.9571 
   2   1.0000     -24.730186      -672.9426 
   3   1.0000     -24.729990      -672.9372 
   4   1.0000     -24.729110      -672.9133 
   5   1.0000     -24.728688      -672.9018 
   6   1.0000     -24.728189      -672.8882 
   7   1.0000     -24.724048      -672.7755 
   8   1.0000     -24.723173      -672.7517 
   9   1.0000     -24.715870      -672.5530 
  10   1.0000     -24.713839      -672.4977 
  11   1.0000     -24.701224      -672.1545 
  12   1.0000     -24.698770      -672.0877 
  13   1.0000     -24.676178      -671.4729 
  14   1.0000     -24.672701      -671.3783 
  15   1.0000     -19.104522      -519.8605 
  16   1.0000     -19.040121      -518.1080 
  17   1.0000     -10.442318      -284.1499 
  18   1.0000     -10.387474      -282.6575 
  19   1.0000     -10.386767      -282.6383 
  20   1.0000     -10.380686      -282.4728 
  21   1.0000     -10.369683      -282.1734 
  22   1.0000     -10.349548      -281.6255 
  23   1.0000     -10.320522      -280.8357 
  24   1.0000     -10.211203      -277.8610 
  25   1.0000      -1.355410       -36.8826 
  26   1.0000      -1.328329       -36.1457 
  27   1.0000      -1.312817       -35.7236 
  28   1.0000      -1.306755       -35.5586 
  29   1.0000      -1.298351       -35.3299 
  30   1.0000      -1.282048       -34.8863 
  31   1.0000      -1.268755       -34.5246 
  32   1.0000      -1.263098       -34.3706 
  33   1.0000      -1.260535       -34.3009 
  34   1.0000      -1.253811       -34.1179 
  35   1.0000      -1.250346       -34.0237 
  36   1.0000      -1.249126       -33.9905 
  37   1.0000      -1.241287       -33.7771 
  38   1.0000      -1.225422       -33.3454 
  39   1.0000      -1.197187       -32.5771 
  40   1.0000      -1.031883       -28.0790 
  41   1.0000      -0.941624       -25.6229 
  42   1.0000      -0.840066       -22.8594 
  43   1.0000      -0.814775       -22.1712 
  44   1.0000      -0.784228       -21.3399 
  45   1.0000      -0.750053       -20.4100 
  46   1.0000      -0.711285       -19.3550 
  47   1.0000      -0.680872       -18.5275 
  48   1.0000      -0.660250       -17.9663 
  49   1.0000      -0.635188       -17.2844 
  50   1.0000      -0.631324       -17.1792 
  51   1.0000      -0.624900       -17.0044 
  52   1.0000      -0.613872       -16.7043 
  53   1.0000      -0.609270       -16.5791 
  54   1.0000      -0.607283       -16.5250 
  55   1.0000      -0.598240       -16.2789 
  56   1.0000      -0.593173       -16.1410 
  57   1.0000      -0.584538       -15.9061 
  58   1.0000      -0.578546       -15.7430 
  59   1.0000      -0.572336       -15.5740 
  60   1.0000      -0.567378       -15.4392 
  61   1.0000      -0.557113       -15.1598 
  62   1.0000      -0.553279       -15.0555 
  63   1.0000      -0.529250       -14.4016 
  64   1.0000      -0.499673       -13.5968 
  65   1.0000      -0.494974       -13.4689 
  66   1.0000      -0.490032       -13.3345 
  67   1.0000      -0.488349       -13.2887 
  68   1.0000      -0.484654       -13.1881 
  69   1.0000      -0.483261       -13.1502 
  70   1.0000      -0.475835       -12.9481 
  71   1.0000      -0.471445       -12.8287 
  72   1.0000      -0.468039       -12.7360 
  73   1.0000      -0.462713       -12.5910 
  74   1.0000      -0.460465       -12.5299 
  75   1.0000      -0.456284       -12.4161 
  76   1.0000      -0.448465       -12.2034 
  77   1.0000      -0.447215       -12.1693 
  78   1.0000      -0.444156       -12.0861 
  79   1.0000      -0.436707       -11.8834 
  80   1.0000      -0.435674       -11.8553 
  81   1.0000      -0.433738       -11.8026 
  82   1.0000      -0.430175       -11.7056 
  83   1.0000      -0.429750       -11.6941 
  84   1.0000      -0.426332       -11.6011 
  85   1.0000      -0.425639       -11.5822 
  86   1.0000      -0.422800       -11.5050 
  87   1.0000      -0.416012       -11.3203 
  88   1.0000      -0.411480       -11.1969 
  89   1.0000      -0.406314       -11.0564 
  90   1.0000      -0.402388       -10.9495 
  91   1.0000      -0.396054       -10.7772 
  92   1.0000      -0.388221       -10.5640 
  93   1.0000      -0.380803       -10.3622 
  94   1.0000      -0.375946       -10.2300 
  95   1.0000      -0.354122        -9.6361 
  96   1.0000      -0.335695        -9.1347 
  97   1.0000      -0.315149        -8.5756 
  98   1.0000      -0.272886        -7.4256 
  99   1.0000      -0.223973        -6.0946 
 100   1.0000      -0.097629        -2.6566 
 101   0.0000      -0.014209        -0.3867 
 102   0.0000       0.000614         0.0167 
 103   0.0000       0.033799         0.9197 
 104   0.0000       0.047974         1.3054 
 105   0.0000       0.080478         2.1899 
 106   0.0000       0.083025         2.2592 
 107   0.0000       0.101282         2.7560 
 108   0.0000       0.111794         3.0421 
 109   0.0000       0.125033         3.4023 
 110   0.0000       0.134135         3.6500 
 111   0.0000       0.140053         3.8110 

                 SPIN DOWN ORBITALS
  NO   OCC          E(Eh)            E(eV) 
   0   1.0000     -24.732046      -672.9932 
   1   1.0000     -24.730718      -672.9570 
   2   1.0000     -24.730170      -672.9421 
   3   1.0000     -24.729962      -672.9365 
   4   1.0000     -24.729105      -672.9131 
   5   1.0000     -24.728676      -672.9015 
   6   1.0000     -24.728155      -672.8873 
   7   1.0000     -24.724026      -672.7750 
   8   1.0000     -24.723115      -672.7502 
   9   1.0000     -24.715832      -672.5520 
  10   1.0000     -24.713758      -672.4956 
  11   1.0000     -24.701167      -672.1529 
  12   1.0000     -24.698677      -672.0852 
  13   1.0000     -24.675681      -671.4594 
  14   1.0000     -24.672063      -671.3610 
  15   1.0000     -19.102064      -519.7936 
  16   1.0000     -19.031486      -517.8731 
  17   1.0000     -10.442283      -284.1490 
  18   1.0000     -10.387403      -282.6556 
  19   1.0000     -10.386603      -282.6338 
  20   1.0000     -10.380373      -282.4643 
  21   1.0000     -10.368973      -282.1541 
  22   1.0000     -10.348193      -281.5886 
  23   1.0000     -10.319623      -280.8112 
  24   1.0000     -10.202196      -277.6159 
  25   1.0000      -1.355377       -36.8817 
  26   1.0000      -1.328175       -36.1415 
  27   1.0000      -1.312665       -35.7194 
  28   1.0000      -1.306656       -35.5559 
  29   1.0000      -1.298117       -35.3236 
  30   1.0000      -1.281696       -34.8767 
  31   1.0000      -1.268736       -34.5241 
  32   1.0000      -1.263062       -34.3697 
  33   1.0000      -1.260486       -34.2996 
  34   1.0000      -1.253753       -34.1163 
  35   1.0000      -1.249988       -34.0139 
  36   1.0000      -1.248056       -33.9613 
  37   1.0000      -1.241134       -33.7730 
  38   1.0000      -1.225248       -33.3407 
  39   1.0000      -1.196060       -32.5464 
  40   1.0000      -1.024340       -27.8737 
  41   1.0000      -0.929519       -25.2935 
  42   1.0000      -0.839018       -22.8308 
  43   1.0000      -0.812447       -22.1078 
  44   1.0000      -0.780714       -21.2443 
  45   1.0000      -0.745817       -20.2947 
  46   1.0000      -0.707739       -19.2586 
  47   1.0000      -0.679072       -18.4785 
  48   1.0000      -0.657886       -17.9020 
  49   1.0000      -0.635034       -17.2802 
  50   1.0000      -0.630887       -17.1673 
  51   1.0000      -0.624837       -17.0027 
  52   1.0000      -0.612324       -16.6622 
  53   1.0000      -0.607797       -16.5390 
  54   1.0000      -0.606120       -16.4934 
  55   1.0000      -0.594589       -16.1796 
  56   1.0000      -0.592962       -16.1353 
  57   1.0000      -0.582599       -15.8533 
  58   1.0000      -0.578272       -15.7356 
  59   1.0000      -0.569362       -15.4931 
  60   1.0000      -0.566904       -15.4262 
  61   1.0000      -0.555989       -15.1292 
  62   1.0000      -0.550126       -14.9697 
  63   1.0000      -0.527940       -14.3660 
  64   1.0000      -0.499592       -13.5946 
  65   1.0000      -0.494918       -13.4674 
  66   1.0000      -0.489906       -13.3310 
  67   1.0000      -0.486226       -13.2309 
  68   1.0000      -0.483875       -13.1669 
  69   1.0000      -0.483191       -13.1483 
  70   1.0000      -0.475422       -12.9369 
  71   1.0000      -0.471060       -12.8182 
  72   1.0000      -0.467943       -12.7334 
  73   1.0000      -0.462587       -12.5876 
  74   1.0000      -0.460166       -12.5218 
  75   1.0000      -0.455989       -12.4081 
  76   1.0000      -0.448189       -12.1958 
  77   1.0000      -0.447065       -12.1653 
  78   1.0000      -0.443157       -12.0589 
  79   1.0000      -0.436658       -11.8821 
  80   1.0000      -0.435519       -11.8511 
  81   1.0000      -0.433084       -11.7848 
  82   1.0000      -0.429956       -11.6997 
  83   1.0000      -0.426263       -11.5992 
  84   1.0000      -0.425649       -11.5825 
  85   1.0000      -0.422988       -11.5101 
  86   1.0000      -0.422443       -11.4953 
  87   1.0000      -0.415176       -11.2975 
  88   1.0000      -0.410945       -11.1824 
  89   1.0000      -0.404779       -11.0146 
  90   1.0000      -0.401198       -10.9172 
  91   1.0000      -0.391489       -10.6530 
  92   1.0000      -0.386452       -10.5159 
  93   1.0000      -0.378883       -10.3099 
  94   1.0000      -0.357974        -9.7410 
  95   1.0000      -0.348648        -9.4872 
  96   1.0000      -0.324592        -8.8326 
  97   1.0000      -0.309120        -8.4116 
  98   1.0000      -0.243057        -6.6139 
  99   1.0000      -0.217346        -5.9143 
 100   0.0000      -0.025620        -0.6972 
 101   0.0000      -0.001410        -0.0384 
 102   0.0000       0.011060         0.3009 
 103   0.0000       0.038802         1.0559 
 104   0.0000       0.053414         1.4535 
 105   0.0000       0.085062         2.3146 
 106   0.0000       0.087727         2.3872 
 107   0.0000       0.106203         2.8899 
 108   0.0000       0.112648         3.0653 
 109   0.0000       0.126913         3.4535 
 110   0.0000       0.135640         3.6909 
*Only the first 10 virtual orbitals were printed.

                    ********************************
                    * MULLIKEN POPULATION ANALYSIS *
                    ********************************

--------------------------------------------
MULLIKEN ATOMIC CHARGES AND SPIN POPULATIONS
--------------------------------------------
   0 C :   -0.008437    0.537805
   1 O :   -0.585347    0.247198
   2 O :   -0.496134    0.034031
   3 H :    0.324098    0.012631
   4 C :    0.458663    0.011613
   5 C :    0.256172    0.093230
   6 C :    0.315878    0.025054
   7 C :    0.323419    0.016465
   8 C :    0.298040    0.006514
   9 C :    0.331064    0.003085
  10 C :    0.470559    0.001270
  11 F :   -0.224573    0.001982
  12 F :   -0.228220    0.003743
  13 F :   -0.199242    0.000711
  14 F :   -0.197216    0.001801
  15 F :   -0.182425    0.000195
  16 F :   -0.179683    0.000614
  17 F :   -0.172804    0.000193
  18 F :   -0.172272    0.000839
  19 F :   -0.168329    0.000355
  20 F :   -0.168132    0.000128
  21 F :   -0.165394    0.000165
  22 F :   -0.162351    0.000060
  23 F :   -0.157027   -0.000020
  24 F :   -0.155028    0.000345
  25 F :   -0.155279   -0.000006
Sum of atomic charges         :   -1.0000000
Sum of atomic spin populations:    1.0000000

-----------------------------------------------------
MULLIKEN REDUCED ORBITAL CHARGES AND SPIN POPULATIONS
-----------------------------------------------------
CHARGE
  0 C s       :     3.195003  s :     3.195003
      pz      :     0.843978  p :     2.602553
      px      :     0.923872
      py      :     0.834703
      dz2     :     0.038465  d :     0.190556
      dxz     :     0.038469
      dyz     :     0.054551
      dx2y2   :     0.033919
      dxy     :     0.025152
      f0      :     0.003597  f :     0.020325
      f+1     :     0.003261
      f-1     :     0.004053
      f+2     :     0.002927
      f-2     :     0.002426
      f+3     :     0.002321
      f-3     :     0.001740

  1 O s       :     3.827962  s :     3.827962
      pz      :     1.385863  p :     4.726707
      px      :     1.642560
      py      :     1.698283
      dz2     :     0.010747  d :     0.028919
      dxz     :     0.007828
      dyz     :     0.007160
      dx2y2   :     0.001531
      dxy     :     0.001653
      f0      :     0.000547  f :     0.001759
      f+1     :     0.000402
      f-1     :     0.000372
      f+2     :     0.000182
      f-2     :     0.000216
      f+3     :     0.000020
      f-3     :     0.000019

  2 O s       :     3.782096  s :     3.782096
      pz      :     1.583213  p :     4.683465
      px      :     1.727206
      py      :     1.373046
      dz2     :     0.004986  d :     0.029035
      dxz     :     0.005632
      dyz     :     0.009740
      dx2y2   :     0.005222
      dxy     :     0.003455
      f0      :     0.000034  f :     0.001538
      f+1     :     0.000187
      f-1     :     0.000240
      f+2     :     0.000170
      f-2     :     0.000348
      f+3     :     0.000285
      f-3     :     0.000274

  3 H s       :     0.630570  s :     0.630570
      pz      :     0.015933  p :     0.045333
      px      :     0.016600
      py      :     0.012800

  4 C s       :     2.957754  s :     2.957754
      pz      :     0.666610  p :     2.284692
      px      :     0.948762
      py      :     0.669320
      dz2     :     0.053535  d :     0.273527
      dxz     :     0.047847
      dyz     :     0.064393
      dx2y2   :     0.057837
      dxy     :     0.049915
      f0      :     0.004338  f :     0.025364
      f+1     :     0.004810
      f-1     :     0.005474
      f+2     :     0.002739
      f-2     :     0.001143
      f+3     :     0.004411
      f-3     :     0.002450

  5 C s       :     3.181047  s :     3.181047
      pz      :     0.626198  p :     2.256004
      px      :     0.942560
      py      :     0.687246
      dz2     :     0.056504  d :     0.280230
      dxz     :     0.054694
      dyz     :     0.067878
      dx2y2   :     0.046297
      dxy     :     0.054857
      f0      :     0.003627  f :     0.026546
      f+1     :     0.005072
      f-1     :     0.007416
      f+2     :     0.002141
      f-2     :     0.001674
      f+3     :     0.004247
      f-3     :     0.002368

  6 C s       :     3.136985  s :     3.136985
      pz      :     0.592713  p :     2.236490
      px      :     0.929458
      py      :     0.714318
      dz2     :     0.069853  d :     0.283706
      dxz     :     0.059061
      dyz     :     0.061651
      dx2y2   :     0.038822
      dxy     :     0.054320
      f0      :     0.003975  f :     0.026942
      f+1     :     0.004580
      f-1     :     0.007083
      f+2     :     0.002540
      f-2     :     0.003485
      f+3     :     0.002984
      f-3     :     0.002294

  7 C s       :     3.138724  s :     3.138724
      pz      :     0.577015  p :     2.223928
      px      :     0.926893
      py      :     0.720020
      dz2     :     0.079713  d :     0.286740
      dxz     :     0.060483
      dyz     :     0.055164
      dx2y2   :     0.034965
      dxy     :     0.056416
      f0      :     0.005666  f :     0.027189
      f+1     :     0.003921
      f-1     :     0.004651
      f+2     :     0.003710
      f-2     :     0.005015
      f+3     :     0.002230
      f-3     :     0.001997

  8 C s       :     3.146691  s :     3.146691
      pz      :     0.580393  p :     2.240758
      px      :     0.940663
      py      :     0.719702
      dz2     :     0.079117  d :     0.287233
      dxz     :     0.060774
      dyz     :     0.056781
      dx2y2   :     0.033544
      dxy     :     0.057018
      f0      :     0.005456  f :     0.027278
      f+1     :     0.003942
      f-1     :     0.005056
      f+2     :     0.003586
      f-2     :     0.004904
      f+3     :     0.002312
      f-3     :     0.002022

  9 C s       :     3.109233  s :     3.109233
      pz      :     0.601222  p :     2.248518
      px      :     0.940877
      py      :     0.706419
      dz2     :     0.065719  d :     0.283804
      dxz     :     0.060614
      dyz     :     0.066990
      dx2y2   :     0.032796
      dxy     :     0.057684
      f0      :     0.003698  f :     0.027381
      f+1     :     0.004781
      f-1     :     0.007822
      f+2     :     0.002334
      f-2     :     0.003138
      f+3     :     0.003227
      f-3     :     0.002382

 10 C s       :     3.028920  s :     3.028920
      pz      :     0.637025  p :     2.108555
      px      :     0.813007
      py      :     0.658522
      dz2     :     0.069208  d :     0.352355
      dxz     :     0.068715
      dyz     :     0.084251
      dx2y2   :     0.065679
      dxy     :     0.064502
      f0      :     0.004173  f :     0.039611
      f+1     :     0.007326
      f-1     :     0.010049
      f+2     :     0.003570
      f-2     :     0.003982
      f+3     :     0.006697
      f-3     :     0.003815

 11 F s       :     3.921476  s :     3.921476
      pz      :     1.890604  p :     5.287990
      px      :     1.913408
      py      :     1.483978
      dz2     :     0.002019  d :     0.014500
      dxz     :     0.000237
      dyz     :     0.003191
      dx2y2   :     0.005717
      dxy     :     0.003336
      f0      :     0.000054  f :     0.000607
      f+1     :     0.000010
      f-1     :     0.000113
      f+2     :     0.000099
      f-2     :     0.000014
      f+3     :     0.000131
      f-3     :     0.000187

 12 F s       :     3.920661  s :     3.920661
      pz      :     1.477135  p :     5.292601
      px      :     1.918522
      py      :     1.896943
      dz2     :     0.007586  d :     0.014359
      dxz     :     0.003313
      dyz     :     0.002995
      dx2y2   :     0.000308
      dxy     :     0.000158
      f0      :     0.000296  f :     0.000599
      f+1     :     0.000136
      f-1     :     0.000142
      f+2     :     0.000015
      f-2     :     0.000008
      f+3     :     0.000001
      f-3     :     0.000001

 13 F s       :     3.926153  s :     3.926153
      pz      :     1.853300  p :     5.256500
      px      :     1.908941
      py      :     1.494259
      dz2     :     0.002063  d :     0.015927
      dxz     :     0.000441
      dyz     :     0.004396
      dx2y2   :     0.005502
      dxy     :     0.003525
      f0      :     0.000069  f :     0.000662
      f+1     :     0.000006
      f-1     :     0.000113
      f+2     :     0.000149
      f-2     :     0.000035
      f+3     :     0.000125
      f-3     :     0.000165

 14 F s       :     3.925507  s :     3.925507
      pz      :     1.453073  p :     5.255050
      px      :     1.908794
      py      :     1.893184
      dz2     :     0.008549  d :     0.015988
      dxz     :     0.003838
      dyz     :     0.003210
      dx2y2   :     0.000243
      dxy     :     0.000147
      f0      :     0.000348  f :     0.000671
      f+1     :     0.000163
      f-1     :     0.000144
      f+2     :     0.000008
      f-2     :     0.000006
      f+3     :     0.000001
      f-3     :     0.000001

 15 F s       :     3.927841  s :     3.927841
      pz      :     1.757984  p :     5.237497
      px      :     1.899387
      py      :     1.580126
      dz2     :     0.002280  d :     0.016407
      dxz     :     0.001267
      dyz     :     0.006029
      dx2y2   :     0.003845
      dxy     :     0.002985
      f0      :     0.000076  f :     0.000681
      f+1     :     0.000007
      f-1     :     0.000146
      f+2     :     0.000189
[...]
      py      :    -0.000080
      dz2     :     0.000019  d :     0.000045
      dxz     :     0.000002
      dyz     :    -0.000006
      dx2y2   :     0.000036
      dxy     :    -0.000005
      f0      :     0.000000  f :     0.000002
      f+1     :     0.000000
      f-1     :     0.000000
      f+2     :     0.000001
      f-2     :    -0.000000
      f+3     :    -0.000000
      f-3     :     0.000001

 19 F s       :     0.000195  s :     0.000195
      pz      :     0.000210  p :     0.000280
      px      :     0.000022
      py      :     0.000048
      dz2     :     0.000000  d :     0.000029
      dxz     :     0.000002
      dyz     :     0.000015
      dx2y2   :     0.000015
      dxy     :    -0.000003
      f0      :    -0.000000  f :     0.000001
      f+1     :     0.000000
      f-1     :     0.000001
      f+2     :     0.000000
      f-2     :     0.000000
      f+3     :     0.000000
      f-3     :     0.000000

 20 F s       :     0.000014  s :     0.000014
      pz      :     0.000008  p :     0.000197
      px      :     0.000011
      py      :     0.000177
      dz2     :     0.000016  d :     0.000069
      dxz     :     0.000009
      dyz     :     0.000014
      dx2y2   :     0.000025
      dxy     :     0.000005
      f0      :     0.000001  f :     0.000003
      f+1     :     0.000000
      f-1     :     0.000000
      f+2     :     0.000001
      f-2     :     0.000001
      f+3     :     0.000000
      f-3     :     0.000000

 21 F s       :     0.000082  s :     0.000082
      pz      :     0.000037  p :     0.000139
      px      :    -0.000001
      py      :     0.000102
      dz2     :    -0.000000  d :     0.000010
      dxz     :     0.000002
      dyz     :     0.000008
      dx2y2   :     0.000000
      dxy     :    -0.000001
      f0      :     0.000000  f :     0.000001
      f+1     :     0.000000
      f-1     :     0.000000
      f+2     :     0.000000
      f-2     :     0.000000
      f+3     :     0.000000
      f-3     :     0.000000

 22 F s       :     0.000004  s :     0.000004
      pz      :    -0.000037  p :     0.000087
      px      :    -0.000006
      py      :     0.000129
      dz2     :     0.000003  d :     0.000030
      dxz     :     0.000004
      dyz     :     0.000017
      dx2y2   :     0.000005
      dxy     :     0.000000
      f0      :     0.000000  f :     0.000002
      f+1     :     0.000000
      f-1     :     0.000001
      f+2     :     0.000000
      f-2     :     0.000000
      f+3     :     0.000000
      f-3     :     0.000000

 23 F s       :     0.000009  s :     0.000009
      pz      :     0.000007  p :     0.000019
      px      :     0.000037
      py      :    -0.000026
      dz2     :    -0.000000  d :     0.000003
      dxz     :    -0.000000
      dyz     :     0.000003
      dx2y2   :     0.000002
      dxy     :    -0.000002
      f0      :     0.000000  f :     0.000000
      f+1     :    -0.000000
      f-1     :     0.000000
      f+2     :     0.000000
      f-2     :    -0.000000
      f+3     :    -0.000000
      f-3     :     0.000000

 24 F s       :     0.000043  s :     0.000043
      pz      :     0.000000  p :     0.000321
      px      :     0.000314
      py      :     0.000006
      dz2     :     0.000004  d :     0.000028
      dxz     :     0.000003
      dyz     :     0.000000
      dx2y2   :     0.000019
      dxy     :     0.000001
      f0      :     0.000000  f :     0.000001
      f+1     :     0.000000
      f-1     :     0.000000
      f+2     :     0.000000
      f-2     :    -0.000000
      f+3     :     0.000000
      f-3     :     0.000000

 25 F s       :     0.000002  s :     0.000002
      pz      :    -0.000016  p :     0.000019
      px      :    -0.000010
      py      :     0.000045
      dz2     :     0.000002  d :     0.000010
      dxz     :     0.000000
      dyz     :     0.000007
      dx2y2   :     0.000000
      dxy     :     0.000000
      f0      :     0.000000  f :     0.000001
      f+1     :     0.000000
      f-1     :     0.000000
      f+2     :    -0.000000
      f-2     :     0.000000
      f+3     :     0.000000
      f-3     :    -0.000000



                      *****************************
                      * MAYER POPULATION ANALYSIS *
                      *****************************

  NA   - Mulliken gross atomic population
  ZA   - Total nuclear charge
  QA   - Mulliken gross atomic charge
  VA   - Mayer's total valence
  BVA  - Mayer's bonded valence
  FA   - Mayer's free valence

  ATOM       NA         ZA         QA         VA         BVA        FA
  0 C      6.0351     6.0000    -0.0351     4.3146     3.9398     0.3748
  1 O      8.5781     8.0000    -0.5781     1.9061     1.8508     0.0552
  2 O      8.4962     8.0000    -0.4962     1.8691     1.8653     0.0038
  3 H      0.6792     1.0000     0.3208     0.9408     0.9406     0.0002
  4 C      5.5266     6.0000     0.4734     3.7016     3.6911     0.0105
  5 C      5.7528     6.0000     0.2472     4.0920     4.0785     0.0135
  6 C      5.6801     6.0000     0.3199     4.1541     4.1524     0.0017
  7 C      5.6775     6.0000     0.3225     4.1804     4.1799     0.0004
  8 C      5.7015     6.0000     0.2985     4.1861     4.1860     0.0001
  9 C      5.6714     6.0000     0.3286     4.2121     4.2121     0.0000
 10 C      5.5290     6.0000     0.4710     4.4682     4.4682     0.0000
 11 F      9.2232     9.0000    -0.2232     1.0402     1.0401     0.0001
 12 F      9.2271     9.0000    -0.2271     1.0302     1.0301     0.0001
 13 F      9.1975     9.0000    -0.1975     1.1081     1.1081     0.0000
 14 F      9.1953     9.0000    -0.1953     1.1156     1.1156     0.0000
 15 F      9.1809     9.0000    -0.1809     1.1288     1.1288     0.0000
 16 F      9.1788     9.0000    -0.1788     1.1329     1.1329     0.0000
 17 F      9.1716     9.0000    -0.1716     1.1445     1.1445     0.0000
 18 F      9.1712     9.0000    -0.1712     1.1474     1.1474     0.0000
 19 F      9.1672     9.0000    -0.1672     1.1541     1.1541     0.0000
 20 F      9.1672     9.0000    -0.1672     1.1517     1.1517     0.0000
 21 F      9.1647     9.0000    -0.1647     1.1562     1.1562     0.0000
 22 F      9.1616     9.0000    -0.1616     1.1578     1.1578     0.0000
 23 F      9.1568     9.0000    -0.1568     1.1635     1.1635     0.0000
 24 F      9.1546     9.0000    -0.1546     1.1622     1.1622     0.0000
 25 F      9.1549     9.0000    -0.1549     1.1648     1.1648     0.0000

  Mayer bond orders larger than 0.100000
B(  0-C ,  1-O ) :   1.7794 B(  0-C ,  2-O ) :   1.0455 B(  0-C ,  4-C ) :   0.9032 
B(  0-C ,  5-C ) :   0.1011 B(  2-O ,  3-H ) :   0.8643 B(  4-C ,  5-C ) :   0.8255 
B(  4-C , 11-F ) :   1.0042 B(  4-C , 12-F ) :   0.9999 B(  5-C ,  6-C ) :   0.8977 
B(  5-C , 13-F ) :   1.0479 B(  5-C , 14-F ) :   1.0680 B(  6-C ,  7-C ) :   0.9273 
B(  6-C , 15-F ) :   1.0594 B(  6-C , 16-F ) :   1.0757 B(  7-C ,  8-C ) :   0.9259 
B(  7-C , 17-F ) :   1.0709 B(  7-C , 18-F ) :   1.0765 B(  8-C ,  9-C ) :   0.9351 
B(  8-C , 19-F ) :   1.0795 B(  8-C , 20-F ) :   1.0862 B(  9-C , 10-C ) :   0.9540 
B(  9-C , 21-F ) :   1.0815 B(  9-C , 22-F ) :   1.0966 B( 10-C , 23-F ) :   1.1285 
B( 10-C , 24-F ) :   1.1324 B( 10-C , 25-F ) :   1.1420 

-------
TIMINGS
-------

Total SCF time: 0 days 0 hours 0 min 45 sec 

Total time                  ....      45.313 sec
Sum of individual times     ....      44.561 sec  ( 98.3%)

SCF preparation             ....       1.340 sec  (  3.0%)
Fock matrix formation       ....      36.610 sec  ( 80.8%)
  Startup                   ....       0.173 sec  (  0.5% of F)
  Split-RI-J                ....       2.402 sec  (  6.6% of F)
  Chain of spheres X        ....      22.916 sec  ( 62.6% of F)
  XC integration            ....       8.660 sec  ( 23.7% of F)
    XC Preparation          ....       0.000 sec  (  0.0% of XC)
    Basis function eval.    ....       0.582 sec  (  6.7% of XC)
    Density eval.           ....       2.678 sec  ( 30.9% of XC)
    XC-Functional eval.     ....       0.176 sec  (  2.0% of XC)
    XC-Potential eval.      ....       2.224 sec  ( 25.7% of XC)
  CPCM terms                ....       1.904 sec  (  5.2% of F)
Diagonalization             ....       0.000 sec  (  0.0%)
Density matrix formation    ....       0.491 sec  (  1.1%)
Total Energy calculation    ....       0.322 sec  (  0.7%)
Population analysis         ....       0.319 sec  (  0.7%)
Orbital Transformation      ....       1.070 sec  (  2.4%)
Orbital Orthonormalization  ....       0.000 sec  (  0.0%)
DIIS solution               ....       1.838 sec  (  4.1%)
SOSCF solution              ....       2.570 sec  (  5.7%)
Finished LeanSCF after  45.5 sec

Maximum memory used throughout the entire LEANSCF-calculation: 112.4 MB


-------------------------------------------------------------------------------
                          DFT DISPERSION CORRECTION                            
                                                                               
                              DFTD3 V3.1  Rev 1                                
                          USING Becke-Johnson damping                          
-------------------------------------------------------------------------------
The R2SCANh functional is recognized
Active option DFTDOPT                   ...         4   

molecular C6(AA) [au] = 6839.838989 


            DFT-D V3
 parameters
 s6 scaling factor         :     1.0000 
 a1 scaling factor         :     0.4709 
 s8 scaling factor         :     1.1236 
 a2 scaling factor         :     5.9157 
 ad hoc parameters k1-k3   :    16.0000     1.3333    -4.0000 

 Edisp/kcal,au: -5.436924286419  -0.008664289435 
 E6   /kcal   :  -3.978161066 
 E8   /kcal   :  -1.458763221 
 % E8         :  26.830670132 

-------------------------   ----------------
Dispersion correction           -0.008664289
-------------------------   ----------------


-------------------------   --------------------
FINAL SINGLE POINT ENERGY     -1953.543799303174
-------------------------   --------------------

                                *** OPTIMIZATION RUN DONE ***



           ************************************************************
           *        Program running with 20 parallel MPI-processes    *
           *              working on a common directory               *
           ************************************************************

------------------------------------------------------------------------------
                              ORCA PROPERTY CALCULATIONS
------------------------------------------------------------------------------

GBWName                                 ... rf_mecn_opt_r2s_P_A-2.gbw
Number of atoms                         ...     26
Number of basis functions               ...    781
Max core memory                         ...   8000 MB

Electric properties:
Dipole moment                           ... YES
Quadrupole moment                       ...  NO
Static polarizability (Dipole/Dipole)   ...  NO
Static polarizability (Dipole/Quad.)    ...  NO
Static polarizability (Quad./Quad.)     ...  NO
Static polarizability (Velocity)        ...  NO

Atomic electric properties:
Dipole moment                           ...  NO
Quadrupole moment                       ...  NO
Static polarizability                   ...  NO

Choice of electric origin               ... Center of mass
Position of electric origin             ...    -0.066551    -0.016201     0.007963

General magnetic properties:
Magnetizability                         ...  NO

EPR properties:
g-Tensor (aka g-matrix)                 ...  NO
Zero-Field splitting spin-orbit         ...  NO
Zero-field splitting spin-spin          ...  NO
Hyperfine couplings                     ...  NO (   0 nuclei)
Quadrupole couplings                    ...  NO (   0 nuclei)
Contact density                         ...  NO (   0 nuclei)

NMR properties:
Chemical shifts                         ...  NO (   0 nuclei)
Spin-rotation constants                 ...  NO (   0 nuclei)
Spin-spin couplings                     ...  NO (   0 nuclei,    0 pairs)

Choice of magnetic origin               ... GIAO
Position of magnetic origin             ...     0.000000     0.000000     0.000000

Properties with geometric perturbations:
SCF Hessian                             ...  NO
IR spectrum                             ...  NO
VCD spectrum                            ...  NO
X-ray spectroscopy properties:
SCF XES/XAS/RIXS spectra                ...  NO


-------------
DIPOLE MOMENT
-------------

Method             : SCF
Type of density    : Electron Density
Multiplicity       :   2
Irrep              :   0
Energy             : -1953.5351350137389090 Eh
Relativity type    : 
Basis              : AO
                                X                 Y                 Z
Electronic contribution:    -22.774281869      -1.758111055       1.946581048
Nuclear contribution   :     15.312787597       2.447212490      -1.521501967
                        -----------------------------------------
Total Dipole Moment    :     -7.461494272       0.689101434       0.425079081
                        -----------------------------------------
Magnitude (a.u.)       :      7.505294783
Magnitude (Debye)      :     19.076943269



--------------------
Rotational spectrum 
--------------------
 
Rotational constants in cm-1:             0.021163             0.003730             0.003689 
Rotational constants in MHz :           634.454293           111.821420           110.607937 

Dipole components along the rotational axes: 
x,y,z [a.u.] :    -7.461737    -0.686251     0.425424 
x,y,z [Debye]:   -18.966229    -1.744312     1.081342 

 

Dipole moment calculation done in   0.0 sec 

Maximum memory used throughout the entire PROP-calculation: 59.2 MB

--------------------------------
SUGGESTED CITATIONS FOR THIS RUN
--------------------------------

Below you find a list of papers that are relevant to this ORCA run
We neither can nor want to force you to cite these papers, but we appreciate if you do
You receive ORCA, which is the product of decades of hard work by many enthusiastic individuals, for free
The only thing we kindly ask in return is that you cite our papers,
We deeply appreciate it, if you show your appreciation for ORCA by not just citing the generic ORCA reference.

Please note that relegating all ORCA citations to the supporting information does *not* help us.
SI sections are not indexed - citations you put there will not count into any citation statistics
But we need these citations in order to attract the funding resources that allow us to do what we are doing

Therefore, if you are a happy ORCA user, please consider citing a few of the papers listed below in the main body of your paper

In addition to the list printed below, the program has created the file rf_mecn_opt_r2s_P_A-2.bibtex that contains the list in bibtex format
You can import this file easily into all common literature databanks and citation aid programs


List of essential papers. We consider these as the minimum necessary citations

  1. Neese,F.
     Software update: the ORCA program system, version 5.0
     WIRES Comput. Molec. Sci., 2022 12(1)e1606
     doi.org/10.1002/wcms.1606

List of papers to cite with high priority. The work reported in these papers was absolutely
necessary for this run to complete.
Our perspective: the developers of density functionals and basis sets usually get cited in chemistry papers
Good! But without the algorithms to do something with them, the functionals or basis sets would not do anything.
Hence, in our opinion, the algorithm design and method developments papers are equally worthy of getting cited

  1. Neese,F.
     An improvement of the resolution of the identity approximation for the formation of the Coulomb matrix
     J. Comp. Chem., 2003 24(14)1740-1747
     doi.org/10.1002/jcc.10318
  2. Neese,F.; Wennmohs,F.; Hansen,A.; Becker,U.
     Efficient, approximate and parallel Hartree-Fock and hybrid DFT calculations. A 'chain-of-spheres' algorithm for the Hartree-Fock exchange
     Chem. Phys., 2009 356(1-3)98-109
     doi.org/10.1016/j.chemphys.2008.10.036
  3. Garcia-Rates,M.; Neese,F.
     Effect of the Solute Cavity on the Solvation Energy and its Derivatives within the Framework of the Gaussian Charge Scheme
     J. Comput. Chem., 2020 41 922-939
     doi.org/10.1002/jcc.26139
  4. Helmich-Paris,B.; de Souza,B.; Neese,F.; Izsák,R.
     An improved chain of spheres for exchange algorithm
     J. Chem. Phys., 2021 155 104109
     doi.org/doi: 10.1063/5.0058766.
  5. Neese,F.
     The SHARK Integral Generation and Digestion System
     J. Comp. Chem., 2022  1-16
     doi.org/10.1002/jcc.26942
  6. Lehtola,S.; Steigemann,C.; Oliveira,M.; Marques,M.
     Recent developments in Libxc - A comprehensive library of functionals for density functional theory
     Software X, 2018 7 
     doi.org/10.1016/j.softx.2017.11.002
  7. Grimme,S.; Antony,J.; Ehrlich,S.; Krieg,H.
     A consistent and accurate ab initio parametrization of density functional dispersion correction (DFT-D) for the 94 elements H-Pu
     J. Chem. Phys., 2010 132 154104
     doi.org/10.1063/1.3382344
  8. Grimme,S.; Ehrlich,S.; Goerigk,L.
     Effect of the damping function in dispersion corrected density functional theory
     J. Comput. Chem., 2011 32(7)1456-1465
     doi.org/10.1002/jcc.21759
  9. Bursch,M.; Neugebauer,H.; Ehlert,S.; Grimme,S.
     Dispersion corrected r2SCAN based global hybrid functionals: r2SCANh, r2SCAN0, and r2SCAN50
     J. Phys. Chem., 2022 156(13)134105
     doi.org/10.1063/5.0086040

List of suggested additional citations. These are papers that are important in the 'surrounding' of 
of this run, or papers that preceded the highly important papers. If you like your results we are grateful for a citation.

  1. Izsak,R.; Neese,F.
     An overlap fitted chain of spheres exchange method
     J. Chem. Phys., 2011 135 144105
     doi.org/10.1063/1.3646921
  2. Izsak,R.; Hansen,A.; Neese,F.
     The resolution of identity and chain of spheres approximations for the LPNO-CCSD singles Fock term
     Molec. Phys., 2012 110 2413-2417
     doi.org/10.1080/00268976.2012.687466
  3. Neese,F.
     The ORCA program system
     WIRES Comput. Molec. Sci., 2012 2(1)73-78
     doi.org/10.1002/wcms.81
  4. Izsak,R.; Neese,F.; Klopper,W.
     Robust fitting techniques in the chain of spheres approximation to the Fock exchange: The role of the complementary space
     J. Chem. Phys., 2013 139 
     doi.org/10.1063/1.4819264
  5. Neese,F.
     Software update: the ORCA program system, version 4.0
     WIRES Comput. Molec. Sci., 2018 8(1)1-6
     doi.org/10.1002/wcms.1327
  6. Neese,F.; Wennmohs,F.; Becker,U.; Riplinger,C.
     The ORCA quantum chemistry program package
     J. Chem. Phys., 2020 152 Art. No. L224108
     doi.org/10.1063/5.0004608
  7. Wittmann,L.; Neugebauer,H.; Grimme,S.; Bursch,M.
     Dispersion-corrected r2SCAN based double-hybrid functionals
     J. Chem. Phys., 2023 159(22)224103
     doi.org/10.1063/5.0174988

List of optional additional citations

  1. Neese,F.
     Approximate second-order SCF convergence for spin unrestricted wavefunctions
     Chem. Phys. Lett., 2000 325(1-3)93-98
     doi.org/10.1016/s0009-2614(00)00662-x

Timings for individual modules:

Sum of individual times          ...      930.912 sec (=  15.515 min)
Startup calculation              ...       41.919 sec (=   0.699 min)   4.5 %
SCF iterations                   ...      684.684 sec (=  11.411 min)  73.5 %
Property calculations            ...        0.706 sec (=   0.012 min)   0.1 %
SCF Gradient evaluation          ...      203.419 sec (=   3.390 min)  21.9 %
Geometry relaxation              ...        0.185 sec (=   0.003 min)   0.0 %
                             ****ORCA TERMINATED NORMALLY****
TOTAL RUN TIME: 0 days 0 hours 15 minutes 37 seconds 466 msec
