
                                 *****************
                                 * O   R   C   A *
                                 *****************

                                            #,                                       
                                            ###                                      
                                            ####                                     
                                            #####                                    
                                            ######                                   
                                           ########,                                 
                                     ,,################,,,,,                         
                               ,,#################################,,                 
                          ,,##########################################,,             
                       ,#########################################, ''#####,          
                    ,#############################################,,   '####,        
                  ,##################################################,,,,####,       
                ,###########''''           ''''###############################       
              ,#####''   ,,,,##########,,,,          '''####'''          '####       
            ,##' ,,,,###########################,,,                        '##       
           ' ,,###''''                  '''############,,,                           
         ,,##''                                '''############,,,,        ,,,,,,###''
      ,#''                                            '''#######################'''  
     '                                                          ''''####''''         
             ,#######,   #######,   ,#######,      ##                                
            ,#'     '#,  ##    ##  ,#'     '#,    #''#        ,####,   ,####,        
            ##       ##  ##   ,#'  ##            #'  '#       #'       #'  '#        
            ##       ##  #######   ##           ,######,      #####,   #    #        
            '#,     ,#'  ##    ##  '#,     ,#' ,#      #,     #,   #   #,  ,#        
             '#######'   ##     ##  '#######'  #'      '#     '####' # '####'        



                #########################################################
                #                        -***-                          #
                #          Department of theory and spectroscopy        #
                #                                                       #
                #                      Frank Neese                      #
                #                                                       #
                #     Directorship, Architecture, Infrastructure        #
                #                    SHARK, DRIVERS                     #
                #        Core code/Algorithms in most modules           #
                #                                                       #
                #        Max Planck Institute fuer Kohlenforschung      #
                #                Kaiser Wilhelm Platz 1                 #
                #                 D-45470 Muelheim/Ruhr                 #
                #                      Germany                          #
                #                                                       #
                #                  All rights reserved                  #
                #                        -***-                          #
                #########################################################


                         Program Version 6.0.1  -  RELEASE   -


 With contributions from (in alphabetic order):
[Max-Planck-Institut fuer Kohlenforschung]                               
  Daniel Aravena         : Magnetic Suceptibility                        
  Michael Atanasov       : Ab Initio Ligand Field Theory (pilot matlab implementation)
  Alexander A. Auer      : GIAO ZORA, VPT2 properties, NMR spectrum      
  Ute Becker             : All parallelization in ORCA, NUMFREQ, NUMCALC 
  Giovanni Bistoni       : ED, misc. LED, open-shell LED, HFLD           
  Martin Brehm           : Molecular dynamics                            
  Dmytro Bykov           : pre 5.0 version of the SCF Hessian            
  Marcos Casanova-Páez   : Triplet and SCS-CIS(D). UHF-(DLPNO)-IP/EA/STEOM-CCSD. UHF-CVS-IP/STEOM-CCSD   
  Vijay G. Chilkuri      : MRCI spin determinant printing, contributions to CSF-ICE 
  Pauline Colinet        : FMM embedding                                 
  Dipayan Datta          : RHF DLPNO-CCSD density                        
  Achintya Kumar Dutta   : EOM-CC, STEOM-CC                              
  Nicolas Foglia         : Exact transition moments, OPA infrastructure, MCD improvements    
  Dmitry Ganyushin       : Spin-Orbit,Spin-Spin,Magnetic field MRCI      
  Miquel Garcia-Rates    : C-PCM and meta-GGA Hessian, CCSD/C-PCM, Gaussian charge scheme 
  Tiago L. C. Gouveia    : GS-ROHF, GS-ROCIS                             
  Yang Guo               : DLPNO-NEVPT2, F12-NEVPT2, CIM, IAO-localization        
  Andreas Hansen         : Spin unrestricted coupled pair/coupled cluster methods 
  Ingolf Harden          : AUTO-CI MPn and infrastructure                
  Benjamin Helmich-Paris : MC-RPA, TRAH-(SCF,CASSCF), AVAS, COSX integrals, SCF dyn. polar. 
  Lee Huntington         : MR-EOM, pCC                                   
  Robert Izsak           : Overlap fitted RIJCOSX, COSX-SCS-MP3, EOM     
  Riya Kayal             : Wick's Theorem for AUTO-CI, AUTO-CI UHF-CCSDT 
  Emily Kempfer          : AUTO-CI, RHF CISDT and CCSDT                  
  Christian Kollmar      : KDIIS, OOCD, Brueckner-CCSD(T), CCSD density, CASPT2, CASPT2-K, improved NEVPT2 
  Axel Koslowski         : Symmetry handling                             
  Simone Kossmann        : meta-GGA functionals, TD-DFT gradient, OOMP2, (MP2 Hessian; deprecated post 5.0) 
  Lucas Lang             : DCDCAS                                        
  Marvin Lechner         : AUTO-CI (C++ implementation), FIC-MRCC        
  Spencer Leger          : CASSCF response                               
  Dagmar Lenk            : GEPOL surface, SMD, ORCA-2-JSON               
  Dimitrios Liakos       : Extrapolation schemes; Compound Job, initial MDCI parallelization 
  Dimitrios Manganas     : Further ROCIS development; embedding schemes. LFT, Crystal Embedding 
  Dimitrios Pantazis     : SARC Basis sets                               
  Anastasios Papadopoulos: AUTO-CI, single reference methods and gradients 
  Taras Petrenko         : pre 6.0 DFT Hessian and TD-DFT gradient, (ASA, deprecated), ECA, 1-Electron XAS/XES, NRVS 
  Peter Pinski           : DLPNO-MP2, DLPNO-MP2 Gradient                 
  Christoph Reimann      : Effective Core Potentials                     
  Marius Retegan         : Local ZFS, SOC                                
  Christoph Riplinger    : Optimizer, TS searches, QM/MM, DLPNO-CCSD(T), (RO)-DLPNO pert. Triples 
  Michael Roemelt        : Original ROCIS implementation                 
  Masaaki Saitow         : Open-shell DLPNO-CCSD energy and density      
  Barbara Sandhoefer     : DKH picture change effects                    
  Kantharuban Sivalingam : CASSCF convergence/infrastructure, NEVPT2 and variants, FIC-MRCI 
  Bernardo de Souza      : ESD, SOC TD-DFT                               
  Georgi L. Stoychev     : AutoAux, RI-MP2 NMR, DLPNO-MP2 response, X2C  
  Van Anh Tran           : RI-MP2 g-tensors                              
  Willem Van den Heuvel  : Paramagnetic NMR                              
  Zikuan Wang            : NOTCH, Electric field optimization            
  Frank Wennmohs         : Technical directorship and infrastructure     
  Hang Xu                : AUTO-CI-Response properties                   
                                                                         
[FACCTs GmbH]                                                            
  Markus Bursch, Miquel Garcia-Rates, Christoph Riplinger, Bernardo de Souza, Georgi L. Stoychev 
                                                                 
  APM, Basis sets (HGBS, AHGBS, def-TZVP (Ac-Lr), def2-XVPD (La-Lu)), CI-OPT, improved COSX, DLPNO-Multilevel,           
  DOCKER, DRACO, updates on ESD, GOAT, IRC, LR-CPCM, MBIS, meta-GGA TD-DFT gradient, ML-optimized integration grids, 
  MM, NACMEs, nearIR, NEB, NEB-TS, NL-DFT gradient (VV10), 2- and 3-layer-ONIOM, interface openCOSMO-RS, QMMM,   
  Crystal-QMMM, SF, symmetry and pop. for TD-DFT, r2SCAN hybrids, SOLVATOR                                   
                                                                         
[Other institutions]                                                     
  V. Asgeirsson          : NEB                                           
  Christoph Bannwarth    : sTDA-DFT, sTD-DFT, PBEh-3c, B97-3c, D3        
  Sebastian Ehlert       : rSCAN, r2SCAN, r2SCAN-3c, D4, dhf basis sets  
  Marvin Friede          : D4 for Fr, Ra, Ac-Lr                          
  Lars Goerigk           : TD-DFT with DH, B97 family of functionals     
  Stefan Grimme          : VdW corrections, initial TS optimization, DFT functionals, gCP, sTDA/sTD-DF 
  Waldemar Hujo          : DFT-NL                                        
  H. Jonsson             : NEB                                           
  Holger Kruse           : gCP                                           
  Marcel Mueller         : wB97X-3c, vDZP basis set                      
  Hagen Neugebauer       : wr2SCAN                                       
  Tobias Risthaus        : range-separated hybrid DFT                    
  Lukas Wittmann         : regularized MP2, r2SCAN double-hybrids, wr2SCAN        
                                                                         
We gratefully acknowledge several colleagues who have allowed us to      
interface, adapt or use parts of their codes:                            
  Ed Valeev, F. Pavosevic, A. Kumar             : LibInt (2-el integral package), F12 methods 
  Garnet Chan, S. Sharma, J. Yang, R. Olivares  : DMRG                   
  Ulf Ekstrom                                   : XCFun DFT Library      
  Mihaly Kallay                                 : mrcc  (arbitrary order and MRCC methods)
  Frank Weinhold                                : gennbo (NPA and NBO analysis)           
  Simon Mueller                                 : openCOSMO-RS                            
  Christopher J. Cramer and Donald G. Truhlar   : smd solvation model                     
  S Lehtola, MJT Oliveira, MAL Marques          : LibXC Library                           
  Liviu Ungur et al                             : ANISO software                          


 Your calculation uses the libint2 library for the computation of 2-el integrals
 For citations please refer to: http://libint.valeyev.net

 Your ORCA version has been built with support for libXC version: 6.2.2
 For citations please refer to: https://libxc.gitlab.io

 This ORCA versions uses:
   CBLAS   interface :  Fast vector & matrix operations
   LAPACKE interface :  Fast linear algebra routines
   SCALAPACK package :  Parallel linear algebra routines
   Shared memory     :  Shared parallel matrices
   BLAS/LAPACK       :  OpenBLAS 0.3.27  USE64BITINT DYNAMIC_ARCH NO_AFFINITY SkylakeX SINGLE_THREADED
        Core in use  :  SkylakeX
   Copyright (c) 2011-2014, The OpenBLAS Project


NOTE: MaxCore=8000 MB was set to SCF,MP2,MDCI,CIPSI,MRCI and CIS
      => If you want to overwrite this, your respective input block should be placed after the MaxCore statement
Your calculation utilizes the atom-pairwise dispersion correction
with the Becke-Johnson damping scheme (D3BJ)


Your calculation utilizes the SMD solvation module
Please cite in your paper:
A.V. Marenich, C.J. Cramer, D.G. Truhlar J. Phys. Chem. B, 113, (2009), 6378 

Warning: RI is on but no J-basis has been assigned. Assigning Def2/J (nothing to worry about!)
================================================================================

----- Orbital basis set information -----
Your calculation utilizes the basis: def2-TZVP
   F. Weigend and R. Ahlrichs, Phys. Chem. Chem. Phys. 7, 3297 (2005).

----- AuxJ basis set information -----
Your calculation utilizes the auxiliary basis: def2/J
   F. Weigend, Phys. Chem. Chem. Phys. 8, 1057 (2006).

================================================================================
                                        WARNINGS
                       Please study these warnings very carefully!
================================================================================


WARNING: your system is open-shell and RHF/RKS was chosen
  ===> : WILL SWITCH to UHF/UKS


================================================================================
                                       INPUT FILE
================================================================================
NAME = rf_mecn_1H2O_freq_TP_sw_04.inp
|  1> !TPSSh def2-TZVP freq d3 TightSCF SlowConv defgrid2
|  2>  
|  3> %pal
|  4> nprocs 20
|  5> end
|  6>  
|  7> %scf
|  8> MaxIter 1500
|  9> end
| 10>  
| 11> %maxcore 8000
| 12>  
| 13> !CPCM
| 14> %cpcm smd true
| 15> SMDsolvent "ACETONITRILE"
| 16> end
| 17>  
| 18> * xyz -2 2
| 19> 6        6.846104000     28.317698000      2.667395000
| 20> 6        6.293255000     26.879872000      2.808606000
| 21> 6        6.914406000     25.623981000      2.111091000
| 22> 6        6.432722000     24.117409000      2.166391000
| 23> 6        7.058936000     22.862485000      1.466835000
| 24> 6        6.532725000     21.406706000      1.684543000
| 25> 6        7.028640000     20.255353000      0.759074000
| 26> 6        6.712072000     18.818524000      1.304835000
| 27> 9        6.818023000     28.717872000      1.384189000
| 28> 9        8.115715000     28.388619000      3.105151000
| 29> 9        6.139437000     29.247201000      3.378939000
| 30> 9        6.307671000     26.628283000      4.163873000
| 31> 9        4.983883000     26.962517000      2.386097000
| 32> 9        6.901761000     25.943884000      0.754399000
| 33> 9        8.230224000     25.595227000      2.560451000
| 34> 9        6.444653000     23.803459000      3.524614000
| 35> 9        5.117428000     24.159560000      1.724194000
| 36> 9        6.986309000     23.104550000      0.111994000
| 37> 9        8.386885000     22.845947000      1.833398000
| 38> 9        6.839534000     21.058698000      2.972764000
| 39> 9        5.167580000     21.440783000      1.583917000
| 40> 9        6.460840000     20.443379000     -0.476966000
| 41> 9        8.381166000     20.419450000      0.583177000
| 42> 8        7.634728000     18.264725000      1.921182000
| 43> 8        5.545319000     18.414707000      1.075742000
| 44> 8        3.431456000     19.007326000     -0.549779000
| 45> 1        2.704332000     18.810685000      0.055103000
| 46> 1        4.242951000     18.878418000     -0.000589000
| 47> *
| 48> 
| 49>                          ****END OF INPUT****
================================================================================

                       ****************************
                       * Single Point Calculation *
                       ****************************

---------------------------------
CARTESIAN COORDINATES (ANGSTROEM)
---------------------------------
  C      6.846104   28.317698    2.667395
  C      6.293255   26.879872    2.808606
  C      6.914406   25.623981    2.111091
  C      6.432722   24.117409    2.166391
  C      7.058936   22.862485    1.466835
  C      6.532725   21.406706    1.684543
  C      7.028640   20.255353    0.759074
  C      6.712072   18.818524    1.304835
  F      6.818023   28.717872    1.384189
  F      8.115715   28.388619    3.105151
  F      6.139437   29.247201    3.378939
  F      6.307671   26.628283    4.163873
  F      4.983883   26.962517    2.386097
  F      6.901761   25.943884    0.754399
  F      8.230224   25.595227    2.560451
  F      6.444653   23.803459    3.524614
  F      5.117428   24.159560    1.724194
  F      6.986309   23.104550    0.111994
  F      8.386885   22.845947    1.833398
  F      6.839534   21.058698    2.972764
  F      5.167580   21.440783    1.583917
  F      6.460840   20.443379   -0.476966
  F      8.381166   20.419450    0.583177
  O      7.634728   18.264725    1.921182
  O      5.545319   18.414707    1.075742
  O      3.431456   19.007326   -0.549779
  H      2.704332   18.810685    0.055103
  H      4.242951   18.878418   -0.000589

----------------------------
CARTESIAN COORDINATES (A.U.)
----------------------------
  NO LB      ZA    FRAG     MASS         X           Y           Z
   0 C     6.0000    0    12.011   12.937262   53.512694    5.040646
   1 C     6.0000    0    12.011   11.892528   50.795597    5.307496
   2 C     6.0000    0    12.011   13.066334   48.422307    3.989384
   3 C     6.0000    0    12.011   12.156083   45.575298    4.093886
   4 C     6.0000    0    12.011   13.339456   43.203835    2.771916
   5 C     6.0000    0    12.011   12.345061   40.452812    3.183325
   6 C     6.0000    0    12.011   13.282205   38.277070    1.434442
   7 C     6.0000    0    12.011   12.683978   35.561857    2.465781
   8 F     9.0000    0    18.998   12.884196   54.268913    2.615738
   9 F     9.0000    0    18.998   15.336479   53.646715    5.867885
  10 F     9.0000    0    18.998   11.601855   55.269200    6.385269
  11 F     9.0000    0    18.998   11.919771   50.320162    7.868580
  12 F     9.0000    0    18.998    9.418174   50.951773    4.509070
  13 F     9.0000    0    18.998   13.042438   49.026836    1.425608
  14 F     9.0000    0    18.998   15.552869   48.367969    4.838551
  15 F     9.0000    0    18.998   12.178629   44.982019    6.660555
  16 F     9.0000    0    18.998    9.670537   45.654952    3.258254
  17 F     9.0000    0    18.998   13.202211   43.661272    0.211638
  18 F     9.0000    0    18.998   15.848916   43.172583    3.464620
  19 F     9.0000    0    18.998   12.924846   39.795172    5.617710
  20 F     9.0000    0    18.998    9.765311   40.517208    2.993169
  21 F     9.0000    0    18.998   12.209218   38.632388   -0.901335
  22 F     9.0000    0    18.998   15.838108   38.587168    1.102045
  23 O     8.0000    0    15.999   14.427545   34.515328    3.630508
  24 O     8.0000    0    15.999   10.479134   34.798753    2.032858
  25 O     8.0000    0    15.999    6.484512   35.918641   -1.038932
  26 H     1.0000    0     1.008    5.110447   35.547043    0.104130
  27 H     1.0000    0     1.008    8.018015   35.675040   -0.001113

--------------------------------
INTERNAL COORDINATES (ANGSTROEM)
--------------------------------
 C      0   0   0     0.000000000000     0.00000000     0.00000000
 C      1   0   0     1.546908584758     0.00000000     0.00000000
 C      2   1   0     1.565125536149   124.28558793     0.00000000
 C      3   2   1     1.582667607882   128.86459573   180.74156535
 C      4   3   2     1.567276879402   128.68253309   180.05428654
 C      5   4   3     1.563197775915   123.29961893   175.78329456
 C      6   5   4     1.558216380287   119.88537477   168.58693043
 C      7   6   5     1.569250758479   113.93989562   165.40222766
 F      1   2   3     1.344449854503   110.87452831    60.60241539
 F      1   2   3     1.344831660506   110.89781602   300.19569212
 F      1   2   3     1.367351066784   113.55568143   180.42441795
 F      2   1   3     1.378496821638   104.81209556   122.70235683
 F      2   1   3     1.378331993930   104.82066227   237.20691288
 F      3   2   1     1.393955167248   104.24076002   303.11216467
 F      3   2   1     1.390729381023   104.36422163    57.57495649
 F      4   3   2     1.394086320495   104.22975913   302.39321376
 F      4   3   2     1.388277061701   104.37798729    56.68777442
 F      5   4   3     1.378210535671   106.08685551   298.56896434
 F      5   4   3     1.377712047205   106.02018424    53.61196341
 F      6   5   4     1.369216810949   106.99587832   291.07205747
 F      6   5   4     1.369272691917   107.58968897    46.20644930
 F      7   6   5     1.373151666159   107.56856293   288.63250042
 F      7   6   5     1.373751855574   107.52525895    42.40000851
 O      8   7   6     1.240109290001   115.57232002   263.28418544
 O      8   7   6     1.255732589028   114.73555382    81.72107118
 O     25   8   7     2.731653818362   139.27104342    17.04845992
 H     26  25   8     0.966053429258    99.53766580   215.32326883
 H     26  25   8     0.988307170666     6.08493608   354.21810720

---------------------------
INTERNAL COORDINATES (A.U.)
---------------------------
 C      0   0   0     0.000000000000     0.00000000     0.00000000
 C      1   0   0     2.923233579404     0.00000000     0.00000000
 C      2   1   0     2.957658628529   124.28558793     0.00000000
 C      3   2   1     2.990808339926   128.86459573   180.74156535
 C      4   3   2     2.961724078096   128.68253309   180.05428654
 C      5   4   3     2.954015689634   123.29961893   175.78329456
 C      6   5   4     2.944602216133   119.88537477   168.58693043
 C      7   6   5     2.965454168973   113.93989562   165.40222766
 F      1   2   3     2.540642025801   110.87452831    60.60241539
 F      1   2   3     2.541363534582   110.89781602   300.19569212
 F      1   2   3     2.583919045146   113.55568143   180.42441795
 F      2   1   3     2.604981469377   104.81209556   122.70235683
 F      2   1   3     2.604669990149   104.82066227   237.20691288
 F      3   2   1     2.634193509064   104.24076002   303.11216467
 F      3   2   1     2.628097656531   104.36422163    57.57495649
 F      4   3   2     2.634441352781   104.22975913   302.39321376
 F      4   3   2     2.623463444620   104.37798729    56.68777442
 F      5   4   3     2.604440467303   106.08685551   298.56896434
 F      5   4   3     2.603498460622   106.02018424    53.61196341
 F      6   5   4     2.587444790655   106.99587832   291.07205747
 F      6   5   4     2.587550390381   107.58968897    46.20644930
 F      7   6   5     2.594880589379   107.56856293   288.63250042
 F      7   6   5     2.596014783002   107.52525895    42.40000851
 O      8   7   6     2.343466934233   115.57232002   263.28418544
 O      8   7   6     2.372990690703   114.73555382    81.72107118
 O     25   8   7     5.162077609384   139.27104342    17.04845992
 H     26  25   8     1.825576412033    99.53766580   215.32326883
 H     26  25   8     1.867629888749     6.08493608   354.21810720

---------------------
BASIS SET INFORMATION
---------------------
There are 4 groups of distinct atoms

 Group   1 Type C   : 11s6p2d1f contracted to 5s3p2d1f pattern {62111/411/11/1}
 Group   2 Type F   : 11s6p2d1f contracted to 5s3p2d1f pattern {62111/411/11/1}
 Group   3 Type O   : 11s6p2d1f contracted to 5s3p2d1f pattern {62111/411/11/1}
 Group   4 Type H   : 5s1p contracted to 3s1p pattern {311/1}

Atom   0C    basis set group =>   1
Atom   1C    basis set group =>   1
Atom   2C    basis set group =>   1
Atom   3C    basis set group =>   1
Atom   4C    basis set group =>   1
Atom   5C    basis set group =>   1
Atom   6C    basis set group =>   1
Atom   7C    basis set group =>   1
Atom   8F    basis set group =>   2
Atom   9F    basis set group =>   2
Atom  10F    basis set group =>   2
Atom  11F    basis set group =>   2
Atom  12F    basis set group =>   2
Atom  13F    basis set group =>   2
Atom  14F    basis set group =>   2
Atom  15F    basis set group =>   2
Atom  16F    basis set group =>   2
Atom  17F    basis set group =>   2
Atom  18F    basis set group =>   2
Atom  19F    basis set group =>   2
Atom  20F    basis set group =>   2
Atom  21F    basis set group =>   2
Atom  22F    basis set group =>   2
Atom  23O    basis set group =>   3
Atom  24O    basis set group =>   3
Atom  25O    basis set group =>   3
Atom  26H    basis set group =>   4
Atom  27H    basis set group =>   4
---------------------------------
AUXILIARY/J BASIS SET INFORMATION
---------------------------------
There are 4 groups of distinct atoms

 Group   1 Type C   : 12s5p4d2f1g contracted to 6s4p3d1f1g pattern {711111/2111/211/2/1}
 Group   2 Type F   : 12s5p4d2f1g contracted to 6s4p3d1f1g pattern {711111/2111/211/2/1}
 Group   3 Type O   : 12s5p4d2f1g contracted to 6s4p3d1f1g pattern {711111/2111/211/2/1}
 Group   4 Type H   : 5s2p1d contracted to 3s1p1d pattern {311/2/1}

Atom   0C    basis set group =>   1
Atom   1C    basis set group =>   1
Atom   2C    basis set group =>   1
Atom   3C    basis set group =>   1
Atom   4C    basis set group =>   1
Atom   5C    basis set group =>   1
Atom   6C    basis set group =>   1
Atom   7C    basis set group =>   1
Atom   8F    basis set group =>   2
Atom   9F    basis set group =>   2
Atom  10F    basis set group =>   2
Atom  11F    basis set group =>   2
Atom  12F    basis set group =>   2
Atom  13F    basis set group =>   2
Atom  14F    basis set group =>   2
Atom  15F    basis set group =>   2
Atom  16F    basis set group =>   2
Atom  17F    basis set group =>   2
Atom  18F    basis set group =>   2
Atom  19F    basis set group =>   2
Atom  20F    basis set group =>   2
Atom  21F    basis set group =>   2
Atom  22F    basis set group =>   2
Atom  23O    basis set group =>   3
Atom  24O    basis set group =>   3
Atom  25O    basis set group =>   3
Atom  26H    basis set group =>   4
Atom  27H    basis set group =>   4


           ************************************************************
           *        Program running with 20 parallel MPI-processes    *
           *              working on a common directory               *
           ************************************************************
------------------------------------------------------------------------------
                             ORCA STARTUP CALCULATIONS
                           -- RI-GTO INTEGRALS CHOSEN --
------------------------------------------------------------------------------
------------------------------------------------------------------------------
                   ___                                                        
                  /   \      - P O W E R E D   B Y -                         
                 /     \                                                     
                 |  |  |   _    _      __       _____    __    __             
                 |  |  |  | |  | |    /  \     |  _  \  |  |  /  |          
                  \  \/   | |  | |   /    \    | | | |  |  | /  /          
                 / \  \   | |__| |  /  /\  \   | |_| |  |  |/  /          
                |  |  |   |  __  | /  /__\  \  |    /   |      \           
                |  |  |   | |  | | |   __   |  |    \   |  |\   \          
                \     /   | |  | | |  |  |  |  | |\  \  |  | \   \       
                 \___/    |_|  |_| |__|  |__|  |_| \__\ |__|  \__/        
                                                                              
                      - O R C A' S   B I G   F R I E N D -                    
                                      &                                       
                       - I N T E G R A L  F E E D E R -                       
                                                                              
 v1 FN, 2020, v2 2021, v3 2022-2024                                           
------------------------------------------------------------------------------


----------------------
SHARK INTEGRAL PACKAGE
----------------------

Number of atoms                             ...     28
Number of basis functions                   ...    818
Number of shells                            ...    294
Maximum angular momentum                    ...      3
Integral batch strategy                     ... SHARK/LIBINT Hybrid
RI-J (if used) integral strategy            ... SPLIT-RIJ (Revised 2003 algorithm where possible)
Printlevel                                  ...      1
Contraction scheme used                     ... SEGMENTED contraction
Prescreening option                         ... SCHWARTZ
   Thresh                                   ... 2.500e-11
   Tcut                                     ... 2.500e-12
   Tpresel                                  ... 2.500e-12 
Coulomb Range Separation                    ... NOT USED
Exchange Range Separation                   ... NOT USED
Multipole approximations                    ... NOT USED
Finite Nucleus Model                        ... NOT USED
CABS basis                                  ... NOT available
Auxiliary Coulomb fitting basis             ... AVAILABLE
   # of basis functions in Aux-J            ...   1296
   # of shells in Aux-J                     ...    400
   Maximum angular momentum in Aux-J        ...      4
Auxiliary J/K fitting basis                 ... NOT available
Auxiliary Correlation fitting basis         ... NOT available
Auxiliary 'external' fitting basis          ... NOT available

Checking pre-screening integrals            ... done (  0.0 sec) Dimension = 294
Check shell pair data                       ... done (  0.0 sec)
Shell pair information
Shell pair cut-off parameter TPreSel        ...   2.5e-12
Total number of shell pairs                 ...     43365
Shell pairs after pre-screening             ...     24866
Total number of primitive shell pairs       ...    142356
Primitive shell pairs kept                  ...     52197
          la=0 lb=0:   4808 shell pairs
          la=1 lb=0:   6891 shell pairs
          la=1 lb=1:   2351 shell pairs
          la=2 lb=0:   3661 shell pairs
          la=2 lb=1:   2639 shell pairs
          la=2 lb=2:    730 shell pairs
          la=3 lb=0:   1667 shell pairs
          la=3 lb=1:   1283 shell pairs
          la=3 lb=2:    676 shell pairs
          la=3 lb=3:    160 shell pairs

Calculating one electron integrals          ... done (  0.0 sec)
Calculating RI/J V-Matrix + Cholesky decomp.... done (  0.1 sec)
Calculating Nuclear repulsion               ... done (  0.0 sec) ENN=   2991.105562952673 Eh

Diagonalization of the overlap matrix:
Smallest eigenvalue                        ... 9.853e-05
Time for diagonalization                   ...    0.128 sec
Threshold for overlap eigenvalues          ... 1.000e-07
Number of eigenvalues below threshold      ... 0
Time for construction of square roots      ...    0.057 sec
Total time needed                          ...    0.192 sec

-------------------
DFT GRID GENERATION
-------------------

General Integration Accuracy     IntAcc      ... 4.388
Radial Grid Type                 RadialGrid  ... OptM3 with GC (2021)
Angular Grid (max. ang.)         AngularGrid ... 4 (Lebedev-302)
Angular grid pruning method      GridPruning ... 4 (adaptive)
Weight generation scheme         WeightScheme... mBecke (2022)
Basis function cutoff            BFCut       ... 1.0000e-11
Integration weight cutoff        WCut        ... 1.0000e-14
Partially contracted basis set               ... off
Rotationally invariant grid construction     ... off
Angular grids for H and He will be reduced by one unit

Total number of grid points                  ...   164184
Total number of batches                      ...     2577
Average number of points per batch           ...       63
Average number of grid points per atom       ...     5864

--------------------
COSX GRID GENERATION
--------------------

GRIDX 1
-------
General Integration Accuracy     IntAcc      ... 3.816
Radial Grid Type                 RadialGrid  ... OptM3 with GC (2021)
Angular Grid (max. ang.)         AngularGrid ... 1 (Lebedev-50)
Angular grid pruning method      GridPruning ... 4 (adaptive)
Weight generation scheme         WeightScheme... mBecke (2022)
Basis function cutoff            BFCut       ... 1.0000e-11
Integration weight cutoff        WCut        ... 1.0000e-14
Partially contracted basis set               ... on
Rotationally invariant grid construction     ... off
Angular grids for H and He will be reduced by one unit

Total number of grid points                  ...    20673
Total number of batches                      ...      173
Average number of points per batch           ...      119
Average number of grid points per atom       ...      738
UseSFitting                                  ... on

GRIDX 2
-------
General Integration Accuracy     IntAcc      ... 4.020
Radial Grid Type                 RadialGrid  ... OptM3 with GC (2021)
Angular Grid (max. ang.)         AngularGrid ... 2 (Lebedev-110)
Angular grid pruning method      GridPruning ... 4 (adaptive)
Weight generation scheme         WeightScheme... mBecke (2022)
Basis function cutoff            BFCut       ... 1.0000e-11
Integration weight cutoff        WCut        ... 1.0000e-14
Partially contracted basis set               ... on
Rotationally invariant grid construction     ... off
Angular grids for H and He will be reduced by one unit

Total number of grid points                  ...    48491
Total number of batches                      ...      392
Average number of points per batch           ...      123
Average number of grid points per atom       ...     1732
UseSFitting                                  ... on

GRIDX 3
-------
General Integration Accuracy     IntAcc      ... 4.338
Radial Grid Type                 RadialGrid  ... OptM3 with GC (2021)
Angular Grid (max. ang.)         AngularGrid ... 3 (Lebedev-194)
Angular grid pruning method      GridPruning ... 4 (adaptive)
Weight generation scheme         WeightScheme... mBecke (2022)
Basis function cutoff            BFCut       ... 1.0000e-11
Integration weight cutoff        WCut        ... 1.0000e-14
Partially contracted basis set               ... on
Rotationally invariant grid construction     ... off
Angular grids for H and He will be reduced by one unit

Total number of grid points                  ...   107279
Total number of batches                      ...      848
Average number of points per batch           ...      126
Average number of grid points per atom       ...     3831
UseSFitting                                  ... on
Initializing property integral containers    ... done (  0.0 sec)

SHARK setup successfully completed in   3.2 seconds

Maximum memory used throughout the entire STARTUP-calculation: 63.1 MB


           ************************************************************
           *        Program running with 20 parallel MPI-processes    *
           *              working on a common directory               *
           ************************************************************
-------------------------------------------------------------------------------
                                 ORCA GUESS
                   Start orbitals & Density for SCF / CASSCF
-------------------------------------------------------------------------------

------------
SCF SETTINGS
------------
Hamiltonian:
 Density Functional     Method          .... DFT(GTOs)
 Exchange Functional    Exchange        .... TPSS
 Correlation Functional Correlation     .... TPSS
 LDA part of GGA corr.  LDAOpt          .... PW91-LDA
 Gradients option       PostSCFGGA      .... off
 Hybrid DFT is turned on
   Fraction HF Exchange ScalHFX         ....  0.100000
   Scaling of DF-GGA-X  ScalDFX         ....  0.900000
   Scaling of DF-GGA-C  ScalDFC         ....  1.000000
   Scaling of DF-LDA-C  ScalLDAC        ....  1.000000
   Perturbative correction              ....  0.000000
   NL short-range parameter             ....  5.200000
 RI-approximation to the Coulomb term is turned on
   Number of AuxJ basis functions       .... 1296
   RIJ-COSX (HFX calculated with COS-X)).... on


General Settings:
 Integral files         IntName         .... rf_mecn_1H2O_freq_TP_sw_04
 Hartree-Fock type      HFTyp           .... UHF
 Total Charge           Charge          ....   -2
 Multiplicity           Mult            ....    2
 Number of Electrons    NEL             ....  211
 Basis Dimension        Dim             ....  818
 Nuclear Repulsion      ENuc            ....   2991.1055629527 Eh

Convergence Acceleration:
 AO-DIIS                CNVDIIS         .... on
   Start iteration      DIISMaxIt       ....     0
   Startup error        DIISStart       ....  0.200000
   # of expansion vecs  DIISMaxEq       ....     5
   Bias factor          DIISBfac        ....   1.050
   Max. coefficient     DIISMaxC        ....  10.000
 MO-DIIS                CNVKDIIS        .... off
 Trust-Rad. Augm. Hess. CNVTRAH         .... auto
   Auto Start mean grad. ratio tolernc. ....  1.125000
   Auto Start start iteration           ....    50
   Auto Start num. interpolation iter.  ....    10
   Max. Number of Micro iterations      ....    24
   Max. Number of Macro iterations      .... Maxiter - #DIIS iter
   Number of Davidson start vectors     ....     2
   Converg. threshold    (grad. norm)   ....   1.000e-05
   Grad. Scal. Fac. for Micro threshold ....   0.100
   Minimum threshold for Micro iter.    ....   1.000e-02
   NR start threshold (gradient norm)   ....   1.000e-04
   Initial trust radius                 ....   0.400
   Minimum AH scaling param. (alpha)    ....   1.000
   Maximum AH scaling param. (alpha)    .... 1000.000
   Quad. conv. algorithm                .... NR
   White noise on init. David. guess    .... on
   Maximum white noise                  ....   0.010
   Pseudo random numbers                .... off
   Inactive MOs                         .... canonical
   Orbital update algorithm             .... Taylor
   Preconditioner                       .... Diag
   Full preconditioner red. dimension   ....   250
 SOSCF                  CNVSOSCF        .... on
   Start iteration      SOSCFMaxIt      ....   150
   Startup grad/error   SOSCFStart      ....  0.001000
   Hessian update       SOSCFHessUp     .... L-BFGS
 Level Shifting         CNVShift        .... on
   Level shift para.    LevelShift      ....    0.2500
   Turn off err/grad.   ShiftErr        ....    0.0000
 Zerner damping         CNVZerner       .... off
 Static damping         CNVDamp         .... on
   Fraction old density DampFac         ....    0.8500
   Max. Damping (<1)    DampMax         ....    0.9800
   Min. Damping (>=0)   DampMin         ....    0.0000
   Turn off err/grad.   DampErr         ....    0.0300

SCF Procedure:
 Maximum # iterations   MaxIter         ....  1500
 SCF integral mode      SCFMode         .... Direct
   Integral package                     .... SHARK and LIBINT hybrid scheme
 Reset frequency        DirectResetFreq ....    20
 Integral Threshold     Thresh          ....  2.500e-11 Eh
 Primitive CutOff       TCut            ....  2.500e-12 Eh

Convergence Tolerance:
 Convergence Check Mode ConvCheckMode   .... Total+1el-Energy
 Convergence forced     ConvForced      .... 0
 Energy Change          TolE            ....  1.000e-08 Eh
 1-El. energy change                    ....  1.000e-05 Eh
 Orbital Gradient       TolG            ....  1.000e-05
 Orbital Rotation angle TolX            ....  1.000e-05
 DIIS Error             TolErr          ....  5.000e-07

------------------------------
INITIAL GUESS: MODEL POTENTIAL
------------------------------
Loading Hartree-Fock densities                     ... done
Calculating cut-offs                               ... done
Initializing the effective Hamiltonian             ... done
Setting up the integral package (SHARK)            ... done
Starting the Coulomb interaction                   ... done (   0.2 sec)
Making the grid                                    ... done (   0.5 sec)
Mapping shells                                     ... done
Starting the XC term evaluation                    ... done (   0.1 sec)
  promolecular density results
     # of electrons  =    208.996628294
     EX              =   -215.823413952
     EC              =     -7.300317828
     EX+EC           =   -223.123731780
Transforming the Hamiltonian                       ... done (   0.1 sec)
Diagonalizing the Hamiltonian                      ... done (   0.1 sec)
Back transforming the eigenvectors                 ... done (   0.0 sec)
Now organizing SCF variables                       ... done
                      ------------------
                      INITIAL GUESS DONE (   1.1 sec)
                      ------------------
             **** ENERGY FILE WAS UPDATED (rf_mecn_1H2O_freq_TP_sw_04.en.tmp) ****
Finished Guess after   1.9 sec
Maximum memory used throughout the entire GUESS-calculation: 51.8 MB


           ************************************************************
           *        Program running with 20 parallel MPI-processes    *
           *              working on a common directory               *
           ************************************************************

-------------------------------------------------------------------------------------------
                                      ORCA LEAN-SCF
                              memory conserving SCF solver
-------------------------------------------------------------------------------------------

--------------------
CPCM SOLVATION MODEL
--------------------
CPCM parameters:
  Epsilon                                         ...      35.6880
  Refrac                                          ...       1.3442
  Rsolv                                           ...       1.3000
  Surface type                                    ... GAUSSIAN VDW
  Discretization scheme                           ... Constant charge density
    Threshold for H atoms                         ...       5.0000 (charges/Ang^2)
    Threshold for non-H atoms                     ...       5.0000 (charges/Ang^2)
  Epsilon function type                           ...         CPCM
Solvent:                                          ... ACETONITRILE
SMD-CDS solvent descriptors:
  Soln                                            ...       1.3442
  Soln25                                          ...       1.3416
  Sola                                            ...       0.0700
  Solb                                            ...       0.3200
  Solg                                            ...      41.2500
  Solc                                            ...       0.0000
  Solh                                            ...       0.0000
Radii:
  Scheme                                          ... Element-dependent radii
  Radius for C  used is    3.4960 Bohr (=   1.8500 Ang.)
  Radius for F  used is    3.2692 Bohr (=   1.7300 Ang.)
  Radius for O  used is    4.0969 Bohr (=   2.1680 Ang.)
  Radius for H  used is    2.2677 Bohr (=   1.2000 Ang.)
Calculating surface                               ...        done! (  0.0s)
Cavity surface points                             ...         2476
Cavity Volume                                     ...    2449.8897
Cavity Surface-area                               ...    1267.8355
Calculating surface distance matrix               ...        done! (  0.1s)
Performing Cholesky decomposition & store         ...        done! (  0.1s)
Overall time for CPCM initialization              ...                 0.2s

----------------------------------------D-I-I-S--------------------------------------------
Iteration    Energy (Eh)           Delta-E    RMSDP     MaxDP     DIISErr   Damp  Time(sec)
-------------------------------------------------------------------------------------------
               ***  Starting incremental Fock matrix formation  ***
    1    -2029.6424814272354524     0.00e+00  6.46e-04  9.22e-02  1.77e-01  0.850   8.0
Warning: op=0 Small HOMO/LUMO gap (   0.017) - skipping pre-diagonalization
         Will do a full diagonalization
    2    -2029.8913003024485988    -2.49e-01  7.76e-04  1.39e-01  1.16e-01  0.850   6.0
                               ***Turning on AO-DIIS***
    3    -2030.0008410264922531    -1.10e-01  6.02e-04  1.19e-01  7.08e-02  0.850   5.1
    4    -2030.0575973774843987    -5.68e-02  3.86e-04  8.79e-02  4.90e-02  0.850   4.9
    5    -2030.1023011413894892    -4.47e-02  2.80e-04  5.31e-02  3.67e-02  0.850   4.9
    6    -2030.1413559548796002    -3.91e-02  2.20e-04  3.17e-02  3.00e-02  0.850   4.8
    7    -2030.1756062967865546    -3.43e-02  1.79e-04  3.09e-02  2.63e-02  0.850   5.4
    8    -2030.2058810328549043    -3.03e-02  1.02e-03  1.86e-01  2.30e-02  0.000   5.4
    9    -2030.3817752882073364    -1.76e-01  1.09e-04  1.93e-02  1.14e-02  0.000   5.7
   10    -2030.3837983551434263    -2.02e-03  9.24e-05  2.08e-02  5.27e-03  0.000   5.4
   11    -2030.3846490774390077    -8.51e-04  8.77e-05  2.06e-02  1.58e-03  0.000   5.3
   12    -2030.3850199237581364    -3.71e-04  5.44e-05  1.15e-02  1.08e-03  0.000   5.3
   13    -2030.3851966123361308    -1.77e-04  4.17e-05  9.73e-03  1.03e-03  0.000   4.9
                              *** Initializing SOSCF ***
---------------------------------------S-O-S-C-F--------------------------------------
Iteration    Energy (Eh)           Delta-E    RMSDP     MaxDP     MaxGrad    Time(sec)
--------------------------------------------------------------------------------------
   14    -2030.3852820124034224    -8.54e-05  3.31e-05  8.14e-03  6.24e-04     5.5
               *** Restarting incremental Fock matrix formation ***
   15    -2030.3853184246440833    -3.64e-05  7.83e-05  1.84e-02  2.03e-03     8.8
   16    -2030.3853639533031128    -4.55e-05  4.82e-05  1.14e-02  3.67e-04     6.9
   17    -2030.3853660458939885    -2.09e-06  1.93e-05  4.19e-03  6.65e-04     7.0
   18    -2030.3853759151747909    -9.87e-06  1.13e-05  2.45e-03  3.22e-04     6.3
   19    -2030.3853753523394516     5.63e-07  6.83e-06  1.52e-03  2.51e-04     6.2
   20    -2030.3853777112794887    -2.36e-06  2.90e-06  6.21e-04  3.39e-05     5.8
   21    -2030.3853776423752606     6.89e-08  1.90e-06  4.11e-04  2.75e-05     5.3
   22    -2030.3853778841198618    -2.42e-07  6.50e-07  1.80e-04  6.43e-06     5.2
   23    -2030.3853778718607828     1.23e-08  1.40e-07  3.44e-05  1.07e-05     4.2
   24    -2030.3853778655216047     6.34e-09  1.38e-07  3.26e-05  1.02e-06     4.0
                 **** Energy Check signals convergence ****

               *****************************************************
               *                     SUCCESS                       *
               *           SCF CONVERGED AFTER  24 CYCLES          *
               *****************************************************

Recomputing exchange energy using gridx3       ... done (   10.151 sec)
Old exchange energy                            :    -21.817495035 Eh
New exchange energy                            :    -21.817546280 Eh
Exchange energy change after final integration :     -0.000051244 Eh
Total energy after final integration           :  -2030.385429110 Eh

SMD CDS free energy correction energy :                 3.19289     Kcal/mol
Total Energy after SMD CDS correction =             -2030.380340921 Eh
             **** ENERGY FILE WAS UPDATED (rf_mecn_1H2O_freq_TP_sw_04.en.tmp) ****

----------------
TOTAL SCF ENERGY
----------------

Total Energy       :      -2030.38034092120847 Eh          -55249.45790 eV

Components:
Nuclear Repulsion  :       2991.10556295267315 Eh           81392.12026 eV
Electronic Energy  :      -5021.26211768603025 Eh         -136635.48864 eV
One Electron Energy:      -8834.10990448940538 Eh         -240388.35161 eV
Two Electron Energy:       3812.84778680337467 Eh          103752.86297 eV
CPCM Dielectric    :         -0.22882313216371 Eh              -6.22659 eV
SMD CDS (Gcds)     :          0.00508818874837 Eh               0.13846 eV

Virial components:
Potential Energy   :      -4053.86670947316725 Eh         -110311.32128 eV
Kinetic Energy     :       2023.48636855195878 Eh           55061.86338 eV
Virial Ratio       :          2.00340697742095

DFT components:
N(Alpha)           :      105.999977262671 electrons
N(Beta)            :      104.999963184785 electrons
N(Total)           :      210.999940447457 electrons
E(X)               :     -198.319322693481 Eh       
E(C)               :       -7.403589429575 Eh       
E(XC)              :     -205.722912123055 Eh       

CPCM Solvation Model Properties:
Surface-charge          :          1.98906582620345
Corrected charge        :          2.00000000000000
Outlying charge corr.   :          0.00000613215150 Eh               0.00017 eV
Free-energy (cav+disp)  :          0.00508818874837 Eh               0.13846 eV

---------------
SCF CONVERGENCE
---------------

  Last Energy change         ...   -6.3392e-09  Tolerance :   1.0000e-08
  Last MAX-Density change    ...    3.2567e-05  Tolerance :   1.0000e-07
  Last RMS-Density change    ...    1.3822e-07  Tolerance :   5.0000e-09
  Last DIIS Error            ...    6.2361e-04  Tolerance :   5.0000e-07
  Last Orbital Gradient      ...    1.0231e-06  Tolerance :   1.0000e-05
  Last Orbital Rotation      ...    6.4407e-06  Tolerance :   1.0000e-05


----------------------
UHF SPIN CONTAMINATION
----------------------

Warning: in a DFT calculation there is little theoretical justification to 
         calculate <S**2> as in Hartree-Fock theory. We will do it anyways
         but you should keep in mind that the values have only limited relevance

Expectation value of <S**2>     :     0.754542
Ideal value S*(S+1) for S=0.5   :     0.750000
Deviation                       :     0.004542

----------------
ORBITAL ENERGIES
----------------
                 SPIN UP ORBITALS
  NO   OCC          E(Eh)            E(eV) 
   0   1.0000     -24.635748      -670.3728 
   1   1.0000     -24.635663      -670.3705 
   2   1.0000     -24.627405      -670.1458 
   3   1.0000     -24.616771      -669.8564 
   4   1.0000     -24.616724      -669.8551 
   5   1.0000     -24.615136      -669.8119 
   6   1.0000     -24.613015      -669.7542 
   7   1.0000     -24.610088      -669.6746 
   8   1.0000     -24.608610      -669.6343 
   9   1.0000     -24.602702      -669.4736 
  10   1.0000     -24.602082      -669.4567 
  11   1.0000     -24.601861      -669.4507 
  12   1.0000     -24.600784      -669.4214 
  13   1.0000     -24.600492      -669.4134 
  14   1.0000     -24.599722      -669.3925 
  15   1.0000     -19.007408      -517.2179 
  16   1.0000     -18.990195      -516.7495 
  17   1.0000     -18.985484      -516.6213 
  18   1.0000     -10.360706      -281.9291 
  19   1.0000     -10.291535      -280.0469 
  20   1.0000     -10.287396      -279.9343 
  21   1.0000     -10.282785      -279.8088 
  22   1.0000     -10.275481      -279.6100 
  23   1.0000     -10.272767      -279.5362 
  24   1.0000     -10.267070      -279.3812 
  25   1.0000     -10.187838      -277.2252 
  26   1.0000      -1.287871       -35.0448 
  27   1.0000      -1.243404       -33.8347 
  28   1.0000      -1.234623       -33.5958 
  29   1.0000      -1.224433       -33.3185 
  30   1.0000      -1.216710       -33.1084 
  31   1.0000      -1.213532       -33.0219 
  32   1.0000      -1.206822       -32.8393 
  33   1.0000      -1.203491       -32.7487 
  34   1.0000      -1.194955       -32.5164 
  35   1.0000      -1.183074       -32.1931 
  36   1.0000      -1.180905       -32.1341 
  37   1.0000      -1.172062       -31.8934 
  38   1.0000      -1.165172       -31.7059 
  39   1.0000      -1.162023       -31.6203 
  40   1.0000      -1.157963       -31.5098 
  41   1.0000      -0.996090       -27.1050 
  42   1.0000      -0.941816       -25.6281 
  43   1.0000      -0.912159       -24.8211 
  44   1.0000      -0.766798       -20.8656 
  45   1.0000      -0.760930       -20.7060 
  46   1.0000      -0.731443       -19.9036 
  47   1.0000      -0.700578       -19.0637 
  48   1.0000      -0.662089       -18.0164 
  49   1.0000      -0.630408       -17.1543 
  50   1.0000      -0.605968       -16.4892 
  51   1.0000      -0.577187       -15.7061 
  52   1.0000      -0.575360       -15.6563 
  53   1.0000      -0.574078       -15.6215 
  54   1.0000      -0.562629       -15.3099 
  55   1.0000      -0.555930       -15.1276 
  56   1.0000      -0.552556       -15.0358 
  57   1.0000      -0.541452       -14.7337 
  58   1.0000      -0.538479       -14.6528 
  59   1.0000      -0.529305       -14.4031 
  60   1.0000      -0.528287       -14.3754 
  61   1.0000      -0.523145       -14.2355 
  62   1.0000      -0.514186       -13.9917 
  63   1.0000      -0.508632       -13.8406 
  64   1.0000      -0.504126       -13.7180 
  65   1.0000      -0.495083       -13.4719 
  66   1.0000      -0.474634       -12.9155 
  67   1.0000      -0.447927       -12.1887 
  68   1.0000      -0.447731       -12.1834 
  69   1.0000      -0.442189       -12.0326 
  70   1.0000      -0.432650       -11.7730 
  71   1.0000      -0.428875       -11.6703 
  72   1.0000      -0.426995       -11.6191 
  73   1.0000      -0.423244       -11.5171 
  74   1.0000      -0.420392       -11.4394 
  75   1.0000      -0.417402       -11.3581 
  76   1.0000      -0.416774       -11.3410 
  77   1.0000      -0.414407       -11.2766 
  78   1.0000      -0.410803       -11.1785 
  79   1.0000      -0.407943       -11.1007 
  80   1.0000      -0.402207       -10.9446 
  81   1.0000      -0.400512       -10.8985 
  82   1.0000      -0.395066       -10.7503 
  83   1.0000      -0.390162       -10.6168 
  84   1.0000      -0.389688       -10.6040 
  85   1.0000      -0.388903       -10.5826 
  86   1.0000      -0.385328       -10.4853 
  87   1.0000      -0.379271       -10.3205 
  88   1.0000      -0.378322       -10.2947 
  89   1.0000      -0.375931       -10.2296 
  90   1.0000      -0.373582       -10.1657 
  91   1.0000      -0.372816       -10.1448 
  92   1.0000      -0.367629       -10.0037 
  93   1.0000      -0.367436        -9.9984 
  94   1.0000      -0.363555        -9.8928 
  95   1.0000      -0.360501        -9.8097 
  96   1.0000      -0.353792        -9.6272 
  97   1.0000      -0.344092        -9.3632 
  98   1.0000      -0.326717        -8.8904 
  99   1.0000      -0.321404        -8.7459 
 100   1.0000      -0.291429        -7.9302 
 101   1.0000      -0.254450        -6.9239 
 102   1.0000      -0.232292        -6.3210 
 103   1.0000      -0.220715        -6.0060 
 104   1.0000      -0.213921        -5.8211 
 105   1.0000      -0.070605        -1.9213 
 106   0.0000       0.011610         0.3159 
 107   0.0000       0.031870         0.8672 
 108   0.0000       0.045979         1.2512 
 109   0.0000       0.060041         1.6338 
 110   0.0000       0.067519         1.8373 
 111   0.0000       0.086840         2.3630 
 112   0.0000       0.108860         2.9622 
 113   0.0000       0.115677         3.1477 
 114   0.0000       0.121398         3.3034 
 115   0.0000       0.130611         3.5541 
 116   0.0000       0.144830         3.9410 

                 SPIN DOWN ORBITALS
  NO   OCC          E(Eh)            E(eV) 
   0   1.0000     -24.635728      -670.3723 
   1   1.0000     -24.635645      -670.3700 
   2   1.0000     -24.626213      -670.1133 
   3   1.0000     -24.616444      -669.8475 
   4   1.0000     -24.616392      -669.8461 
   5   1.0000     -24.615081      -669.8104 
   6   1.0000     -24.612891      -669.7508 
   7   1.0000     -24.609851      -669.6681 
   8   1.0000     -24.608347      -669.6272 
   9   1.0000     -24.602192      -669.4597 
  10   1.0000     -24.602038      -669.4555 
  11   1.0000     -24.601315      -669.4358 
  12   1.0000     -24.600705      -669.4192 
  13   1.0000     -24.600029      -669.4008 
  14   1.0000     -24.599213      -669.3786 
  15   1.0000     -19.007409      -517.2179 
  16   1.0000     -18.990005      -516.7443 
  17   1.0000     -18.985235      -516.6145 
  18   1.0000     -10.359076      -281.8848 
  19   1.0000     -10.289024      -279.9786 
  20   1.0000     -10.286128      -279.8998 
  21   1.0000     -10.280365      -279.7430 
  22   1.0000     -10.271702      -279.5072 
  23   1.0000     -10.269065      -279.4355 
  24   1.0000     -10.266487      -279.3653 
  25   1.0000     -10.187605      -277.2188 
  26   1.0000      -1.286948       -35.0196 
  27   1.0000      -1.242559       -33.8117 
  28   1.0000      -1.233289       -33.5595 
  29   1.0000      -1.223466       -33.2922 
  30   1.0000      -1.216428       -33.1007 
  31   1.0000      -1.212225       -32.9863 
  32   1.0000      -1.206680       -32.8354 
  33   1.0000      -1.202053       -32.7095 
  34   1.0000      -1.193157       -32.4674 
  35   1.0000      -1.182571       -32.1794 
  36   1.0000      -1.180156       -32.1137 
  37   1.0000      -1.171451       -31.8768 
  38   1.0000      -1.164192       -31.6793 
  39   1.0000      -1.161840       -31.6153 
  40   1.0000      -1.156945       -31.4821 
  41   1.0000      -0.995669       -27.0935 
  42   1.0000      -0.941804       -25.6278 
  43   1.0000      -0.911759       -24.8102 
  44   1.0000      -0.758813       -20.6484 
  45   1.0000      -0.754833       -20.5401 
  46   1.0000      -0.723838       -19.6966 
  47   1.0000      -0.694762       -18.9054 
  48   1.0000      -0.658535       -17.9196 
  49   1.0000      -0.628336       -17.0979 
  50   1.0000      -0.603940       -16.4340 
  51   1.0000      -0.576132       -15.6773 
  52   1.0000      -0.572294       -15.5729 
  53   1.0000      -0.570330       -15.5195 
  54   1.0000      -0.560586       -15.2543 
  55   1.0000      -0.552474       -15.0336 
  56   1.0000      -0.550886       -14.9904 
  57   1.0000      -0.539522       -14.6811 
  58   1.0000      -0.534633       -14.5481 
  59   1.0000      -0.527714       -14.3598 
  60   1.0000      -0.525173       -14.2907 
  61   1.0000      -0.521369       -14.1872 
  62   1.0000      -0.512940       -13.9578 
  63   1.0000      -0.504778       -13.7357 
  64   1.0000      -0.501154       -13.6371 
  65   1.0000      -0.493988       -13.4421 
  66   1.0000      -0.474565       -12.9136 
  67   1.0000      -0.447317       -12.1721 
  68   1.0000      -0.446001       -12.1363 
  69   1.0000      -0.441470       -12.0130 
  70   1.0000      -0.432207       -11.7609 
  71   1.0000      -0.428141       -11.6503 
  72   1.0000      -0.426565       -11.6074 
  73   1.0000      -0.422756       -11.5038 
  74   1.0000      -0.419486       -11.4148 
  75   1.0000      -0.416837       -11.3427 
  76   1.0000      -0.415763       -11.3135 
  77   1.0000      -0.413560       -11.2535 
  78   1.0000      -0.409781       -11.1507 
  79   1.0000      -0.407250       -11.0818 
  80   1.0000      -0.401232       -10.9181 
  81   1.0000      -0.399497       -10.8709 
  82   1.0000      -0.394413       -10.7325 
  83   1.0000      -0.389577       -10.6009 
  84   1.0000      -0.388837       -10.5808 
  85   1.0000      -0.388047       -10.5593 
  86   1.0000      -0.384529       -10.4636 
  87   1.0000      -0.378194       -10.2912 
  88   1.0000      -0.377892       -10.2830 
  89   1.0000      -0.375575       -10.2199 
  90   1.0000      -0.371990       -10.1224 
  91   1.0000      -0.368745       -10.0341 
  92   1.0000      -0.367252        -9.9934 
  93   1.0000      -0.365152        -9.9363 
  94   1.0000      -0.360582        -9.8119 
  95   1.0000      -0.359369        -9.7789 
  96   1.0000      -0.348258        -9.4766 
  97   1.0000      -0.339840        -9.2475 
  98   1.0000      -0.326341        -8.8802 
  99   1.0000      -0.318633        -8.6704 
 100   1.0000      -0.290518        -7.9054 
 101   1.0000      -0.254426        -6.9233 
 102   1.0000      -0.231233        -6.2922 
 103   1.0000      -0.220204        -5.9921 
 104   1.0000      -0.213423        -5.8075 
 105   0.0000      -0.015790        -0.4297 
 106   0.0000       0.021885         0.5955 
 107   0.0000       0.039485         1.0744 
 108   0.0000       0.053158         1.4465 
 109   0.0000       0.067474         1.8361 
 110   0.0000       0.071885         1.9561 
 111   0.0000       0.094112         2.5609 
 112   0.0000       0.113386         3.0854 
 113   0.0000       0.120935         3.2908 
 114   0.0000       0.122568         3.3353 
 115   0.0000       0.137942         3.7536 
*Only the first 10 virtual orbitals were printed.

                    ********************************
                    * MULLIKEN POPULATION ANALYSIS *
                    ********************************

--------------------------------------------
MULLIKEN ATOMIC CHARGES AND SPIN POPULATIONS
--------------------------------------------
   0 C :    0.379625    0.077567
   1 C :    0.255665    0.140843
   2 C :    0.202179    0.249765
   3 C :    0.218667    0.253557
   4 C :    0.249046    0.147794
   5 C :    0.238850    0.067764
   6 C :    0.310692    0.028732
   7 C :    0.211836    0.011645
   8 F :   -0.160205   -0.001384
   9 F :   -0.160687   -0.001395
  10 F :   -0.172456    0.013490
  11 F :   -0.197799    0.000510
  12 F :   -0.197472    0.000511
  13 F :   -0.222528    0.000723
  14 F :   -0.219885    0.000477
  15 F :   -0.223587    0.000076
  16 F :   -0.218107   -0.000276
  17 F :   -0.205345   -0.001349
  18 F :   -0.204119   -0.001021
  19 F :   -0.196446   -0.000835
  20 F :   -0.194854   -0.000175
  21 F :   -0.209249   -0.000140
  22 F :   -0.207247    0.000023
  23 O :   -0.479240    0.007573
  24 O :   -0.538472    0.005543
  25 O :   -0.745369   -0.000019
  26 H :    0.329354   -0.000003
  27 H :    0.357153    0.000006
Sum of atomic charges         :   -2.0000000
Sum of atomic spin populations:    1.0000000

-----------------------------------------------------
MULLIKEN REDUCED ORBITAL CHARGES AND SPIN POPULATIONS
-----------------------------------------------------
CHARGE
  0 C s       :     3.046986  s :     3.046986
      pz      :     0.645963  p :     2.192160
      px      :     0.692504
      py      :     0.853692
      dz2     :     0.069482  d :     0.342494
      dxz     :     0.079765
      dyz     :     0.065062
      dx2y2   :     0.065125
      dxy     :     0.063060
      f0      :     0.004934  f :     0.038735
      f+1     :     0.008515
      f-1     :     0.006145
      f+2     :     0.005529
      f-2     :     0.003993
      f+3     :     0.003320
      f-3     :     0.006299

  1 C s       :     3.106091  s :     3.106091
      pz      :     0.672800  p :     2.318590
      px      :     0.730924
      py      :     0.914867
      dz2     :     0.060161  d :     0.293130
      dxz     :     0.064351
      dyz     :     0.053414
      dx2y2   :     0.062374
      dxy     :     0.052829
      f0      :     0.004154  f :     0.026524
      f+1     :     0.006804
      f-1     :     0.004298
      f+2     :     0.002963
      f-2     :     0.001653
      f+3     :     0.002363
      f-3     :     0.004289

  2 C s       :     3.144231  s :     3.144231
      pz      :     0.664717  p :     2.325610
      px      :     0.752722
      py      :     0.908172
      dz2     :     0.058837  d :     0.302325
      dxz     :     0.060402
      dyz     :     0.058857
      dx2y2   :     0.072971
      dxy     :     0.051259
      f0      :     0.004181  f :     0.025656
      f+1     :     0.006236
      f-1     :     0.003819
      f+2     :     0.003104
      f-2     :     0.001888
      f+3     :     0.002186
      f-3     :     0.004241

  3 C s       :     3.137821  s :     3.137821
      pz      :     0.673155  p :     2.318469
      px      :     0.754617
      py      :     0.890697
      dz2     :     0.059088  d :     0.299349
      dxz     :     0.060218
      dyz     :     0.057633
      dx2y2   :     0.071093
      dxy     :     0.051316
      f0      :     0.004199  f :     0.025695
      f+1     :     0.006246
      f-1     :     0.003862
      f+2     :     0.003069
      f-2     :     0.001837
      f+3     :     0.002197
      f-3     :     0.004286

  4 C s       :     3.131077  s :     3.131077
      pz      :     0.669973  p :     2.298297
      px      :     0.718506
      py      :     0.909818
      dz2     :     0.057041  d :     0.295059
      dxz     :     0.065619
      dyz     :     0.056908
      dx2y2   :     0.062759
      dxy     :     0.052733
      f0      :     0.004315  f :     0.026521
      f+1     :     0.006438
      f-1     :     0.004362
      f+2     :     0.003128
      f-2     :     0.001501
      f+3     :     0.002246
      f-3     :     0.004532

  5 C s       :     3.148508  s :     3.148508
      pz      :     0.696759  p :     2.297320
      px      :     0.664636
      py      :     0.935925
      dz2     :     0.052785  d :     0.288109
      dxz     :     0.068183
      dyz     :     0.053046
      dx2y2   :     0.056711
      dxy     :     0.057384
      f0      :     0.005530  f :     0.027213
      f+1     :     0.004378
      f-1     :     0.003909
      f+2     :     0.004409
      f-2     :     0.001643
      f+3     :     0.002266
      f-3     :     0.005077

  6 C s       :     3.100064  s :     3.100064
      pz      :     0.698602  p :     2.300028
      px      :     0.609265
      py      :     0.992161
      dz2     :     0.046876  d :     0.262823
      dxz     :     0.060506
      dyz     :     0.049831
      dx2y2   :     0.050782
      dxy     :     0.054827
      f0      :     0.005524  f :     0.026394
      f+1     :     0.003484
      f-1     :     0.003312
      f+2     :     0.004408
      f-2     :     0.002441
      f+3     :     0.002685
      f-3     :     0.004539

  7 C s       :     3.043804  s :     3.043804
      pz      :     0.824395  p :     2.467741
      px      :     0.752950
      py      :     0.890396
      dz2     :     0.033417  d :     0.252311
      dxz     :     0.058215
      dyz     :     0.021778
      dx2y2   :     0.068925
      dxy     :     0.069975
      f0      :     0.001919  f :     0.024308
      f+1     :     0.003040
      f-1     :     0.001780
      f+2     :     0.004050
      f-2     :     0.002887
      f+3     :     0.006316
      f-3     :     0.004317

  8 F s       :     3.909307  s :     3.909307
      pz      :     1.488783  p :     5.234613
      px      :     1.889030
      py      :     1.856800
      dz2     :     0.007269  d :     0.015548
      dxz     :     0.002964
      dyz     :     0.004390
      dx2y2   :     0.000531
      dxy     :     0.000394
      f0      :     0.000295  f :     0.000737
      f+1     :     0.000130
      f-1     :     0.000229
      f+2     :     0.000044
      f-2     :     0.000035
      f+3     :     0.000002
      f-3     :     0.000003

  9 F s       :     3.909406  s :     3.909406
      pz      :     1.843859  p :     5.235014
      px      :     1.493580
      py      :     1.897575
      dz2     :     0.002006  d :     0.015531
      dxz     :     0.004409
      dyz     :     0.000478
      dx2y2   :     0.005460
      dxy     :     0.003178
      f0      :     0.000078  f :     0.000736
      f+1     :     0.000125
      f-1     :     0.000005
      f+2     :     0.000167
      f-2     :     0.000040
      f+3     :     0.000192
      f-3     :     0.000127

 10 F s       :     3.908321  s :     3.908321
      pz      :     1.781423  p :     5.248941
      px      :     1.785657
      py      :     1.681861
      dz2     :     0.001932  d :     0.014522
      dxz     :     0.002543
      dyz     :     0.003734
      dx2y2   :     0.002648
      dxy     :     0.003665
      f0      :     0.000079  f :     0.000672
      f+1     :     0.000053
      f-1     :     0.000081
      f+2     :     0.000078
      f-2     :     0.000192
      f+3     :     0.000103
      f-3     :     0.000086

 11 F s       :     3.913781  s :     3.913781
      pz      :     1.474483  p :     5.269207
      px      :     1.894681
      py      :     1.900043
      dz2     :     0.007222  d :     0.014183
      dxz     :     0.002748
      dyz     :     0.003615
      dx2y2   :     0.000390
      dxy     :     0.000208
      f0      :     0.000302  f :     0.000628
      f+1     :     0.000122
      f-1     :     0.000168
      f+2     :     0.000019
      f-2     :     0.000014
      f+3     :     0.000001
      f-3     :     0.000001

 12 F s       :     3.913886  s :     3.913886
      pz      :     1.856791  p :     5.268765
      px      :     1.498120
      py      :     1.913854
      dz2     :     0.001811  d :     0.014193
      dxz     :     0.003900
      dyz     :     0.000357
      dx2y2   :     0.005063
      dxy     :     0.003061
      f0      :     0.000066  f :     0.000628
      f+1     :     0.000104
      f-1     :     0.000005
      f+2     :     0.000139
      f-2     :     0.000031
      f+3     :     0.000169
      f-3     :     0.000114

 13 F s       :     3.915836  s :     3.915836
      pz      :     1.495279  p :     5.292698
      px      :     1.898384
      py      :     1.899035
      dz2     :     0.006604  d :     0.013412
      dxz     :     0.002571
      dyz     :     0.003546
      dx2y2   :     0.000459
      dxy     :     0.000233
      f0      :     0.000263  f :     0.000582
      f+1     :     0.000108
      f-1     :     0.000169
      f+2     :     0.000022
      f-2     :     0.000017
      f+3     :     0.000001
      f-3     :     0.000002

 14 F s       :     3.915691  s :     3.915691
      pz      :     1.856966  p :     5.290020
      px      :     1.512422
      py      :     1.920632
      dz2     :     0.001683  d :     0.013584
      dxz     :     0.003820
      dyz     :     0.000373
      dx2y2   :     0.004839
      dxy     :     0.002869
      f0      :     0.000063  f :     0.000590
      f+1     :     0.000095
      f-1     :     0.000004
      f+2     :     0.000136
      f-2     :     0.000030
      f+3     :     0.000161
      f-3     :     0.000101

 15 F s       :     3.915160  s :     3.915160
      pz      :     1.495873  p :     5.294482
      px      :     1.898451
      py      :     1.900158
      dz2     :     0.006594  d :     0.013365
      dxz     :     0.002550
      dyz     :     0.003524
      dx2y2   :     0.000463
      dxy     :     0.000234
      f0      :     0.000264  f :     0.000581
      f+1     :     0.000108
      f-1     :     0.000167
      f+2     :     0.000022
      f-2     :     0.000017
      f+3     :     0.000001
      f-3     :     0.000002

 16 F s       :     3.914479  s :     3.914479
      pz      :     1.857950  p :     5.289342
      px      :     1.511444
      py      :     1.919948
      dz2     :     0.001711  d :     0.013688
      dxz     :     0.003806
      dyz     :     0.000374
      dx2y2   :     0.004902
      dxy     :     0.002895
      f0      :     0.000064  f :     0.000598
      f+1     :     0.000097
      f-1     :     0.000005
      f+2     :     0.000136
      f-2     :     0.000030
      f+3     :     0.000163
      f-3     :     0.000104

 17 F s       :     3.914490  s :     3.914490
      pz      :     1.476828  p :     5.276085
      px      :     1.894266
      py      :     1.904990
      dz2     :     0.007195  d :     0.014145
      dxz     :     0.002775
      dyz     :     0.003579
      dx2y2   :     0.000396
      dxy     :     0.000200
      f0      :     0.000301  f :     0.000625
      f+1     :     0.000125
      f-1     :     0.000164
      f+2     :     0.000019
      f-2     :     0.000013
      f+3     :     0.000001
      f-3     :     0.000002

 18 F s       :     3.913532  s :     3.913532
      pz      :     1.867494  p :     5.275756
      px      :     1.490509
      py      :     1.917753
      dz2     :     0.001850  d :     0.014200
      dxz     :     0.003630
      dyz     :     0.000325
      dx2y2   :     0.005295
      dxy     :     0.003101
      f0      :     0.000063  f :     0.000631
      f+1     :     0.000107
      f-1     :     0.000006
      f+2     :     0.000130
      f-2     :     0.000023
      f+3     :     0.000184
      f-3     :     0.000117

 19 F s       :     3.914716  s :     3.914716
      pz      :     1.506100  p :     5.266404
      px      :     1.875570
      py      :     1.884734
      dz2     :     0.006413  d :     0.014670
      dxz     :     0.003247
      dyz     :     0.003953
      dx2y2   :     0.000597
      dxy     :     0.000459
      f0      :     0.000231  f :     0.000656
      f+1     :     0.000154
      f-1     :     0.000177
      f+2     :     0.000043
      f-2     :     0.000043
      f+3     :     0.000003
      f-3     :     0.000004

 20 F s       :     3.914619  s :     3.914619
      pz      :     1.894020  p :     5.264965
      px      :     1.457155
      py      :     1.913790
      dz2     :     0.002107  d :     0.014613
      dxz     :     0.002979
      dyz     :     0.000137
      dx2y2   :     0.005949
      dxy     :     0.003442
      f0      :     0.000053  f :     0.000656
      f+1     :     0.000131
      f-1     :     0.000010
      f+2     :     0.000092
      f-2     :     0.000005
      f+3     :     0.000223
      f-3     :     0.000141

 21 F s       :     3.914554  s :     3.914554
      pz      :     1.542698  p :     5.279765
      px      :     1.828024
      py      :     1.909044
      dz2     :     0.005324  d :     0.014284
      dxz     :     0.004331
      dyz     :     0.003056
      dx2y2   :     0.000809
      dxy     :     0.000764
      f0      :     0.000167  f :     0.000646
      f+1     :     0.000226
      f-1     :     0.000106
      f+2     :     0.000071
      f-2     :     0.000062
      f+3     :     0.000009
      f-3     :     0.000006

 22 F s       :     3.910761  s :     3.910761
      pz      :     1.888650  p :     5.281520
      px      :     1.482045
      py      :     1.910826
      dz2     :     0.001928  d :     0.014320
      dxz     :     0.002971
      dyz     :     0.000261
      dx2y2   :     0.005588
      dxy     :     0.003572
      f0      :     0.000051  f :     0.000646
      f+1     :     0.000122
      f-1     :     0.000010
      f+2     :     0.000094
      f-2     :     0.000015
      f+3     :     0.000207
      f-3     :     0.000147

 23 O s       :     3.790982  s :     3.790982
      pz      :     1.474438  p :     4.658878
      px      :     1.530240
      py      :     1.654200
      dz2     :     0.005389  d :     0.027586
      dxz     :     0.006670
      dyz     :     0.003348
      dx2y2   :     0.005495
      dxy     :     0.006683
      f0      :     0.000113  f :     0.001794
      f+1     :     0.000369
      f-1     :     0.000117
      f+2     :     0.000257
      f-2     :     0.000326
      f+3     :     0.000300
      f-3     :     0.000312

 24 O s       :     3.823500  s :     3.823500
      pz      :     1.590188  p :     4.688447
      px      :     1.363475
      py      :     1.734785
      dz2     :     0.002655  d :     0.024794
      dxz     :     0.006661
      dyz     :     0.001548
      dx2y2   :     0.006949
      dxy     :     0.006981
      f0      :     0.000172  f :     0.001730
      f+1     :     0.000249
      f-1     :     0.000041
      f+2     :     0.000246
      f-2     :     0.000173
      f+3     :     0.000445
      f-3     :     0.000404

 25 O s       :     3.805992  s :     3.805992
      pz      :     1.653139  p :     4.918103
      px      :     1.328380
      py      :     1.936584
      dz2     :     0.002104  d :     0.019967
      dxz     :     0.012350
      dyz     :     0.002565
      dx2y2   :     0.001932
      dxy     :     0.001016
      f0      :     0.000075  f :     0.001307
      f+1     :     0.000068
      f-1     :     0.000044
      f+2     :     0.000539
      f-2     :     0.000122
      f+3     :     0.000301
      f-3     :     0.000158

 26 H s       :     0.625656  s :     0.625656
      pz      :     0.014397  p :     0.044991
      px      :     0.014637
      py      :     0.015957

 27 H s       :     0.589447  s :     0.589447
      pz      :     0.016659  p :     0.053401
      px      :     0.022705
      py      :     0.014037


SPIN
  0 C s       :     0.018861  s :     0.018861
      pz      :     0.016761  p :     0.048618
      px      :     0.034680
      py      :    -0.002823
      dz2     :     0.000903  d :     0.009854
      dxz     :     0.000076
      dyz     :     0.003066
      dx2y2   :     0.003766
      dxy     :     0.002043
      f0      :    -0.000019  f :     0.000234
      f+1     :     0.000010
      f-1     :    -0.000004
      f+2     :     0.000012
      f-2     :     0.000079
      f+3     :    -0.000011
      f-3     :     0.000168

  1 C s       :    -0.020041  s :    -0.020041
      pz      :     0.055789  p :     0.130741
      px      :     0.089357
      py      :    -0.014406
      dz2     :     0.005995  d :     0.030418
      dxz     :     0.001091
      dyz     :     0.002087
      dx2y2   :     0.021587
      dxy     :    -0.000342
      f0      :    -0.000053  f :    -0.000275
      f+1     :    -0.000041
      f-1     :    -0.000001
      f+2     :    -0.000048
      f-2     :     0.000024
      f+3     :    -0.000181
      f-3     :     0.000025

  2 C s       :    -0.013856  s :    -0.013856
      pz      :     0.072735  p :     0.220300
      px      :     0.150272
      py      :    -0.002708
      dz2     :     0.007315  d :     0.043955
      dxz     :     0.001212
      dyz     :     0.006694
      dx2y2   :     0.028407
      dxy     :     0.000326
      f0      :    -0.000037  f :    -0.000634
      f+1     :    -0.000062
      f-1     :    -0.000058
      f+2     :    -0.000140
      f-2     :    -0.000047
      f+3     :    -0.000203
      f-3     :    -0.000087

  3 C s       :    -0.018305  s :    -0.018305
      pz      :     0.080415  p :     0.231182
      px      :     0.152870
      py      :    -0.002103
      dz2     :     0.007085  d :     0.041297
      dxz     :     0.001262
      dyz     :     0.006058
      dx2y2   :     0.026491
      dxy     :     0.000401
      f0      :    -0.000040  f :    -0.000618
      f+1     :    -0.000057
      f-1     :    -0.000057
      f+2     :    -0.000146
      f-2     :    -0.000047
      f+3     :    -0.000193
      f-3     :    -0.000078

  4 C s       :    -0.025920  s :    -0.025920
      pz      :     0.065060  p :     0.146545
      px      :     0.094052
      py      :    -0.012567
      dz2     :     0.005584  d :     0.027445
      dxz     :     0.001107
      dyz     :     0.001569
      dx2y2   :     0.019431
      dxy     :    -0.000246
      f0      :    -0.000055  f :    -0.000276
      f+1     :    -0.000041
      f-1     :    -0.000011
      f+2     :    -0.000074
      f-2     :     0.000027
      f+3     :    -0.000149
      f-3     :     0.000027

  5 C s       :    -0.010912  s :    -0.010912
      pz      :     0.020641  p :     0.064772
      px      :     0.035834
      py      :     0.008296
      dz2     :     0.001299  d :     0.013929
      dxz     :     0.000283
      dyz     :     0.003036
      dx2y2   :     0.008707
      dxy     :     0.000605
      f0      :     0.000004  f :    -0.000025
      f+1     :    -0.000031
      f-1     :    -0.000021
      f+2     :    -0.000029
      f-2     :     0.000010
      f+3     :    -0.000009
      f-3     :     0.000051

  6 C s       :    -0.004277  s :    -0.004277
      pz      :     0.015365  p :     0.026684
      px      :     0.009908
      py      :     0.001411
      dz2     :     0.000925  d :     0.006282
      dxz     :     0.000297
      dyz     :     0.000404
      dx2y2   :     0.004591
      dxy     :     0.000067
      f0      :    -0.000010  f :     0.000043
      f+1     :     0.000008
      f-1     :     0.000008
      f+2     :    -0.000010
      f-2     :     0.000032
      f+3     :    -0.000014
      f-3     :     0.000029

  7 C s       :     0.003531  s :     0.003531
      pz      :     0.006878  p :     0.007005
      px      :     0.000499
      py      :    -0.000372
[...]
 25:    222.04   0.002122   10.72  0.002982  (-0.031520 -0.034421 -0.028351)
 26:    230.03   0.020642  104.32  0.028003  ( 0.001046 -0.165137 -0.027047)
 27:    236.61   0.000121    0.61  0.000159  (-0.011374  0.005465 -0.000450)
 28:    243.50   0.000133    0.67  0.000170  ( 0.010056 -0.007761  0.002942)
 29:    252.02   0.000246    1.25  0.000305  ( 0.012918  0.009635  0.006747)
 30:    264.37   0.002014   10.18  0.002378  (-0.044022 -0.005604 -0.020204)
 31:    309.01   0.001422    7.18  0.001436  (-0.001873  0.037574  0.004516)
 32:    314.66   0.003319   16.78  0.003292  ( 0.005251 -0.056607 -0.007755)
 33:    317.01   0.013102   66.21  0.012897  ( 0.000605  0.111127  0.023399)
 34:    323.21   0.000069    0.35  0.000067  ( 0.005265  0.005943 -0.002002)
 35:    330.02   0.003699   18.69  0.003498  (-0.002024  0.056099  0.018614)
 36:    339.17   0.008086   40.86  0.007439  ( 0.006873 -0.084785 -0.014273)
 37:    354.27   0.000050    0.25  0.000044  ( 0.006515  0.000427  0.001260)
 38:    360.42   0.000302    1.52  0.000261  (-0.003482 -0.006863 -0.014208)
 39:    366.96   0.001944    9.82  0.001653  (-0.025868 -0.025296 -0.018546)
 40:    411.28   0.001244    6.28  0.000944  ( 0.030643 -0.002063 -0.000524)
 41:    427.56   0.015848   80.09  0.011567  (-0.107416  0.000023 -0.005350)
 42:    457.30   0.001202    6.08  0.000820  (-0.024952 -0.014019  0.001094)
 43:    463.19   0.001066    5.39  0.000718  ( 0.018146 -0.012343  0.015385)
 44:    499.70   0.004142   20.93  0.002586  ( 0.003184 -0.048346 -0.015460)
 45:    508.13   0.000144    0.73  0.000088  ( 0.007520  0.003449 -0.004476)
 46:    524.07   0.003091   15.62  0.001841  ( 0.013262  0.034461 -0.021845)
 47:    542.87   0.000426    2.15  0.000245  (-0.012441 -0.007724 -0.005495)
 48:    555.83   0.005047   25.50  0.002833  (-0.013067  0.044168  0.026682)
 49:    567.91   0.003070   15.51  0.001687  ( 0.009888  0.038187 -0.011437)
 50:    583.70   0.000886    4.48  0.000474  ( 0.005853  0.019802  0.006894)
 51:    593.91   0.001680    8.49  0.000883  (-0.006620 -0.028671 -0.004130)
 52:    609.51   0.025520  128.97  0.013066  (-0.010559  0.110974  0.025283)
 53:    626.71   0.068072  344.01  0.033896  (-0.002959 -0.181897 -0.028290)
 54:    662.73   0.068671  347.03  0.032335  (-0.009439  0.174976  0.040370)
 55:    668.09   0.001711    8.65  0.000799  ( 0.002113  0.027866 -0.004284)
 56:    703.32   0.015724   79.46  0.006977  ( 0.000429  0.081647  0.017623)
 57:    729.49   0.023823  120.39  0.010191  (-0.021408  0.092816  0.033439)
 58:    739.74   0.019976  100.95  0.008427  ( 0.000834 -0.083403 -0.038340)
 59:    792.22   0.024589  124.26  0.009686  ( 0.023761  0.090135 -0.031572)
 60:    809.01   0.044012  222.42  0.016977  (-0.006589  0.129579  0.011961)
 61:    863.35   0.034290  173.29  0.012394  ( 0.010610 -0.107031 -0.028746)
 62:    873.39   0.000315    1.59  0.000113  (-0.003592 -0.009514 -0.003025)
 63:    944.06   0.097516  492.81  0.032234  ( 0.010459 -0.173068  0.046609)
 64:    948.73   0.005183   26.19  0.001705  (-0.005679 -0.028458 -0.029374)
 65:    972.65   0.137567  695.21  0.044137  (-0.055063 -0.201860 -0.018906)
 66:    998.29   0.098677  498.67  0.030846  (-0.077440  0.124673  0.096467)
 67:   1003.89   0.121979  616.43  0.037918  (-0.077481  0.143936  0.105816)
 68:   1006.41   0.026526  134.05  0.008225  ( 0.068960 -0.027688  0.051988)
 69:   1022.71   0.106305  537.22  0.032438  (-0.088810 -0.002910 -0.156659)
 70:   1026.26   0.224472  1134.39  0.068257  (-0.122613  0.191630  0.128458)
 71:   1056.18   0.083357  421.25  0.024629  (-0.078811 -0.124651 -0.053663)
 72:   1067.93   0.082150  415.15  0.024006  (-0.153198  0.016980 -0.015733)
 73:   1079.31   0.111223  562.07  0.032158  ( 0.085914 -0.075462  0.138139)
 74:   1092.27   0.061516  310.88  0.017575  (-0.071206  0.063870  0.091791)
 75:   1119.35   0.091944  464.65  0.025633  (-0.006799 -0.159956 -0.000946)
 76:   1128.03   0.111500  563.47  0.030846  (-0.104985  0.022642 -0.138965)
 77:   1137.30   0.250448  1265.66  0.068720  (-0.048599 -0.256556 -0.023176)
 78:   1244.39   0.171504  866.71  0.043009  ( 0.043365  0.202702  0.006368)
 79:   1350.84   0.144780  731.66  0.033446  (-0.036805 -0.177865 -0.021345)
 80:   1669.54   0.018598   93.99  0.003476  (-0.004024  0.020940 -0.054969)
 81:   1689.57   0.193104  975.87  0.035666  ( 0.171555 -0.030043  0.073024)
 82:   3351.38   0.258725  1307.49  0.024091  ( 0.132290  0.022286  0.078062)
 83:   3791.39   0.013273   67.07  0.001092  ( 0.031970  0.007819 -0.003041)

* The epsilon (eps) is given for a Dirac delta lineshape.
** The dipole moment derivative (T) already includes vibrational overlap.

The first frequency considered to be a vibration is 6
The total number of vibrations considered is 78


--------------------------
THERMOCHEMISTRY AT 298.15K
--------------------------

Temperature         ...   298.15 K
Pressure            ...     1.00 atm
Total Mass          ...   431.07 AMU
Quasi RRHO          ...     True
Cut-Off Frequency   ...     1.00 cm^-1

Throughout the following assumptions are being made:
  (1) The electronic state is orbitally nondegenerate
      but the spin degeneracy is treated
  (2) There are no thermally accessible electronically excited states
  (3) Hindered rotations indicated by low frequency modes are not
      treated as such but are treated as vibrations and this may
      cause some error
  (4) All equations used are the standard statistical mechanics
      equations for an ideal gas
  (5) All vibrations are strictly harmonic

freq.      20.40  E(vib)   ...       0.56 
freq.      30.36  E(vib)   ...       0.55 
freq.      31.97  E(vib)   ...       0.55 
freq.      37.40  E(vib)   ...       0.54 
freq.      46.40  E(vib)   ...       0.53 
freq.      48.58  E(vib)   ...       0.53 
freq.      54.60  E(vib)   ...       0.52 
freq.      60.54  E(vib)   ...       0.51 
freq.      65.58  E(vib)   ...       0.50 
freq.      70.20  E(vib)   ...       0.50 
freq.      78.67  E(vib)   ...       0.49 
freq.      93.02  E(vib)   ...       0.47 
freq.      99.59  E(vib)   ...       0.46 
freq.     129.07  E(vib)   ...       0.43 
freq.     153.95  E(vib)   ...       0.40 
freq.     176.59  E(vib)   ...       0.38 
freq.     189.02  E(vib)   ...       0.36 
freq.     195.43  E(vib)   ...       0.36 
freq.     204.30  E(vib)   ...       0.35 
freq.     222.04  E(vib)   ...       0.33 
freq.     230.03  E(vib)   ...       0.32 
freq.     236.61  E(vib)   ...       0.32 
freq.     243.50  E(vib)   ...       0.31 
freq.     252.02  E(vib)   ...       0.30 
freq.     264.37  E(vib)   ...       0.29 
freq.     309.01  E(vib)   ...       0.26 
freq.     314.66  E(vib)   ...       0.25 
freq.     317.01  E(vib)   ...       0.25 
freq.     323.21  E(vib)   ...       0.25 
freq.     330.02  E(vib)   ...       0.24 
freq.     339.17  E(vib)   ...       0.23 
freq.     354.27  E(vib)   ...       0.22 
freq.     360.42  E(vib)   ...       0.22 
freq.     366.96  E(vib)   ...       0.22 
freq.     411.28  E(vib)   ...       0.19 
freq.     427.56  E(vib)   ...       0.18 
freq.     457.30  E(vib)   ...       0.16 
freq.     463.19  E(vib)   ...       0.16 
freq.     499.70  E(vib)   ...       0.14 
freq.     508.13  E(vib)   ...       0.14 
freq.     524.07  E(vib)   ...       0.13 
freq.     542.87  E(vib)   ...       0.12 
freq.     555.83  E(vib)   ...       0.12 
freq.     567.91  E(vib)   ...       0.11 
freq.     583.70  E(vib)   ...       0.11 
freq.     593.91  E(vib)   ...       0.10 
freq.     609.51  E(vib)   ...       0.10 
freq.     626.71  E(vib)   ...       0.09 
freq.     662.73  E(vib)   ...       0.08 
freq.     668.09  E(vib)   ...       0.08 
freq.     703.32  E(vib)   ...       0.07 
freq.     729.49  E(vib)   ...       0.06 
freq.     739.74  E(vib)   ...       0.06 
freq.     792.22  E(vib)   ...       0.05 
freq.     809.01  E(vib)   ...       0.05 
freq.     863.35  E(vib)   ...       0.04 
freq.     873.39  E(vib)   ...       0.04 
freq.     944.06  E(vib)   ...       0.03 
freq.     948.73  E(vib)   ...       0.03 
freq.     972.65  E(vib)   ...       0.03 
freq.     998.29  E(vib)   ...       0.02 
freq.    1003.89  E(vib)   ...       0.02 
freq.    1006.41  E(vib)   ...       0.02 
freq.    1022.71  E(vib)   ...       0.02 
freq.    1026.26  E(vib)   ...       0.02 
freq.    1056.18  E(vib)   ...       0.02 
freq.    1067.93  E(vib)   ...       0.02 
freq.    1079.31  E(vib)   ...       0.02 
freq.    1092.27  E(vib)   ...       0.02 
freq.    1119.35  E(vib)   ...       0.01 
freq.    1128.03  E(vib)   ...       0.01 
freq.    1137.30  E(vib)   ...       0.01 
freq.    1244.39  E(vib)   ...       0.01 
freq.    1350.84  E(vib)   ...       0.01 
freq.    1669.54  E(vib)   ...       0.00 
freq.    1689.57  E(vib)   ...       0.00 
freq.    3351.38  E(vib)   ...       0.00 
freq.    3791.39  E(vib)   ...       0.00 

------------
INNER ENERGY
------------

The inner energy is: U= E(el) + E(ZPE) + E(vib) + E(rot) + E(trans)
    E(el)   - is the total energy from the electronic structure calculation
              = E(kin-el) + E(nuc-el) + E(el-el) + E(nuc-nuc)
    E(ZPE)  - the the zero temperature vibrational energy from the frequency calculation
    E(vib)  - the the finite temperature correction to E(ZPE) due to population
              of excited vibrational states
    E(rot)  - is the rotational thermal energy
    E(trans)- is the translational thermal energy

Summary of contributions to the inner energy U:
Electronic energy                ...  -2030.41193575 Eh
Zero point energy                ...      0.11200027 Eh      70.28 kcal/mol
Thermal vibrational correction   ...      0.02499365 Eh      15.68 kcal/mol
Thermal rotational correction    ...      0.00141627 Eh       0.89 kcal/mol
Thermal translational correction ...      0.00141627 Eh       0.89 kcal/mol
-----------------------------------------------------------------------
Total thermal energy                  -2030.27210929 Eh


Summary of corrections to the electronic energy:
(perhaps to be used in another calculation)
Total thermal correction                  0.02782620 Eh      17.46 kcal/mol
Non-thermal (ZPE) correction              0.11200027 Eh      70.28 kcal/mol
-----------------------------------------------------------------------
Total correction                          0.13982647 Eh      87.74 kcal/mol


--------
ENTHALPY
--------

The enthalpy is H = U + kB*T
                kB is Boltzmann's constant
Total thermal energy              ...  -2030.27210929 Eh 
Thermal Enthalpy correction       ...      0.00094421 Eh       0.59 kcal/mol
-----------------------------------------------------------------------
Total Enthalpy                    ...  -2030.27116508 Eh


Note: Only C1 symmetry has been detected, increase convergence thresholds 
      if your molecule has a higher symmetry. Symmetry factor of 1.0 is   
      used for the rotational entropy correction. 
 

Note: Rotational entropy computed according to Herzberg 
Infrared and Raman Spectra, Chapter V,1, Van Nostrand Reinhold, 1945 
Point Group:  C1, Symmetry Number:   1  
Rotational constants in cm-1:     0.017106     0.003042     0.002938 

Vibrational entropy computed according to the QRRHO of S. Grimme
Chem.Eur.J. 2012 18 9955 using a reference frequency of 100.0 cm-1


-------
ENTROPY
-------

The entropy contributions are T*S = T*(S(el)+S(vib)+S(rot)+S(trans))
     S(el)   - electronic entropy
     S(vib)  - vibrational entropy
     S(rot)  - rotational entropy
     S(trans)- translational entropy
The entropies will be listed as multiplied by the temperature to get
units of energy

Electronic entropy                ...      0.00065446 Eh      0.41 kcal/mol
Vibrational entropy               ...      0.04548410 Eh     28.54 kcal/mol
Rotational entropy                ...      0.01691962 Eh     10.62 kcal/mol
Translational entropy             ...      0.02094056 Eh     13.14 kcal/mol
-----------------------------------------------------------------------
Final entropy term                ...      0.08399874 Eh     52.71 kcal/mol

In case the symmetry of your molecule has not been determined correctly
or in case you have a reason to use a different symmetry number we print 
out the resulting rotational entropy values for sn=1,12:

 non-linear molecules -----------------------------------
|  sn= 1 | S(rot)=       0.01691962 Eh     10.62 kcal/mol|
|  sn= 2 | S(rot)=       0.01626517 Eh     10.21 kcal/mol|
|  sn= 3 | S(rot)=       0.01588233 Eh      9.97 kcal/mol|
|  sn= 4 | S(rot)=       0.01561071 Eh      9.80 kcal/mol|
|  sn= 5 | S(rot)=       0.01540002 Eh      9.66 kcal/mol|
|  sn= 6 | S(rot)=       0.01522788 Eh      9.56 kcal/mol|
|  sn= 7 | S(rot)=       0.01508233 Eh      9.46 kcal/mol|
|  sn= 8 | S(rot)=       0.01495625 Eh      9.39 kcal/mol|
|  sn= 9 | S(rot)=       0.01484504 Eh      9.32 kcal/mol|
|  sn=10 | S(rot)=       0.01474557 Eh      9.25 kcal/mol|
|  sn=11 | S(rot)=       0.01465558 Eh      9.20 kcal/mol|
|  sn=12 | S(rot)=       0.01457342 Eh      9.14 kcal/mol|
 linear molecules ---------------------------------------
|  Dinfh | S(rot)=       0.01083037 Eh      6.80 kcal/mol|
|  Cinfv | S(rot)=       0.01148483 Eh      7.21 kcal/mol|
 --------------------------------------------------------


-------------------
GIBBS FREE ENERGY
-------------------

The Gibbs free energy is G = H - T*S

Total enthalpy                    ...  -2030.27116508 Eh 
Total entropy correction          ...     -0.08399874 Eh    -52.71 kcal/mol
-----------------------------------------------------------------------
Final Gibbs free energy         ...  -2030.35516382 Eh

For completeness - the Gibbs free energy minus the electronic energy
G-E(el)                           ...      0.05677193 Eh     35.62 kcal/mol


Maximum memory used throughout the entire PROP-calculation: 653.8 MB

--------------------------------
SUGGESTED CITATIONS FOR THIS RUN
--------------------------------

Below you find a list of papers that are relevant to this ORCA run
We neither can nor want to force you to cite these papers, but we appreciate if you do
You receive ORCA, which is the product of decades of hard work by many enthusiastic individuals, for free
The only thing we kindly ask in return is that you cite our papers,
We deeply appreciate it, if you show your appreciation for ORCA by not just citing the generic ORCA reference.

Please note that relegating all ORCA citations to the supporting information does *not* help us.
SI sections are not indexed - citations you put there will not count into any citation statistics
But we need these citations in order to attract the funding resources that allow us to do what we are doing

Therefore, if you are a happy ORCA user, please consider citing a few of the papers listed below in the main body of your paper

In addition to the list printed below, the program has created the file rf_mecn_1H2O_freq_TP_sw_04.bibtex that contains the list in bibtex format
You can import this file easily into all common literature databanks and citation aid programs


List of essential papers. We consider these as the minimum necessary citations

  1. Neese,F.
     Software update: the ORCA program system, version 5.0
     WIRES Comput. Molec. Sci., 2022 12(1)e1606
     doi.org/10.1002/wcms.1606

List of papers to cite with high priority. The work reported in these papers was absolutely
necessary for this run to complete.
Our perspective: the developers of density functionals and basis sets usually get cited in chemistry papers
Good! But without the algorithms to do something with them, the functionals or basis sets would not do anything.
Hence, in our opinion, the algorithm design and method developments papers are equally worthy of getting cited

  1. Neese,F.
     An improvement of the resolution of the identity approximation for the formation of the Coulomb matrix
     J. Comp. Chem., 2003 24(14)1740-1747
     doi.org/10.1002/jcc.10318
  2. Neese,F.; Wennmohs,F.; Hansen,A.; Becker,U.
     Efficient, approximate and parallel Hartree-Fock and hybrid DFT calculations. A 'chain-of-spheres' algorithm for the Hartree-Fock exchange
     Chem. Phys., 2009 356(1-3)98-109
     doi.org/10.1016/j.chemphys.2008.10.036
  3. Bykov,D.; Petrenko,T.; Izsak,R.; Kossmann,S.; Becker,U.; Valeev,E.; Neese,F.
     Efficient implementation of the analytic second derivatives of Hartree-Fock and hybrid DFT energies: a detailed analysis of different approximations
     Molec. Phys., 2015 113 1961-1977
     doi.org/10.1080/00268976.2015.1025114
  4. Garcia-Rates,M.; Neese,F.
     Efficient implementation of the analytical second derivatives of hartree-fock and hybrid DFT energies within the framework of the conductor-like polarizable continuum model
     J. Comput. Chem., 2019 40 1816-1828
     doi.org/10.1002/jcc.25833
  5. Garcia-Rates,M.; Neese,F.
     Effect of the Solute Cavity on the Solvation Energy and its Derivatives within the Framework of the Gaussian Charge Scheme
     J. Comput. Chem., 2020 41 922-939
     doi.org/10.1002/jcc.26139
  6. Helmich-Paris,B.; de Souza,B.; Neese,F.; Izsák,R.
     An improved chain of spheres for exchange algorithm
     J. Chem. Phys., 2021 155 104109
     doi.org/doi: 10.1063/5.0058766.
  7. Neese,F.
     The SHARK Integral Generation and Digestion System
     J. Comp. Chem., 2022  1-16
     doi.org/10.1002/jcc.26942
  8. Grimme,S.; Antony,J.; Ehrlich,S.; Krieg,H.
     A consistent and accurate ab initio parametrization of density functional dispersion correction (DFT-D) for the 94 elements H-Pu
     J. Chem. Phys., 2010 132 154104
     doi.org/10.1063/1.3382344
  9. Grimme,S.; Ehrlich,S.; Goerigk,L.
     Effect of the damping function in dispersion corrected density functional theory
     J. Comput. Chem., 2011 32(7)1456-1465
     doi.org/10.1002/jcc.21759

List of suggested additional citations. These are papers that are important in the 'surrounding' of 
of this run, or papers that preceded the highly important papers. If you like your results we are grateful for a citation.

  1. Izsak,R.; Neese,F.
     An overlap fitted chain of spheres exchange method
     J. Chem. Phys., 2011 135 144105
     doi.org/10.1063/1.3646921
  2. Izsak,R.; Hansen,A.; Neese,F.
     The resolution of identity and chain of spheres approximations for the LPNO-CCSD singles Fock term
     Molec. Phys., 2012 110 2413-2417
     doi.org/10.1080/00268976.2012.687466
  3. Neese,F.
     The ORCA program system
     WIRES Comput. Molec. Sci., 2012 2(1)73-78
     doi.org/10.1002/wcms.81
  4. Izsak,R.; Neese,F.; Klopper,W.
     Robust fitting techniques in the chain of spheres approximation to the Fock exchange: The role of the complementary space
     J. Chem. Phys., 2013 139 
     doi.org/10.1063/1.4819264
  5. Neese,F.
     Software update: the ORCA program system, version 4.0
     WIRES Comput. Molec. Sci., 2018 8(1)1-6
     doi.org/10.1002/wcms.1327
  6. Neese,F.; Wennmohs,F.; Becker,U.; Riplinger,C.
     The ORCA quantum chemistry program package
     J. Chem. Phys., 2020 152 Art. No. L224108
     doi.org/10.1063/5.0004608

List of optional additional citations

  1. Neese,F.
     Approximate second-order SCF convergence for spin unrestricted wavefunctions
     Chem. Phys. Lett., 2000 325(1-3)93-98
     doi.org/10.1016/s0009-2614(00)00662-x

Timings for individual modules:

Sum of individual times          ...     1834.522 sec (=  30.575 min)
Startup calculation              ...        3.894 sec (=   0.065 min)   0.2 %
SCF iterations                   ...      152.896 sec (=   2.548 min)   8.3 %
Property integrals               ...      483.724 sec (=   8.062 min)  26.4 %
SCF Response                     ...      942.798 sec (=  15.713 min)  51.4 %
Property calculations            ...      251.210 sec (=   4.187 min)  13.7 %
                             ****ORCA TERMINATED NORMALLY****
TOTAL RUN TIME: 0 days 0 hours 30 minutes 35 seconds 345 msec
