
                                 *****************
                                 * O   R   C   A *
                                 *****************

                                            #,                                       
                                            ###                                      
                                            ####                                     
                                            #####                                    
                                            ######                                   
                                           ########,                                 
                                     ,,################,,,,,                         
                               ,,#################################,,                 
                          ,,##########################################,,             
                       ,#########################################, ''#####,          
                    ,#############################################,,   '####,        
                  ,##################################################,,,,####,       
                ,###########''''           ''''###############################       
              ,#####''   ,,,,##########,,,,          '''####'''          '####       
            ,##' ,,,,###########################,,,                        '##       
           ' ,,###''''                  '''############,,,                           
         ,,##''                                '''############,,,,        ,,,,,,###''
      ,#''                                            '''#######################'''  
     '                                                          ''''####''''         
             ,#######,   #######,   ,#######,      ##                                
            ,#'     '#,  ##    ##  ,#'     '#,    #''#        ,####,   ,####,        
            ##       ##  ##   ,#'  ##            #'  '#       #'       #'  '#        
            ##       ##  #######   ##           ,######,      #####,   #    #        
            '#,     ,#'  ##    ##  '#,     ,#' ,#      #,     #,   #   #,  ,#        
             '#######'   ##     ##  '#######'  #'      '#     '####' # '####'        



                #########################################################
                #                        -***-                          #
                #          Department of theory and spectroscopy        #
                #                                                       #
                #                      Frank Neese                      #
                #                                                       #
                #     Directorship, Architecture, Infrastructure        #
                #                    SHARK, DRIVERS                     #
                #        Core code/Algorithms in most modules           #
                #                                                       #
                #        Max Planck Institute fuer Kohlenforschung      #
                #                Kaiser Wilhelm Platz 1                 #
                #                 D-45470 Muelheim/Ruhr                 #
                #                      Germany                          #
                #                                                       #
                #                  All rights reserved                  #
                #                        -***-                          #
                #########################################################


                         Program Version 6.0.1  -  RELEASE   -


 With contributions from (in alphabetic order):
[Max-Planck-Institut fuer Kohlenforschung]                               
  Daniel Aravena         : Magnetic Suceptibility                        
  Michael Atanasov       : Ab Initio Ligand Field Theory (pilot matlab implementation)
  Alexander A. Auer      : GIAO ZORA, VPT2 properties, NMR spectrum      
  Ute Becker             : All parallelization in ORCA, NUMFREQ, NUMCALC 
  Giovanni Bistoni       : ED, misc. LED, open-shell LED, HFLD           
  Martin Brehm           : Molecular dynamics                            
  Dmytro Bykov           : pre 5.0 version of the SCF Hessian            
  Marcos Casanova-Páez   : Triplet and SCS-CIS(D). UHF-(DLPNO)-IP/EA/STEOM-CCSD. UHF-CVS-IP/STEOM-CCSD   
  Vijay G. Chilkuri      : MRCI spin determinant printing, contributions to CSF-ICE 
  Pauline Colinet        : FMM embedding                                 
  Dipayan Datta          : RHF DLPNO-CCSD density                        
  Achintya Kumar Dutta   : EOM-CC, STEOM-CC                              
  Nicolas Foglia         : Exact transition moments, OPA infrastructure, MCD improvements    
  Dmitry Ganyushin       : Spin-Orbit,Spin-Spin,Magnetic field MRCI      
  Miquel Garcia-Rates    : C-PCM and meta-GGA Hessian, CCSD/C-PCM, Gaussian charge scheme 
  Tiago L. C. Gouveia    : GS-ROHF, GS-ROCIS                             
  Yang Guo               : DLPNO-NEVPT2, F12-NEVPT2, CIM, IAO-localization        
  Andreas Hansen         : Spin unrestricted coupled pair/coupled cluster methods 
  Ingolf Harden          : AUTO-CI MPn and infrastructure                
  Benjamin Helmich-Paris : MC-RPA, TRAH-(SCF,CASSCF), AVAS, COSX integrals, SCF dyn. polar. 
  Lee Huntington         : MR-EOM, pCC                                   
  Robert Izsak           : Overlap fitted RIJCOSX, COSX-SCS-MP3, EOM     
  Riya Kayal             : Wick's Theorem for AUTO-CI, AUTO-CI UHF-CCSDT 
  Emily Kempfer          : AUTO-CI, RHF CISDT and CCSDT                  
  Christian Kollmar      : KDIIS, OOCD, Brueckner-CCSD(T), CCSD density, CASPT2, CASPT2-K, improved NEVPT2 
  Axel Koslowski         : Symmetry handling                             
  Simone Kossmann        : meta-GGA functionals, TD-DFT gradient, OOMP2, (MP2 Hessian; deprecated post 5.0) 
  Lucas Lang             : DCDCAS                                        
  Marvin Lechner         : AUTO-CI (C++ implementation), FIC-MRCC        
  Spencer Leger          : CASSCF response                               
  Dagmar Lenk            : GEPOL surface, SMD, ORCA-2-JSON               
  Dimitrios Liakos       : Extrapolation schemes; Compound Job, initial MDCI parallelization 
  Dimitrios Manganas     : Further ROCIS development; embedding schemes. LFT, Crystal Embedding 
  Dimitrios Pantazis     : SARC Basis sets                               
  Anastasios Papadopoulos: AUTO-CI, single reference methods and gradients 
  Taras Petrenko         : pre 6.0 DFT Hessian and TD-DFT gradient, (ASA, deprecated), ECA, 1-Electron XAS/XES, NRVS 
  Peter Pinski           : DLPNO-MP2, DLPNO-MP2 Gradient                 
  Christoph Reimann      : Effective Core Potentials                     
  Marius Retegan         : Local ZFS, SOC                                
  Christoph Riplinger    : Optimizer, TS searches, QM/MM, DLPNO-CCSD(T), (RO)-DLPNO pert. Triples 
  Michael Roemelt        : Original ROCIS implementation                 
  Masaaki Saitow         : Open-shell DLPNO-CCSD energy and density      
  Barbara Sandhoefer     : DKH picture change effects                    
  Kantharuban Sivalingam : CASSCF convergence/infrastructure, NEVPT2 and variants, FIC-MRCI 
  Bernardo de Souza      : ESD, SOC TD-DFT                               
  Georgi L. Stoychev     : AutoAux, RI-MP2 NMR, DLPNO-MP2 response, X2C  
  Van Anh Tran           : RI-MP2 g-tensors                              
  Willem Van den Heuvel  : Paramagnetic NMR                              
  Zikuan Wang            : NOTCH, Electric field optimization            
  Frank Wennmohs         : Technical directorship and infrastructure     
  Hang Xu                : AUTO-CI-Response properties                   
                                                                         
[FACCTs GmbH]                                                            
  Markus Bursch, Miquel Garcia-Rates, Christoph Riplinger, Bernardo de Souza, Georgi L. Stoychev 
                                                                 
  APM, Basis sets (HGBS, AHGBS, def-TZVP (Ac-Lr), def2-XVPD (La-Lu)), CI-OPT, improved COSX, DLPNO-Multilevel,           
  DOCKER, DRACO, updates on ESD, GOAT, IRC, LR-CPCM, MBIS, meta-GGA TD-DFT gradient, ML-optimized integration grids, 
  MM, NACMEs, nearIR, NEB, NEB-TS, NL-DFT gradient (VV10), 2- and 3-layer-ONIOM, interface openCOSMO-RS, QMMM,   
  Crystal-QMMM, SF, symmetry and pop. for TD-DFT, r2SCAN hybrids, SOLVATOR                                   
                                                                         
[Other institutions]                                                     
  V. Asgeirsson          : NEB                                           
  Christoph Bannwarth    : sTDA-DFT, sTD-DFT, PBEh-3c, B97-3c, D3        
  Sebastian Ehlert       : rSCAN, r2SCAN, r2SCAN-3c, D4, dhf basis sets  
  Marvin Friede          : D4 for Fr, Ra, Ac-Lr                          
  Lars Goerigk           : TD-DFT with DH, B97 family of functionals     
  Stefan Grimme          : VdW corrections, initial TS optimization, DFT functionals, gCP, sTDA/sTD-DF 
  Waldemar Hujo          : DFT-NL                                        
  H. Jonsson             : NEB                                           
  Holger Kruse           : gCP                                           
  Marcel Mueller         : wB97X-3c, vDZP basis set                      
  Hagen Neugebauer       : wr2SCAN                                       
  Tobias Risthaus        : range-separated hybrid DFT                    
  Lukas Wittmann         : regularized MP2, r2SCAN double-hybrids, wr2SCAN        
                                                                         
We gratefully acknowledge several colleagues who have allowed us to      
interface, adapt or use parts of their codes:                            
  Ed Valeev, F. Pavosevic, A. Kumar             : LibInt (2-el integral package), F12 methods 
  Garnet Chan, S. Sharma, J. Yang, R. Olivares  : DMRG                   
  Ulf Ekstrom                                   : XCFun DFT Library      
  Mihaly Kallay                                 : mrcc  (arbitrary order and MRCC methods)
  Frank Weinhold                                : gennbo (NPA and NBO analysis)           
  Simon Mueller                                 : openCOSMO-RS                            
  Christopher J. Cramer and Donald G. Truhlar   : smd solvation model                     
  S Lehtola, MJT Oliveira, MAL Marques          : LibXC Library                           
  Liviu Ungur et al                             : ANISO software                          


 Your calculation uses the libint2 library for the computation of 2-el integrals
 For citations please refer to: http://libint.valeyev.net

 Your ORCA version has been built with support for libXC version: 6.2.2
 For citations please refer to: https://libxc.gitlab.io

 This ORCA versions uses:
   CBLAS   interface :  Fast vector & matrix operations
   LAPACKE interface :  Fast linear algebra routines
   SCALAPACK package :  Parallel linear algebra routines
   Shared memory     :  Shared parallel matrices
   BLAS/LAPACK       :  OpenBLAS 0.3.27  USE64BITINT DYNAMIC_ARCH NO_AFFINITY SkylakeX SINGLE_THREADED
        Core in use  :  SkylakeX
   Copyright (c) 2011-2014, The OpenBLAS Project


NOTE: MaxCore=8000 MB was set to SCF,MP2,MDCI,CIPSI,MRCI and CIS
      => If you want to overwrite this, your respective input block should be placed after the MaxCore statement
Your calculation utilizes the atom-pairwise dispersion correction
with the Becke-Johnson damping scheme (D3BJ)


Your calculation utilizes the SMD solvation module
Please cite in your paper:
A.V. Marenich, C.J. Cramer, D.G. Truhlar J. Phys. Chem. B, 113, (2009), 6378 

Warning: RI is on but no J-basis has been assigned. Assigning Def2/J (nothing to worry about!)
================================================================================

----- Orbital basis set information -----
Your calculation utilizes the basis: def2-TZVP
   F. Weigend and R. Ahlrichs, Phys. Chem. Chem. Phys. 7, 3297 (2005).

----- AuxJ basis set information -----
Your calculation utilizes the auxiliary basis: def2/J
   F. Weigend, Phys. Chem. Chem. Phys. 8, 1057 (2006).

================================================================================
                                        WARNINGS
                       Please study these warnings very carefully!
================================================================================


WARNING: Geometry Optimization
  ===> : Switching off AutoStart
         For restart on a previous wavefunction, please use MOREAD

================================================================================
                                       INPUT FILE
================================================================================
NAME = rf_mecn_opt_B3L_P_A.inp
|  1> !B3LYP def2-TZVP opt d3 TightSCF SlowConv defgrid2
|  2>  
|  3> %pal
|  4> nprocs 20
|  5> end
|  6>  
|  7> %scf
|  8> MaxIter 1500
|  9> end
| 10>  
| 11> %maxcore 8000
| 12>  
| 13> !CPCM
| 14> %cpcm smd true
| 15> SMDsolvent "ACETONITRILE"
| 16> end
| 17>  
| 18> * xyz 0 1
| 19> 6        4.790427000     -0.033865800     -0.529943200
| 20> 8        5.449345000     -1.206924000     -0.894594600
| 21> 8        4.978223000      1.323071000     -0.737377200
| 22> 6        3.506687600     -0.338741600      0.376153800
| 23> 6        2.222300000      0.400524800     -0.110681600
| 24> 6        0.900506800     -0.386389800      0.175703000
| 25> 6       -0.395261200      0.487294000      0.065549000
| 26> 6       -1.705693600     -0.364773800     -0.068373600
| 27> 6       -3.005136200      0.445344800      0.258164000
| 28> 6       -4.319880200     -0.214526000     -0.270540800
| 29> 9        3.211587400     -1.692050400      0.412735200
| 30> 9        3.741061800      0.055285800      1.689948800
| 31> 9        2.125696800      1.616867800      0.483236600
| 32> 9        2.314152400      0.589704000     -1.455769200
| 33> 9        0.794028800     -1.413561400     -0.700839000
| 34> 9        0.958350600     -0.884509000      1.435093400
| 35> 9       -0.498373400      1.260265600      1.173340200
| 36> 9       -0.299075000      1.289512600     -1.020910800
| 37> 9       -1.641790400     -1.418189000      0.779523800
| 38> 9       -1.792381400     -0.831391600     -1.336863600
| 39> 9       -2.918792200      1.679227200     -0.295171200
| 40> 9       -3.119771000      0.573779800      1.598579800
| 41> 9       -4.383115600     -1.504377600      0.089127600
| 42> 9       -5.365669800      0.430528600      0.260394200
| 43> 9       -4.396020400     -0.128550600     -1.602941800
| 44> 1        5.903122371     -2.014774547     -1.145719253
| 45> *
| 46> 
| 47>                          ****END OF INPUT****
================================================================================

                       *****************************
                       * Geometry Optimization Run *
                       *****************************

Geometry optimization settings:
Update method            Update   .... BFGS
Choice of coordinates    CoordSys .... (2022) Redundant Internals
Initial Hessian          InHess   .... Almloef's Model
Max. no of cycles        MaxIter  .... 78

Convergence Tolerances:
Energy Change            TolE     ....  5.0000e-06 Eh
Max. Gradient            TolMAXG  ....  3.0000e-04 Eh/bohr
RMS Gradient             TolRMSG  ....  1.0000e-04 Eh/bohr
Max. Displacement        TolMAXD  ....  4.0000e-03 bohr
RMS Displacement         TolRMSD  ....  2.0000e-03 bohr
Strict Convergence                .... False

------------------------------------------------------------------------------
                        ORCA OPTIMIZATION COORDINATE SETUP
------------------------------------------------------------------------------

The optimization will be done in redundant internal coordinates (2022)
Making redundant internal coordinates   ...  (2022 redundants) done
Evaluating the initial hessian          ...  (Almloef) done
Evaluating the coordinates              ...  done
Calculating the B-matrix                .... done
Calculating the G-matrix                .... done
Diagonalizing the G-matrix              .... done
Small eigenvalue found = 4.716e-03
Small eigenvalue found = 1.264e-02
Small eigenvalue found = 2.728e-02
The first mode is                       ....   42
The number of degrees of freedom        ....   72

    -----------------------------------------------------------------
                    Redundant Internal Coordinates


    -----------------------------------------------------------------
         Definition                    Initial Value    Approx d2E/dq
    -----------------------------------------------------------------
      1. B(O   1,C   0)                  1.3940         0.551454   
      2. B(O   2,C   0)                  1.3855         0.568952   
      3. B(C   3,C   0)                  1.6006         0.288221   
      4. B(C   4,C   3)                  1.5599         0.334759   
      5. B(C   5,C   4)                  1.5647         0.328824   
      6. B(C   6,C   5)                  1.5667         0.326486   
      7. B(C   7,C   6)                  1.5688         0.323927   
      8. B(C   8,C   7)                  1.5657         0.327637   
      9. B(C   9,C   8)                  1.5632         0.330714   
     10. B(F  10,C   3)                  1.3856         0.528443   
     11. B(F  11,C   3)                  1.3915         0.517117   
     12. B(F  12,C   4)                  1.3570         0.586881   
     13. B(F  13,C   4)                  1.3614         0.577499   
     14. B(F  14,C   5)                  1.3545         0.592326   
     15. B(F  15,C   5)                  1.3556         0.590092   
     16. B(F  16,C   6)                  1.3547         0.591865   
     17. B(F  17,C   6)                  1.3540         0.593567   
     18. B(F  18,C   7)                  1.3538         0.593973   
     19. B(F  19,C   7)                  1.3544         0.592672   
     20. B(F  20,C   8)                  1.3550         0.591238   
     21. B(F  21,C   8)                  1.3514         0.599114   
     22. B(F  22,C   9)                  1.3406         0.623533   
     23. B(F  23,C   9)                  1.3385         0.628179   
     24. B(F  24,C   9)                  1.3373         0.630929   
     25. B(H  25,O   1)                  0.9600         0.519956   
     26. A(O   2,C   0,C   3)          112.3347         0.371210   
     27. A(O   1,C   0,O   2)          136.1318         0.413163   
     28. A(O   1,C   0,C   3)          111.5249         0.369222   
     29. L(C   0,O   1,H  25,C   3, 2) 180.0000         0.362759   
     30. L(C   0,O   1,H  25,C   3, 1) 180.0000         0.362759   
     31. A(C   4,C   3,F  11)          107.4072         0.373095   
     32. A(C   0,C   3,F  11)          110.2099         0.363632   
     33. A(F  10,C   3,F  11)          106.7094         0.399684   
     34. A(C   4,C   3,F  10)          107.2033         0.374492   
     35. A(C   0,C   3,F  10)          111.8265         0.364982   
     36. A(C   0,C   3,C   4)          113.1687         0.341363   
     37. A(C   3,C   4,F  12)          110.2926         0.381351   
     38. A(F  12,C   4,F  13)          108.2194         0.415201   
     39. A(C   3,C   4,C   5)          113.5839         0.349005   
     40. A(C   5,C   4,F  13)          107.9208         0.379109   
     41. A(C   3,C   4,F  13)          108.5818         0.380286   
     42. A(C   5,C   4,F  12)          108.0911         0.380169   
     43. A(F  14,C   5,F  15)          109.0206         0.417483   
     44. A(C   4,C   5,C   6)          113.9128         0.347536   
     45. A(C   6,C   5,F  15)          107.7906         0.380059   
     46. A(C   4,C   5,F  15)          108.5900         0.380529   
     47. A(C   6,C   5,F  14)          108.2026         0.380308   
     48. A(C   4,C   5,F  14)          109.2282         0.380779   
     49. A(C   5,C   6,C   7)          113.2023         0.346660   
     50. A(F  16,C   6,F  17)          108.8752         0.417862   
     51. A(C   7,C   6,F  17)          108.2186         0.379927   
     52. A(C   5,C   6,F  17)          109.1523         0.380446   
     53. A(C   7,C   6,F  16)          108.4284         0.379738   
     54. A(C   5,C   6,F  16)          108.8835         0.380256   
     55. A(C   8,C   7,F  18)          108.1296         0.380723   
     56. A(C   6,C   7,F  18)          109.2524         0.379972   
     57. A(F  18,C   7,F  19)          108.7561         0.418014   
     58. A(C   6,C   7,C   8)          113.2298         0.346865   
     59. A(C   8,C   7,F  19)          108.6915         0.380579   
     60. A(C   6,C   7,F  19)          108.6955         0.379828   
     61. A(F  20,C   8,F  21)          108.8987         0.418476   
     62. A(C   9,C   8,F  21)          107.7127         0.381912   
     63. A(C   7,C   8,F  21)          109.0521         0.381293   
     64. A(C   9,C   8,F  20)          107.4499         0.381036   
     65. A(C   7,C   8,C   9)          114.1471         0.348078   
     66. A(C   7,C   8,F  20)          109.4572         0.380419   
     67. A(F  23,C   9,F  24)          108.6464         0.426961   
     68. A(F  22,C   9,F  24)          109.0552         0.426394   
     69. A(C   8,C   9,F  24)          110.9604         0.385362   
     70. A(F  22,C   9,F  23)          108.6877         0.426061   
     71. A(C   8,C   9,F  23)          108.6349         0.385069   
     72. A(C   8,C   9,F  22)          110.7995         0.384572   
     73. D(F  11,C   3,C   0,O   1)    108.6317         0.006601   
     74. D(C   4,C   3,C   0,O   2)     49.8076         0.006601   
     75. D(F  10,C   3,C   0,O   2)    171.0025         0.006601   
     76. D(F  11,C   3,C   0,O   2)    -70.4768         0.006601   
     77. D(C   4,C   3,C   0,O   1)   -131.0839         0.006601   
     78. D(F  10,C   3,C   0,O   1)     -9.8890         0.006601   
     79. D(C   5,C   4,C   3,C   0)    148.6429         0.009100   
     80. D(F  12,C   4,C   3,C   0)    -89.8453         0.009100   
     81. D(C   5,C   4,C   3,F  10)     24.8733         0.009100   
     82. D(F  12,C   4,C   3,F  10)    146.3851         0.009100   
     83. D(F  12,C   4,C   3,F  11)     32.0233         0.009100   
     84. D(C   5,C   4,C   3,F  11)    -89.4885         0.009100   
     85. D(C   6,C   5,C   4,F  12)     41.2001         0.008811   
     86. D(C   6,C   5,C   4,F  13)    -75.6292         0.008811   
     87. D(C   6,C   5,C   4,C   3)    163.9326         0.008811   
     88. D(F  14,C   5,C   4,F  13)     45.4721         0.008811   
     89. D(F  14,C   5,C   4,F  12)    162.3014         0.008811   
     90. D(F  14,C   5,C   4,C   3)    -74.9661         0.008811   
     91. D(F  16,C   6,C   5,F  15)     44.2190         0.008700   
     92. D(F  16,C   6,C   5,F  14)    161.9826         0.008700   
     93. D(F  16,C   6,C   5,C   4)    -76.3465         0.008700   
     94. D(C   7,C   6,C   5,F  14)     41.3107         0.008700   
     95. D(C   7,C   6,C   5,C   4)    162.9815         0.008700   
     96. D(C   7,C   6,C   5,F  15)    -76.4529         0.008700   
     97. D(F  18,C   7,C   6,F  17)    162.9167         0.008578   
     98. D(F  18,C   7,C   6,F  16)    -79.1358         0.008578   
     99. D(F  18,C   7,C   6,C   5)     41.7939         0.008578   
    100. D(C   8,C   7,C   6,F  17)    -76.5134         0.008578   
    101. D(C   8,C   7,C   6,F  16)     41.4341         0.008578   
    102. D(C   8,C   7,C   6,C   5)    162.3638         0.008578   
    103. D(C   9,C   8,C   7,C   6)    162.4166         0.008755   
    104. D(F  20,C   8,C   7,F  19)    -78.9355         0.008755   
    105. D(F  20,C   8,C   7,F  18)    163.1633         0.008755   
    106. D(F  20,C   8,C   7,C   6)     41.9584         0.008755   
    107. D(C   9,C   8,C   7,F  19)     41.5227         0.008755   
    108. D(C   9,C   8,C   7,F  18)    -76.3785         0.008755   
    109. D(F  23,C   9,C   8,F  21)     48.1091         0.008903   
    110. D(F  23,C   9,C   8,F  20)    -69.0724         0.008903   
    111. D(F  23,C   9,C   8,C   7)    169.3552         0.008903   
    112. D(F  22,C   9,C   8,F  21)    -71.2185         0.008903   
    113. D(F  22,C   9,C   8,F  20)    171.5999         0.008903   
    114. D(F  22,C   9,C   8,C   7)     50.0276         0.008903   
    -----------------------------------------------------------------

Number of atoms                         .... 26
Number of degrees of freedom            .... 114


         *************************************************************
         *                GEOMETRY OPTIMIZATION CYCLE   1            *
         *************************************************************
---------------------------------
CARTESIAN COORDINATES (ANGSTROEM)
---------------------------------
  C      4.790427   -0.033866   -0.529943
  O      5.449345   -1.206924   -0.894595
  O      4.978223    1.323071   -0.737377
  C      3.506688   -0.338742    0.376154
  C      2.222300    0.400525   -0.110682
  C      0.900507   -0.386390    0.175703
  C     -0.395261    0.487294    0.065549
  C     -1.705694   -0.364774   -0.068374
  C     -3.005136    0.445345    0.258164
  C     -4.319880   -0.214526   -0.270541
  F      3.211587   -1.692050    0.412735
  F      3.741062    0.055286    1.689949
  F      2.125697    1.616868    0.483237
  F      2.314152    0.589704   -1.455769
  F      0.794029   -1.413561   -0.700839
  F      0.958351   -0.884509    1.435093
  F     -0.498373    1.260266    1.173340
  F     -0.299075    1.289513   -1.020911
  F     -1.641790   -1.418189    0.779524
  F     -1.792381   -0.831392   -1.336864
  F     -2.918792    1.679227   -0.295171
  F     -3.119771    0.573780    1.598580
  F     -4.383116   -1.504378    0.089128
  F     -5.365670    0.430529    0.260394
  F     -4.396020   -0.128551   -1.602942
  H      5.903122   -2.014775   -1.145719

----------------------------
CARTESIAN COORDINATES (A.U.)
----------------------------
  NO LB      ZA    FRAG     MASS         X           Y           Z
   0 C     6.0000    0    12.011    9.052595   -0.063997   -1.001448
   1 O     8.0000    0    15.999   10.297770   -2.280756   -1.690539
   2 O     8.0000    0    15.999    9.407478    2.500242   -1.393441
   3 C     6.0000    0    12.011    6.626679   -0.640129    0.710828
   4 C     6.0000    0    12.011    4.199538    0.756882   -0.209158
   5 C     6.0000    0    12.011    1.701711   -0.730171    0.332031
   6 C     6.0000    0    12.011   -0.746935    0.920852    0.123870
   7 C     6.0000    0    12.011   -3.223294   -0.689323   -0.129207
   8 C     6.0000    0    12.011   -5.678884    0.841580    0.487859
   9 C     6.0000    0    12.011   -8.163391   -0.405395   -0.511248
  10 F     9.0000    0    18.998    6.069021   -3.197512    0.779956
  11 F     9.0000    0    18.998    7.069582    0.104475    3.193540
  12 F     9.0000    0    18.998    4.016985    3.055437    0.913185
  13 F     9.0000    0    18.998    4.373114    1.114379   -2.751005
  14 F     9.0000    0    18.998    1.500497   -2.671244   -1.324394
  15 F     9.0000    0    18.998    1.811020   -1.671480    2.711934
  16 F     9.0000    0    18.998   -0.941789    2.381557    2.217292
  17 F     9.0000    0    18.998   -0.565170    2.436826   -1.929242
  18 F     9.0000    0    18.998   -3.102534   -2.679989    1.473086
  19 F     9.0000    0    18.998   -3.387110   -1.571102   -2.526306
  20 F     9.0000    0    18.998   -5.515718    3.173280   -0.557793
  21 F     9.0000    0    18.998   -5.895513    1.084287    3.020878
  22 F     9.0000    0    18.998   -8.282888   -2.842862    0.168427
  23 F     9.0000    0    18.998  -10.139646    0.813581    0.492074
  24 F     9.0000    0    18.998   -8.307275   -0.242925   -3.029121
  25 H     1.0000    0     1.008   11.155285   -3.807372   -2.165096

--------------------------------
INTERNAL COORDINATES (ANGSTROEM)
--------------------------------
 C      0   0   0     0.000000000000     0.00000000     0.00000000
 O      1   0   0     1.393990356793     0.00000000     0.00000000
 O      1   2   0     1.385486802956   136.13177198     0.00000000
 C      1   2   3     1.600608594862   111.52489317   181.18992567
 C      4   1   2     1.559863783763   113.16872737   228.91614990
 C      5   4   1     1.564732561934   113.58394786   148.64287440
 C      6   5   4     1.566675459667   113.91280616   163.93256239
 C      7   6   5     1.568817348692   113.20226571   162.98152714
 C      8   7   6     1.565717094808   113.22984595   162.36375422
 C      9   8   7     1.563173062643   114.14707705   162.41661495
 F      4   1   2     1.385592665621   111.82651119   350.11101305
 F      4   1   2     1.391490625050   110.20991618   108.63170802
 F      5   4   1     1.357041377479   110.29260564   270.15468021
 F      5   4   1     1.361428031433   108.58179722    28.57841973
 F      6   5   4     1.354527570075   109.22822656   285.03385927
 F      6   5   4     1.355556277776   108.59004089    43.81583148
 F      7   6   5     1.354739297058   108.88346185   283.65347401
 F      7   6   5     1.353957667090   109.15230848    42.38718856
 F      8   7   6     1.353771473879   109.25240264    41.79387651
 F      8   7   6     1.354368423305   108.69554158   283.25540020
 F      9   8   7     1.355028009646   109.45719767    41.95842364
 F      9   8   7     1.351425618925   109.05210362   282.91820052
 F     10   9   8     1.340551089588   110.79953142    50.02756898
 F     10   9   8     1.338530275591   108.63493714   169.35523750
 F     10   9   8     1.337341214598   110.96044107   288.72891896
 H      2   1   3     0.960000000033   180.00000000     0.00000000

---------------------------
INTERNAL COORDINATES (A.U.)
---------------------------
 C      0   0   0     0.000000000000     0.00000000     0.00000000
 O      1   0   0     2.634260007667     0.00000000     0.00000000
 O      1   2   0     2.618190619750   136.13177198     0.00000000
 C      1   2   3     3.024711891890   111.52489317   181.18992567
 C      4   1   2     2.947715357535   113.16872737   228.91614990
 C      5   4   1     2.956916014884   113.58394786   148.64287440
 C      6   5   4     2.960587559506   113.91280616   163.93256239
 C      7   6   5     2.964635143173   113.20226571   162.98152714
 C      8   7   6     2.958776512386   113.22984595   162.36375422
 C      9   8   7     2.953968988318   114.14707705   162.41661495
 F      4   1   2     2.618390671194   111.82651119   350.11101305
 F      4   1   2     2.629536199263   110.20991618   108.63170802
 F      5   4   1     2.564436555835   110.29260564   270.15468021
 F      5   4   1     2.572726130452   108.58179722    28.57841973
 F      6   5   4     2.559686148288   109.22822656   285.03385927
 F      6   5   4     2.561630124115   108.59004089    43.81583148
 F      7   6   5     2.560086254300   108.88346185   283.65347401
 F      7   6   5     2.558609187723   109.15230848    42.38718856
 F      8   7   6     2.558257333546   109.25240264    41.79387651
 F      8   7   6     2.559385404477   108.69554158   283.25540020
 F      9   8   7     2.560631842023   109.45719767    41.95842364
 F      9   8   7     2.553824310132   109.05210362   282.91820052
 F     10   9   8     2.533274427850   110.79953142    50.02756898
 F     10   9   8     2.529455642830   108.63493714   169.35523750
 F     10   9   8     2.527208643196   110.96044107   288.72891896
 H      2   1   3     1.814137088628   180.00000000     0.00000000

---------------------
BASIS SET INFORMATION
---------------------
There are 4 groups of distinct atoms

 Group   1 Type C   : 11s6p2d1f contracted to 5s3p2d1f pattern {62111/411/11/1}
 Group   2 Type O   : 11s6p2d1f contracted to 5s3p2d1f pattern {62111/411/11/1}
 Group   3 Type F   : 11s6p2d1f contracted to 5s3p2d1f pattern {62111/411/11/1}
 Group   4 Type H   : 5s1p contracted to 3s1p pattern {311/1}

Atom   0C    basis set group =>   1
Atom   1O    basis set group =>   2
Atom   2O    basis set group =>   2
Atom   3C    basis set group =>   1
Atom   4C    basis set group =>   1
Atom   5C    basis set group =>   1
Atom   6C    basis set group =>   1
Atom   7C    basis set group =>   1
Atom   8C    basis set group =>   1
Atom   9C    basis set group =>   1
Atom  10F    basis set group =>   3
Atom  11F    basis set group =>   3
Atom  12F    basis set group =>   3
Atom  13F    basis set group =>   3
Atom  14F    basis set group =>   3
Atom  15F    basis set group =>   3
Atom  16F    basis set group =>   3
Atom  17F    basis set group =>   3
Atom  18F    basis set group =>   3
Atom  19F    basis set group =>   3
Atom  20F    basis set group =>   3
Atom  21F    basis set group =>   3
Atom  22F    basis set group =>   3
Atom  23F    basis set group =>   3
Atom  24F    basis set group =>   3
Atom  25H    basis set group =>   4
---------------------------------
AUXILIARY/J BASIS SET INFORMATION
---------------------------------
There are 4 groups of distinct atoms

 Group   1 Type C   : 12s5p4d2f1g contracted to 6s4p3d1f1g pattern {711111/2111/211/2/1}
 Group   2 Type O   : 12s5p4d2f1g contracted to 6s4p3d1f1g pattern {711111/2111/211/2/1}
 Group   3 Type F   : 12s5p4d2f1g contracted to 6s4p3d1f1g pattern {711111/2111/211/2/1}
 Group   4 Type H   : 5s2p1d contracted to 3s1p1d pattern {311/2/1}

Atom   0C    basis set group =>   1
Atom   1O    basis set group =>   2
Atom   2O    basis set group =>   2
Atom   3C    basis set group =>   1
Atom   4C    basis set group =>   1
Atom   5C    basis set group =>   1
Atom   6C    basis set group =>   1
Atom   7C    basis set group =>   1
Atom   8C    basis set group =>   1
Atom   9C    basis set group =>   1
Atom  10F    basis set group =>   3
Atom  11F    basis set group =>   3
Atom  12F    basis set group =>   3
Atom  13F    basis set group =>   3
Atom  14F    basis set group =>   3
Atom  15F    basis set group =>   3
Atom  16F    basis set group =>   3
Atom  17F    basis set group =>   3
Atom  18F    basis set group =>   3
Atom  19F    basis set group =>   3
Atom  20F    basis set group =>   3
Atom  21F    basis set group =>   3
Atom  22F    basis set group =>   3
Atom  23F    basis set group =>   3
Atom  24F    basis set group =>   3
Atom  25H    basis set group =>   4


           ************************************************************
           *        Program running with 20 parallel MPI-processes    *
           *              working on a common directory               *
           ************************************************************
------------------------------------------------------------------------------
                             ORCA STARTUP CALCULATIONS
                           -- RI-GTO INTEGRALS CHOSEN --
------------------------------------------------------------------------------
------------------------------------------------------------------------------
                   ___                                                        
                  /   \      - P O W E R E D   B Y -                         
                 /     \                                                     
                 |  |  |   _    _      __       _____    __    __             
                 |  |  |  | |  | |    /  \     |  _  \  |  |  /  |          
                  \  \/   | |  | |   /    \    | | | |  |  | /  /          
                 / \  \   | |__| |  /  /\  \   | |_| |  |  |/  /          
                |  |  |   |  __  | /  /__\  \  |    /   |      \           
                |  |  |   | |  | | |   __   |  |    \   |  |\   \          
                \     /   | |  | | |  |  |  |  | |\  \  |  | \   \       
                 \___/    |_|  |_| |__|  |__|  |_| \__\ |__|  \__/        
                                                                              
                      - O R C A' S   B I G   F R I E N D -                    
                                      &                                       
                       - I N T E G R A L  F E E D E R -                       
                                                                              
 v1 FN, 2020, v2 2021, v3 2022-2024                                           
------------------------------------------------------------------------------


----------------------
SHARK INTEGRAL PACKAGE
----------------------

Number of atoms                             ...     26
Number of basis functions                   ...    781
Number of shells                            ...    279
Maximum angular momentum                    ...      3
Integral batch strategy                     ... SHARK/LIBINT Hybrid
RI-J (if used) integral strategy            ... SPLIT-RIJ (Revised 2003 algorithm where possible)
Printlevel                                  ...      1
Contraction scheme used                     ... SEGMENTED contraction
Prescreening option                         ... SCHWARTZ
   Thresh                                   ... 2.500e-11
   Tcut                                     ... 2.500e-12
   Tpresel                                  ... 2.500e-12 
Coulomb Range Separation                    ... NOT USED
Exchange Range Separation                   ... NOT USED
Multipole approximations                    ... NOT USED
Finite Nucleus Model                        ... NOT USED
CABS basis                                  ... NOT available
Auxiliary Coulomb fitting basis             ... AVAILABLE
   # of basis functions in Aux-J            ...   1236
   # of shells in Aux-J                     ...    380
   Maximum angular momentum in Aux-J        ...      4
Auxiliary J/K fitting basis                 ... NOT available
Auxiliary Correlation fitting basis         ... NOT available
Auxiliary 'external' fitting basis          ... NOT available

Checking pre-screening integrals            ... done (  0.0 sec) Dimension = 279
Check shell pair data                       ... done (  0.0 sec)
Shell pair information
Shell pair cut-off parameter TPreSel        ...   2.5e-12
Total number of shell pairs                 ...     39060
Shell pairs after pre-screening             ...     23834
Total number of primitive shell pairs       ...    128824
Primitive shell pairs kept                  ...     50343
          la=0 lb=0:   4538 shell pairs
          la=1 lb=0:   6518 shell pairs
          la=1 lb=1:   2258 shell pairs
          la=2 lb=0:   3530 shell pairs
          la=2 lb=1:   2590 shell pairs
          la=2 lb=2:    727 shell pairs
          la=3 lb=0:   1601 shell pairs
          la=3 lb=1:   1246 shell pairs
          la=3 lb=2:    666 shell pairs
          la=3 lb=3:    160 shell pairs

Calculating one electron integrals          ... done (  0.1 sec)
Calculating RI/J V-Matrix + Cholesky decomp.... done (  0.1 sec)
Calculating Nuclear repulsion               ... done (  0.0 sec) ENN=   2882.920911014247 Eh

Diagonalization of the overlap matrix:
Smallest eigenvalue                        ... 6.007e-05
Time for diagonalization                   ...    0.134 sec
Threshold for overlap eigenvalues          ... 1.000e-07
Number of eigenvalues below threshold      ... 0
Time for construction of square roots      ...    0.059 sec
Total time needed                          ...    0.202 sec

-------------------
DFT GRID GENERATION
-------------------

General Integration Accuracy     IntAcc      ... 4.388
Radial Grid Type                 RadialGrid  ... OptM3 with GC (2021)
Angular Grid (max. ang.)         AngularGrid ... 4 (Lebedev-302)
Angular grid pruning method      GridPruning ... 4 (adaptive)
Weight generation scheme         WeightScheme... mBecke (2022)
Basis function cutoff            BFCut       ... 1.0000e-11
Integration weight cutoff        WCut        ... 1.0000e-14
Partially contracted basis set               ... off
Rotationally invariant grid construction     ... off
Angular grids for H and He will be reduced by one unit

Total number of grid points                  ...   154735
Total number of batches                      ...     2429
Average number of points per batch           ...       63
Average number of grid points per atom       ...     5951

--------------------
COSX GRID GENERATION
--------------------

GRIDX 1
-------
General Integration Accuracy     IntAcc      ... 3.816
Radial Grid Type                 RadialGrid  ... OptM3 with GC (2021)
Angular Grid (max. ang.)         AngularGrid ... 1 (Lebedev-50)
Angular grid pruning method      GridPruning ... 4 (adaptive)
Weight generation scheme         WeightScheme... mBecke (2022)
Basis function cutoff            BFCut       ... 1.0000e-11
Integration weight cutoff        WCut        ... 1.0000e-14
Partially contracted basis set               ... on
Rotationally invariant grid construction     ... off
Angular grids for H and He will be reduced by one unit

Total number of grid points                  ...    19462
Total number of batches                      ...      164
Average number of points per batch           ...      118
Average number of grid points per atom       ...      749
UseSFitting                                  ... on

GRIDX 2
-------
General Integration Accuracy     IntAcc      ... 4.020
Radial Grid Type                 RadialGrid  ... OptM3 with GC (2021)
Angular Grid (max. ang.)         AngularGrid ... 2 (Lebedev-110)
Angular grid pruning method      GridPruning ... 4 (adaptive)
Weight generation scheme         WeightScheme... mBecke (2022)
Basis function cutoff            BFCut       ... 1.0000e-11
Integration weight cutoff        WCut        ... 1.0000e-14
Partially contracted basis set               ... on
Rotationally invariant grid construction     ... off
Angular grids for H and He will be reduced by one unit

Total number of grid points                  ...    45841
Total number of batches                      ...      374
Average number of points per batch           ...      122
Average number of grid points per atom       ...     1763
UseSFitting                                  ... on

GRIDX 3
-------
General Integration Accuracy     IntAcc      ... 4.338
Radial Grid Type                 RadialGrid  ... OptM3 with GC (2021)
Angular Grid (max. ang.)         AngularGrid ... 3 (Lebedev-194)
Angular grid pruning method      GridPruning ... 4 (adaptive)
Weight generation scheme         WeightScheme... mBecke (2022)
Basis function cutoff            BFCut       ... 1.0000e-11
Integration weight cutoff        WCut        ... 1.0000e-14
Partially contracted basis set               ... on
Rotationally invariant grid construction     ... off
Angular grids for H and He will be reduced by one unit

Total number of grid points                  ...   101470
Total number of batches                      ...      802
Average number of points per batch           ...      126
Average number of grid points per atom       ...     3903
UseSFitting                                  ... on
Initializing property integral containers    ... done (  0.0 sec)

SHARK setup successfully completed in   4.0 seconds

Maximum memory used throughout the entire STARTUP-calculation: 60.6 MB


           ************************************************************
           *        Program running with 20 parallel MPI-processes    *
           *              working on a common directory               *
           ************************************************************
-------------------------------------------------------------------------------
                                 ORCA GUESS
                   Start orbitals & Density for SCF / CASSCF
-------------------------------------------------------------------------------

------------
SCF SETTINGS
------------
Hamiltonian:
 Density Functional     Method          .... DFT(GTOs)
 Exchange Functional    Exchange        .... B88
   X-Alpha parameter    XAlpha          ....  0.666667
   Becke's b parameter  XBeta           ....  0.004200
 Correlation Functional Correlation     .... LYP
 LDA part of GGA corr.  LDAOpt          .... VWN-5
 Gradients option       PostSCFGGA      .... off
 Hybrid DFT is turned on
   Fraction HF Exchange ScalHFX         ....  0.200000
   Scaling of DF-GGA-X  ScalDFX         ....  0.720000
   Scaling of DF-GGA-C  ScalDFC         ....  0.810000
   Scaling of DF-LDA-C  ScalLDAC        ....  1.000000
   Perturbative correction              ....  0.000000
   NL short-range parameter             ....  4.800000
 RI-approximation to the Coulomb term is turned on
   Number of AuxJ basis functions       .... 1236
   RIJ-COSX (HFX calculated with COS-X)).... on


General Settings:
 Integral files         IntName         .... rf_mecn_opt_B3L_P_A
 Hartree-Fock type      HFTyp           .... RHF
 Total Charge           Charge          ....    0
 Multiplicity           Mult            ....    1
 Number of Electrons    NEL             ....  200
 Basis Dimension        Dim             ....  781
 Nuclear Repulsion      ENuc            ....   2882.9209110142 Eh

Convergence Acceleration:
 AO-DIIS                CNVDIIS         .... on
   Start iteration      DIISMaxIt       ....     0
   Startup error        DIISStart       ....  0.200000
   # of expansion vecs  DIISMaxEq       ....     5
   Bias factor          DIISBfac        ....   1.050
   Max. coefficient     DIISMaxC        ....  10.000
 MO-DIIS                CNVKDIIS        .... off
 Trust-Rad. Augm. Hess. CNVTRAH         .... auto
   Auto Start mean grad. ratio tolernc. ....  1.125000
   Auto Start start iteration           ....    50
   Auto Start num. interpolation iter.  ....    10
   Max. Number of Micro iterations      ....    24
   Max. Number of Macro iterations      .... Maxiter - #DIIS iter
   Number of Davidson start vectors     ....     2
   Converg. threshold    (grad. norm)   ....   1.000e-05
   Grad. Scal. Fac. for Micro threshold ....   0.100
   Minimum threshold for Micro iter.    ....   1.000e-02
   NR start threshold (gradient norm)   ....   1.000e-04
   Initial trust radius                 ....   0.400
   Minimum AH scaling param. (alpha)    ....   1.000
   Maximum AH scaling param. (alpha)    .... 1000.000
   Quad. conv. algorithm                .... NR
   White noise on init. David. guess    .... on
   Maximum white noise                  ....   0.010
   Pseudo random numbers                .... off
   Inactive MOs                         .... canonical
   Orbital update algorithm             .... Taylor
   Preconditioner                       .... Diag
   Full preconditioner red. dimension   ....   250
 SOSCF                  CNVSOSCF        .... on
   Start iteration      SOSCFMaxIt      ....   150
   Startup grad/error   SOSCFStart      ....  0.001000
   Hessian update       SOSCFHessUp     .... L-BFGS
 Level Shifting         CNVShift        .... on
   Level shift para.    LevelShift      ....    0.2500
   Turn off err/grad.   ShiftErr        ....    0.0000
 Zerner damping         CNVZerner       .... off
 Static damping         CNVDamp         .... on
   Fraction old density DampFac         ....    0.8500
   Max. Damping (<1)    DampMax         ....    0.9800
   Min. Damping (>=0)   DampMin         ....    0.0000
   Turn off err/grad.   DampErr         ....    0.0300

SCF Procedure:
 Maximum # iterations   MaxIter         ....  1500
 SCF integral mode      SCFMode         .... Direct
   Integral package                     .... SHARK and LIBINT hybrid scheme
 Reset frequency        DirectResetFreq ....    20
 Integral Threshold     Thresh          ....  2.500e-11 Eh
 Primitive CutOff       TCut            ....  2.500e-12 Eh

Convergence Tolerance:
 Convergence Check Mode ConvCheckMode   .... Total+1el-Energy
 Convergence forced     ConvForced      .... 0
 Energy Change          TolE            ....  1.000e-08 Eh
 1-El. energy change                    ....  1.000e-05 Eh
 Orbital Gradient       TolG            ....  1.000e-05
 Orbital Rotation angle TolX            ....  1.000e-05
 DIIS Error             TolErr          ....  5.000e-07

------------------------------
INITIAL GUESS: MODEL POTENTIAL
------------------------------
Loading Hartree-Fock densities                     ... done
Calculating cut-offs                               ... done
Initializing the effective Hamiltonian             ... done
Setting up the integral package (SHARK)            ... done
Starting the Coulomb interaction                   ... done (   0.2 sec)
Making the grid                                    ... done (   0.5 sec)
Mapping shells                                     ... done
Starting the XC term evaluation                    ... done (   0.2 sec)
  promolecular density results
     # of electrons  =    200.000344366
     EX              =   -208.550226423
     EC              =     -7.518598584
     EX+EC           =   -216.068825007
Transforming the Hamiltonian                       ... done (   0.1 sec)
Diagonalizing the Hamiltonian                      ... done (   0.1 sec)
Back transforming the eigenvectors                 ... done (   0.0 sec)
Now organizing SCF variables                       ... done
                      ------------------
                      INITIAL GUESS DONE (   1.2 sec)
                      ------------------
             **** ENERGY FILE WAS UPDATED (rf_mecn_opt_B3L_P_A.en.tmp) ****
Finished Guess after   1.9 sec
Maximum memory used throughout the entire GUESS-calculation: 49.4 MB


           ************************************************************
           *        Program running with 20 parallel MPI-processes    *
           *              working on a common directory               *
           ************************************************************

-------------------------------------------------------------------------------------------
                                      ORCA LEAN-SCF
                              memory conserving SCF solver
-------------------------------------------------------------------------------------------

--------------------
CPCM SOLVATION MODEL
--------------------
CPCM parameters:
  Epsilon                                         ...      35.6880
  Refrac                                          ...       1.3442
  Rsolv                                           ...       1.3000
  Surface type                                    ... GAUSSIAN VDW
  Discretization scheme                           ... Constant charge density
    Threshold for H atoms                         ...       5.0000 (charges/Ang^2)
    Threshold for non-H atoms                     ...       5.0000 (charges/Ang^2)
  Epsilon function type                           ...         CPCM
Solvent:                                          ... ACETONITRILE
SMD-CDS solvent descriptors:
  Soln                                            ...       1.3442
  Soln25                                          ...       1.3416
  Sola                                            ...       0.0700
  Solb                                            ...       0.3200
  Solg                                            ...      41.2500
  Solc                                            ...       0.0000
  Solh                                            ...       0.0000
Radii:
  Scheme                                          ... Element-dependent radii
  Radius for C  used is    3.4960 Bohr (=   1.8500 Ang.)
  Radius for O  used is    4.0969 Bohr (=   2.1680 Ang.)
  Radius for F  used is    3.2692 Bohr (=   1.7300 Ang.)
  Radius for H  used is    2.2677 Bohr (=   1.2000 Ang.)
Calculating surface                               ...        done! (  0.0s)
Cavity surface points                             ...         2192
Cavity Volume                                     ...    2190.7008
Cavity Surface-area                               ...    1131.4869
Calculating surface distance matrix               ...        done! (  0.0s)
Performing Cholesky decomposition & store         ...        done! (  0.1s)
Overall time for CPCM initialization              ...                 0.1s

----------------------------------------D-I-I-S--------------------------------------------
Iteration    Energy (Eh)           Delta-E    RMSDP     MaxDP     DIISErr   Damp  Time(sec)
-------------------------------------------------------------------------------------------
               ***  Starting incremental Fock matrix formation  ***
    1    -1952.9347563245978563     0.00e+00  4.47e-04  3.42e-02  3.14e-01  0.850   6.8
    2    -1953.1201064333422437    -1.85e-01  4.11e-04  3.18e-02  1.94e-01  0.850   4.1
                               ***Turning on AO-DIIS***
    3    -1953.2135533438454331    -9.34e-02  1.71e-04  9.90e-03  1.11e-01  0.850   3.7
    4    -1953.2684670709081729    -5.49e-02  9.65e-05  5.59e-03  8.04e-02  0.850   3.6
    5    -1953.3072442255902388    -3.88e-02  7.11e-05  4.87e-03  6.67e-02  0.850   3.4
    6    -1953.3381075577685806    -3.09e-02  6.16e-05  4.94e-03  6.00e-02  0.850   3.4
    7    -1953.3640061149603753    -2.59e-02  5.81e-05  4.67e-03  5.05e-02  0.850   3.4
    8    -1953.3860048886122058    -2.20e-02  5.08e-05  4.17e-03  4.03e-02  0.850   3.3
    9    -1953.4043077368683043    -1.83e-02  4.27e-05  3.54e-03  3.34e-02  0.850   3.4
   10    -1953.4194735881842462    -1.52e-02  3.54e-05  2.97e-03  2.81e-02  0.850   3.2
   11    -1953.4321281843817815    -1.27e-02  1.98e-04  1.68e-02  2.43e-02  0.000   3.2
   12    -1953.5007293948724509    -6.86e-02  1.68e-05  2.48e-03  4.81e-03  0.000   3.5
   13    -1953.5007520126678173    -2.26e-05  6.85e-06  9.28e-04  3.56e-03  0.000   2.9
                              *** Initializing SOSCF ***
---------------------------------------S-O-S-C-F--------------------------------------
Iteration    Energy (Eh)           Delta-E    RMSDP     MaxDP     MaxGrad    Time(sec)
--------------------------------------------------------------------------------------
   14    -1953.5007706104784120    -1.86e-05  2.23e-06  1.51e-04  5.20e-04     3.1
               *** Restarting incremental Fock matrix formation ***
   15    -1953.5007954943744153    -2.49e-05  3.29e-06  2.10e-04  6.69e-05     6.4
   16    -1953.5007954904463077     3.93e-09  1.49e-06  1.07e-04  8.55e-05     3.8
                 **** Energy Check signals convergence ****

               *****************************************************
               *                     SUCCESS                       *
               *           SCF CONVERGED AFTER  16 CYCLES          *
               *****************************************************

Recomputing exchange energy using gridx3       ... done (    8.679 sec)
Old exchange energy                            :    -41.767441756 Eh
New exchange energy                            :    -41.767464655 Eh
Exchange energy change after final integration :     -0.000022899 Eh
Total energy after final integration           :  -1953.500818389 Eh

SMD CDS free energy correction energy :                 3.74045     Kcal/mol
Total Energy after SMD CDS correction =             -1953.494857604 Eh
             **** ENERGY FILE WAS UPDATED (rf_mecn_opt_B3L_P_A.en.tmp) ****

----------------
TOTAL SCF ENERGY
----------------

Total Energy       :      -1953.49485760422476 Eh          -53157.29754 eV

Components:
Nuclear Repulsion  :       2882.92091101424694 Eh           78448.26622 eV
Electronic Energy  :      -4836.40522303345642 Eh         -131605.27680 eV
One Electron Energy:      -8455.74018332072774 Eh         -230092.38806 eV
Two Electron Energy:       3619.33496028727177 Eh           98487.11126 eV
CPCM Dielectric    :         -0.01648347123733 Eh              -0.44854 eV
SMD CDS (Gcds)     :          0.00596078508000 Eh               0.16220 eV

Virial components:
Potential Energy   :      -3899.22801900805598 Eh         -106103.38859 eV
Kinetic Energy     :       1945.73316140383122 Eh           52946.09105 eV
Virial Ratio       :          2.00398908563330

DFT components:
N(Alpha)           :       99.999965242839 electrons
N(Beta)            :       99.999965242839 electrons
N(Total)           :      199.999930485678 electrons
E(X)               :     -166.508058747654 Eh       
E(C)               :       -8.784542367870 Eh       
E(XC)              :     -175.292601115524 Eh       

CPCM Solvation Model Properties:
Surface-charge          :         -0.00907520190753
Corrected charge        :          0.00000000000000
Outlying charge corr.   :          0.00000446321541 Eh               0.00012 eV
Free-energy (cav+disp)  :          0.00596078508000 Eh               0.16220 eV

---------------
SCF CONVERGENCE
---------------

  Last Energy change         ...   -3.9281e-09  Tolerance :   1.0000e-08
  Last MAX-Density change    ...    1.0671e-04  Tolerance :   1.0000e-07
  Last RMS-Density change    ...    1.4856e-06  Tolerance :   5.0000e-09
  Last DIIS Error            ...    5.2033e-04  Tolerance :   5.0000e-07
  Last Orbital Gradient      ...    8.5549e-05  Tolerance :   1.0000e-05
  Last Orbital Rotation      ...    5.0305e-05  Tolerance :   1.0000e-05


----------------
ORBITAL ENERGIES
----------------

  NO   OCC          E(Eh)            E(eV) 
   0   2.0000     -24.747289      -673.4080 
   1   2.0000     -24.747089      -673.4025 
   2   2.0000     -24.746974      -673.3994 
   3   2.0000     -24.746342      -673.3822 
   4   2.0000     -24.746313      -673.3814 
   5   2.0000     -24.746267      -673.3802 
   6   2.0000     -24.746192      -673.3781 
   7   2.0000     -24.745490      -673.3590 
   8   2.0000     -24.745286      -673.3535 
   9   2.0000     -24.745176      -673.3505 
  10   2.0000     -24.743722      -673.3109 
  11   2.0000     -24.742229      -673.2703 
  12   2.0000     -24.739803      -673.2043 
  13   2.0000     -24.733588      -673.0351 
  14   2.0000     -24.733544      -673.0340 
  15   2.0000     -19.204896      -522.5918 
  16   2.0000     -19.173582      -521.7397 
  17   2.0000     -10.465137      -284.7708 
  18   2.0000     -10.414730      -283.3992 
  19   2.0000     -10.414192      -283.3846 
  20   2.0000     -10.412582      -283.3408 
  21   2.0000     -10.412274      -283.3324 
  22   2.0000     -10.411000      -283.2977 
  23   2.0000     -10.410316      -283.2791 
  24   2.0000     -10.407156      -283.1931 
  25   2.0000      -1.353109       -36.8200 
  26   2.0000      -1.333846       -36.2958 
  27   2.0000      -1.320432       -35.9308 
  28   2.0000      -1.309144       -35.6236 
  29   2.0000      -1.307827       -35.5878 
  30   2.0000      -1.303823       -35.4788 
  31   2.0000      -1.286705       -35.0130 
  32   2.0000      -1.268797       -34.5257 
  33   2.0000      -1.263894       -34.3923 
  34   2.0000      -1.261214       -34.3194 
  35   2.0000      -1.257702       -34.2238 
  36   2.0000      -1.252841       -34.0915 
  37   2.0000      -1.251447       -34.0536 
  38   2.0000      -1.248672       -33.9781 
  39   2.0000      -1.233302       -33.5599 
  40   2.0000      -1.090884       -29.6845 
  41   2.0000      -1.004460       -27.3327 
  42   2.0000      -0.855752       -23.2862 
  43   2.0000      -0.839697       -22.8493 
  44   2.0000      -0.814216       -22.1559 
  45   2.0000      -0.780322       -21.2336 
  46   2.0000      -0.746146       -20.3037 
  47   2.0000      -0.715351       -19.4657 
  48   2.0000      -0.692027       -18.8310 
  49   2.0000      -0.679924       -18.5017 
  50   2.0000      -0.654476       -17.8092 
  51   2.0000      -0.650012       -17.6877 
  52   2.0000      -0.640898       -17.4397 
  53   2.0000      -0.635915       -17.3041 
  54   2.0000      -0.633891       -17.2490 
  55   2.0000      -0.630968       -17.1695 
  56   2.0000      -0.619662       -16.8619 
  57   2.0000      -0.614460       -16.7203 
  58   2.0000      -0.612037       -16.6544 
  59   2.0000      -0.605148       -16.4669 
  60   2.0000      -0.598796       -16.2941 
  61   2.0000      -0.591717       -16.1014 
  62   2.0000      -0.588126       -16.0037 
  63   2.0000      -0.583776       -15.8854 
  64   2.0000      -0.573953       -15.6181 
  65   2.0000      -0.520892       -14.1742 
  66   2.0000      -0.517705       -14.0875 
  67   2.0000      -0.511923       -13.9301 
  68   2.0000      -0.511228       -13.9112 
  69   2.0000      -0.504624       -13.7315 
  70   2.0000      -0.502964       -13.6864 
  71   2.0000      -0.501418       -13.6443 
  72   2.0000      -0.498128       -13.5547 
  73   2.0000      -0.492439       -13.4000 
  74   2.0000      -0.489931       -13.3317 
  75   2.0000      -0.489286       -13.3141 
  76   2.0000      -0.482636       -13.1332 
  77   2.0000      -0.479971       -13.0607 
  78   2.0000      -0.478577       -13.0227 
  79   2.0000      -0.471815       -12.8387 
  80   2.0000      -0.467288       -12.7156 
  81   2.0000      -0.465545       -12.6681 
  82   2.0000      -0.458270       -12.4701 
  83   2.0000      -0.456202       -12.4139 
  84   2.0000      -0.454891       -12.3782 
  85   2.0000      -0.452158       -12.3038 
  86   2.0000      -0.451135       -12.2760 
  87   2.0000      -0.447889       -12.1877 
  88   2.0000      -0.447540       -12.1782 
  89   2.0000      -0.443942       -12.0803 
  90   2.0000      -0.441671       -12.0185 
  91   2.0000      -0.440229       -11.9792 
  92   2.0000      -0.437872       -11.9151 
  93   2.0000      -0.434533       -11.8242 
  94   2.0000      -0.420308       -11.4372 
  95   2.0000      -0.392872       -10.6906 
  96   2.0000      -0.367878       -10.0105 
  97   2.0000      -0.352892        -9.6027 
  98   2.0000      -0.345476        -9.4009 
  99   2.0000      -0.320502        -8.7213 
 100   0.0000      -0.100175        -2.7259 
 101   0.0000      -0.027704        -0.7539 
 102   0.0000      -0.009546        -0.2598 
 103   0.0000      -0.001725        -0.0469 
 104   0.0000       0.023602         0.6422 
 105   0.0000       0.032345         0.8801 
 106   0.0000       0.069683         1.8962 
 107   0.0000       0.078999         2.1497 
 108   0.0000       0.093357         2.5404 
 109   0.0000       0.096128         2.6158 
 110   0.0000       0.102918         2.8005 
*Only the first 10 virtual orbitals were printed.

                    ********************************
                    * MULLIKEN POPULATION ANALYSIS *
                    ********************************

-----------------------
MULLIKEN ATOMIC CHARGES
-----------------------
   0 C :    0.388902
   1 O :   -0.451554
   2 O :   -0.388179
   3 C :    0.375532
   4 C :    0.343221
   5 C :    0.339550
   6 C :    0.328170
   7 C :    0.316196
   8 C :    0.325126
   9 C :    0.477121
  10 F :   -0.181574
  11 F :   -0.183075
  12 F :   -0.170681
  13 F :   -0.175092
  14 F :   -0.168679
  15 F :   -0.169381
  16 F :   -0.167651
  17 F :   -0.167371
  18 F :   -0.167618
  19 F :   -0.167230
  20 F :   -0.166138
  21 F :   -0.162433
  22 F :   -0.155613
  23 F :   -0.151981
  24 F :   -0.152601
  25 H :    0.453033
Sum of atomic charges:   -0.0000000

--------------------------------
MULLIKEN REDUCED ORBITAL CHARGES
--------------------------------
  0 C s       :     3.160057  s :     3.160057
      pz      :     0.776323  p :     2.229262
      px      :     0.788478
      py      :     0.664461
      dz2     :     0.015349  d :     0.203672
      dxz     :     0.014737
      dyz     :     0.057176
      dx2y2   :     0.050702
      dxy     :     0.065707
      f0      :     0.001743  f :     0.018107
      f+1     :     0.001068
      f-1     :     0.002348
      f+2     :     0.002581
      f-2     :     0.001943
      f+3     :     0.003919
      f-3     :     0.004505

  1 O s       :     3.664354  s :     3.664354
      pz      :     1.725288  p :     4.770642
      px      :     1.690403
      py      :     1.354951
      dz2     :     0.001633  d :     0.013738
      dxz     :     0.001146
      dyz     :     0.002997
      dx2y2   :     0.003092
      dxy     :     0.004871
      f0      :     0.000276  f :     0.002820
      f+1     :     0.000129
      f-1     :     0.000378
      f+2     :     0.000242
      f-2     :     0.000433
      f+3     :     0.000923
      f-3     :     0.000441

  2 O s       :     3.878867  s :     3.878867
      pz      :     1.540078  p :     4.483258
      px      :     1.696364
      py      :     1.246816
      dz2     :     0.003271  d :     0.024774
      dxz     :     0.000322
      dyz     :     0.006530
      dx2y2   :     0.009203
      dxy     :     0.005448
      f0      :     0.000116  f :     0.001281
      f+1     :     0.000012
      f-1     :     0.000222
      f+2     :     0.000222
      f-2     :     0.000029
      f+3     :     0.000288
      f-3     :     0.000392

  3 C s       :     3.120284  s :     3.120284
      pz      :     0.678342  p :     2.221588
      px      :     0.903556
      py      :     0.639690
      dz2     :     0.045461  d :     0.257364
      dxz     :     0.051622
      dyz     :     0.064164
      dx2y2   :     0.043923
      dxy     :     0.052195
      f0      :     0.005345  f :     0.025232
      f+1     :     0.003583
      f-1     :     0.003907
      f+2     :     0.003596
      f-2     :     0.002024
      f+3     :     0.003710
      f-3     :     0.003066

  4 C s       :     3.130069  s :     3.130069
      pz      :     0.608792  p :     2.221009
      px      :     0.916081
      py      :     0.696136
      dz2     :     0.059888  d :     0.278283
      dxz     :     0.058680
      dyz     :     0.067288
      dx2y2   :     0.033898
      dxy     :     0.058530
      f0      :     0.003796  f :     0.027419
      f+1     :     0.004842
      f-1     :     0.007886
      f+2     :     0.002235
      f-2     :     0.002630
      f+3     :     0.003457
      f-3     :     0.002572

  5 C s       :     3.155741  s :     3.155741
      pz      :     0.588620  p :     2.191844
      px      :     0.896569
      py      :     0.706656
      dz2     :     0.073806  d :     0.285153
      dxz     :     0.061295
      dyz     :     0.058349
      dx2y2   :     0.033018
      dxy     :     0.058686
      f0      :     0.004946  f :     0.027712
      f+1     :     0.004355
      f-1     :     0.006212
      f+2     :     0.003183
      f-2     :     0.004292
      f+3     :     0.002496
      f-3     :     0.002228

  6 C s       :     3.152455  s :     3.152455
      pz      :     0.580599  p :     2.207199
      px      :     0.910262
      py      :     0.716339
      dz2     :     0.078816  d :     0.284486
      dxz     :     0.061092
      dyz     :     0.053668
      dx2y2   :     0.032823
      dxy     :     0.058087
      f0      :     0.006010  f :     0.027690
      f+1     :     0.003909
      f-1     :     0.004575
      f+2     :     0.004036
      f-2     :     0.005126
      f+3     :     0.002050
      f-3     :     0.001985

  7 C s       :     3.150831  s :     3.150831
      pz      :     0.589598  p :     2.221039
      px      :     0.923252
      py      :     0.708189
      dz2     :     0.072537  d :     0.284254
      dxz     :     0.061010
      dyz     :     0.059689
      dx2y2   :     0.032892
      dxy     :     0.058126
      f0      :     0.004788  f :     0.027680
      f+1     :     0.004333
      f-1     :     0.006517
      f+2     :     0.003046
      f-2     :     0.004211
      f+3     :     0.002577
      f-3     :     0.002209

  8 C s       :     3.130358  s :     3.130358
      pz      :     0.619816  p :     2.239350
      px      :     0.928756
      py      :     0.690778
      dz2     :     0.057650  d :     0.277494
      dxz     :     0.059008
      dyz     :     0.069887
      dx2y2   :     0.033961
      dxy     :     0.056988
      f0      :     0.003804  f :     0.027672
      f+1     :     0.004910
      f-1     :     0.008095
      f+2     :     0.002218
      f-2     :     0.002381
      f+3     :     0.003713
      f-3     :     0.002551

  9 C s       :     3.026721  s :     3.026721
      pz      :     0.650988  p :     2.113671
      px      :     0.799987
      py      :     0.662697
      dz2     :     0.064674  d :     0.342598
      dxz     :     0.067167
      dyz     :     0.083050
      dx2y2   :     0.061813
      dxy     :     0.065894
      f0      :     0.004872  f :     0.039889
      f+1     :     0.007791
      f-1     :     0.008752
      f+2     :     0.004372
      f-2     :     0.003097
      f+3     :     0.007272
      f-3     :     0.003733

 10 F s       :     3.920253  s :     3.920253
      pz      :     1.896891  p :     5.245611
      px      :     1.887433
      py      :     1.461287
      dz2     :     0.002164  d :     0.015079
      dxz     :     0.000293
      dyz     :     0.002845
      dx2y2   :     0.005782
      dxy     :     0.003995
      f0      :     0.000049  f :     0.000631
      f+1     :     0.000015
      f-1     :     0.000129
      f+2     :     0.000070
      f-2     :     0.000018
      f+3     :     0.000168
      f-3     :     0.000182

 11 F s       :     3.919999  s :     3.919999
      pz      :     1.476565  p :     5.247860
      px      :     1.901996
      py      :     1.869300
      dz2     :     0.006673  d :     0.014594
      dxz     :     0.003384
      dyz     :     0.003670
      dx2y2   :     0.000432
      dxy     :     0.000436
      f0      :     0.000224  f :     0.000621
      f+1     :     0.000136
      f-1     :     0.000181
      f+2     :     0.000037
      f-2     :     0.000037
      f+3     :     0.000003
      f-3     :     0.000002

 12 F s       :     3.917302  s :     3.917302
      pz      :     1.811541  p :     5.236471
      px      :     1.906126
      py      :     1.518804
      dz2     :     0.002041  d :     0.016213
      dxz     :     0.000779
      dyz     :     0.005293
      dx2y2   :     0.004851
      dxy     :     0.003249
      f0      :     0.000080  f :     0.000695
      f+1     :     0.000003
      f-1     :     0.000121
      f+2     :     0.000187
      f-2     :     0.000063
      f+3     :     0.000107
      f-3     :     0.000135

 13 F s       :     3.919791  s :     3.919791
      pz      :     1.448149  p :     5.238545
      px      :     1.908043
      py      :     1.882352
      dz2     :     0.008393  d :     0.016070
      dxz     :     0.003660
      dyz     :     0.003472
      dx2y2   :     0.000268
      dxy     :     0.000277
      f0      :     0.000343  f :     0.000686
      f+1     :     0.000152
      f-1     :     0.000161
      f+2     :     0.000011
      f-2     :     0.000017
      f+3     :     0.000001
      f-3     :     0.000001

 14 F s       :     3.917136  s :     3.917136
      pz      :     1.706745  p :     5.234491
      px      :     1.905244
      py      :     1.622502
      dz2     :     0.002634  d :     0.016354
      dxz     :     0.001594
      dyz     :     0.006542
      dx2y2   :     0.003079
      dxy     :     0.002504
      f0      :     0.000078  f :     0.000698
      f+1     :     0.000013
      f-1     :     0.000187
      f+2     :     0.000196
      f-2     :     0.000104
      f+3     :     0.000059
      f-3     :     0.000062

 15 F s       :     3.917145  s :     3.917145
      pz      :     1.500625  p :     5.235199
      px      :     1.908400
      py      :     1.826174
      dz2     :     0.006783  d :     0.016340
      dxz     :     0.003243
      dyz     :     0.004906
      dx2y2   :     0.000621
      dxy     :     0.000788
      f0      :     0.000232  f :     0.000698
      f+1     :     0.000106
      f-1     :     0.000242
      f+2     :     0.000051
      f-2     :     0.000059
      f+3     :     0.000005
      f-3     :     0.000004

 16 F s       :     3.917894  s :     3.917894
      pz      :     1.592041  p :     5.232692
      px      :     1.904363
      py      :     1.736288
      dz2     :     0.004472  d :     0.016368
      dxz     :     0.002559
      dyz     :     0.006278
      dx2y2   :     0.001524
      dxy     :     0.001536
      f0      :     0.000117  f :     0.000698
      f+1     :     0.000054
      f-1     :     0.000262
      f+2     :     0.000126
      f-2     :     0.000100
      f+3     :     0.000021
      f-3     :     0.000018

 17 F s       :     3.917854  s :     3.917854
      pz      :     1.603036  p :     5.232414
      px      :     1.905071
      py      :     1.724307
      dz2     :     0.004244  d :     0.016403
      dxz     :     0.002460
      dyz     :     0.006399
      dx2y2   :     0.001664
      dxy     :     0.001636
      f0      :     0.000109  f :     0.000700
      f+1     :     0.000048
      f-1     :     0.000259
      f+2     :     0.000136
      f-2     :     0.000103
      f+3     :     0.000024
      f-3     :     0.000021

 18 F s       :     3.918042  s :     3.918042
      pz      :     1.718542  p :     5.232454
      px      :     1.906193
      py      :     1.607720
      dz2     :     0.002525  d :     0.016421
      dxz     :     0.001477
      dyz     :     0.006525
      dx2y2   :     0.003309
      dxy     :     0.002586
      f0      :     0.000078  f :     0.000700
      f+1     :     0.000010
      f-1     :     0.000179
      f+2     :     0.000203
      f-2     :     0.000098
      f+3     :     0.000063
      f-3     :     0.000069

 19 F s       :     3.918105  s :     3.918105
      pz      :     1.494449  p :     5.232030
      px      :     1.905031
      py      :     1.832550
      dz2     :     0.006989  d :     0.016397
      dxz     :     0.003380
      dyz     :     0.004763
      dx2y2   :     0.000573
      dxy     :     0.000691
      f0      :     0.000244  f :     0.000699
      f+1     :     0.000114
      f-1     :     0.000234
      f+2     :     0.000045
      f-2     :     0.000055
      f+3     :     0.000004
      f-3     :     0.000003

 20 F s       :     3.917459  s :     3.917459
      pz      :     1.821228  p :     5.231701
      px      :     1.902694
      py      :     1.507779
      dz2     :     0.002043  d :     0.016281
      dxz     :     0.000640
      dyz     :     0.005113
      dx2y2   :     0.005091
      dxy     :     0.003394
      f0      :     0.000079  f :     0.000696
      f+1     :     0.000004
      f-1     :     0.000119
      f+2     :     0.000181
      f-2     :     0.000054
      f+3     :     0.000114
      f-3     :     0.000146

 21 F s       :     3.915130  s :     3.915130
      pz      :     1.442558  p :     5.230128
      px      :     1.902371
      py      :     1.885198
      dz2     :     0.008714  d :     0.016462
      dxz     :     0.003894
      dyz     :     0.003450
      dx2y2   :     0.000199
      dxy     :     0.000205
      f0      :     0.000363  f :     0.000713
      f+1     :     0.000167
      f-1     :     0.000159
      f+2     :     0.000009
      f-2     :     0.000013
      f+3     :     0.000001
      f-3     :     0.000001

 22 F s       :     3.913248  s :     3.913248
      pz      :     1.860371  p :     5.225178
      px      :     1.893936
      py      :     1.470872
      dz2     :     0.002240  d :     0.016444
      dxz     :     0.000324
      dyz     :     0.004282
      dx2y2   :     0.006140
      dxy     :     0.003458
      f0      :     0.000076  f :     0.000743
      f+1     :     0.000008
      f-1     :     0.000136
      f+2     :     0.000150
      f-2     :     0.000027
      f+3     :     0.000138
      f-3     :     0.000209

 23 F s       :     3.912054  s :     3.912054
      pz      :     1.825672  p :     5.222606
      px      :     1.606601
      py      :     1.790333
      dz2     :     0.002181  d :     0.016565
      dxz     :     0.003969
      dyz     :     0.001871
      dx2y2   :     0.003664
      dxy     :     0.004880
      f0      :     0.000085  f :     0.000757
      f+1     :     0.000099
      f-1     :     0.000039
      f+2     :     0.000079
      f-2     :     0.000168
      f+3     :     0.000120
      f-3     :     0.000168

 24 F s       :     3.911832  s :     3.911832
      pz      :     1.441459  p :     5.223387
      px      :     1.892747
      py      :     1.889181
      dz2     :     0.009120  d :     0.016625
      dxz     :     0.003721
      dyz     :     0.003447
      dx2y2   :     0.000192
      dxy     :     0.000144
      f0      :     0.000399  f :     0.000758
      f+1     :     0.000171
      f-1     :     0.000168
      f+2     :     0.000011
      f-2     :     0.000007
      f+3     :     0.000001
      f-3     :     0.000001

 25 H s       :     0.494964  s :     0.494964
      pz      :     0.014583  p :     0.052003
      px      :     0.016674
      py      :     0.020746



                     *******************************
                     * LOEWDIN POPULATION ANALYSIS *
                     *******************************

----------------------
LOEWDIN ATOMIC CHARGES
----------------------
   0 C :   -0.223571
   1 O :    0.103354
   2 O :   -0.052465
   3 C :   -0.371788
   4 C :   -0.434806
   5 C :   -0.442896
   6 C :   -0.441415
   7 C :   -0.443270
   8 C :   -0.449551
   9 C :   -0.648293
  10 F :    0.171769
  11 F :    0.161339
  12 F :    0.214074
  13 F :    0.208952
  14 F :    0.218451
  15 F :    0.216033
  16 F :    0.218466
  17 F :    0.219224
  18 F :    0.219866
  19 F :    0.218643
  20 F :    0.216577
  21 F :    0.219078
  22 F :    0.219268
  23 F :    0.222056
  24 F :    0.222024
  25 H :    0.238881

-------------------------------
LOEWDIN REDUCED ORBITAL CHARGES
-------------------------------
  0 C s       :     2.833355  s :     2.833355
      pz      :     0.796064  p :     2.530104
      px      :     0.848770
      py      :     0.885270
      dz2     :     0.075255  d :     0.763714
      dxz     :     0.065907
      dyz     :     0.174788
      dx2y2   :     0.235748
      dxy     :     0.212016
      f0      :     0.008270  f :     0.096397
      f+1     :     0.004246
      f-1     :     0.015400
      f+2     :     0.011092
      f-2     :     0.012323
      f+3     :     0.020007
      f-3     :     0.025059

  1 O s       :     3.253477  s :     3.253477
      pz      :     1.621824  p :     4.603554
      px      :     1.599913
      py      :     1.381818
      dz2     :     0.003751  d :     0.034657
      dxz     :     0.003344
      dyz     :     0.007631
      dx2y2   :     0.008314
      dxy     :     0.011617
      f0      :     0.000515  f :     0.004958
      f+1     :     0.000195
      f-1     :     0.000618
      f+2     :     0.000374
      f-2     :     0.000771
      f+3     :     0.001888
      f-3     :     0.000596

  2 O s       :     3.549671  s :     3.549671
      pz      :     1.474259  p :     4.452506
      px      :     1.611828
      py      :     1.366419
      dz2     :     0.007163  d :     0.047086
      dxz     :     0.000454
      dyz     :     0.009224
      dx2y2   :     0.021301
      dxy     :     0.008945
      f0      :     0.000241  f :     0.003202
      f+1     :     0.000034
      f-1     :     0.000669
      f+2     :     0.000416
      f-2     :     0.000059
      f+3     :     0.000607
      f-3     :     0.001175

  3 C s       :     2.788542  s :     2.788542
      pz      :     0.807719  p :     2.573101
      px      :     0.993847
      py      :     0.771534
      dz2     :     0.185838  d :     0.853417
      dxz     :     0.167142
      dyz     :     0.172521
      dx2y2   :     0.170127
[...]
      dz2     :     0.005686  d :     0.031351
      dxz     :     0.004174
      dyz     :     0.012968
      dx2y2   :     0.004353
      dxy     :     0.004169
      f0      :     0.000214  f :     0.001571
      f+1     :     0.000063
      f-1     :     0.000456
      f+2     :     0.000356
      f-2     :     0.000291
      f+3     :     0.000116
      f-3     :     0.000075

 17 F s       :     3.590908  s :     3.590908
      pz      :     1.591240  p :     5.149488
      px      :     1.817210
      py      :     1.741038
      dz2     :     0.010220  d :     0.031334
      dxz     :     0.006454
      dyz     :     0.010833
      dx2y2   :     0.001663
      dxy     :     0.002164
      f0      :     0.000376  f :     0.001570
      f+1     :     0.000225
      f-1     :     0.000517
      f+2     :     0.000174
      f-2     :     0.000232
      f+3     :     0.000028
      f-3     :     0.000018

 18 F s       :     3.591303  s :     3.591303
      pz      :     1.663154  p :     5.149289
      px      :     1.820789
      py      :     1.665345
      dz2     :     0.005772  d :     0.031287
      dxz     :     0.004217
      dyz     :     0.012953
      dx2y2   :     0.004241
      dxy     :     0.004104
      f0      :     0.000217  f :     0.001568
      f+1     :     0.000065
      f-1     :     0.000459
      f+2     :     0.000352
      f-2     :     0.000291
      f+3     :     0.000112
      f-3     :     0.000072

 19 F s       :     3.591309  s :     3.591309
      pz      :     1.592401  p :     5.149058
      px      :     1.818379
      py      :     1.738278
      dz2     :     0.010105  d :     0.031341
      dxz     :     0.006360
      dyz     :     0.010979
      dx2y2   :     0.001706
      dxy     :     0.002190
      f0      :     0.000372  f :     0.001571
      f+1     :     0.000217
      f-1     :     0.000522
      f+2     :     0.000179
      f-2     :     0.000234
      f+3     :     0.000030
      f-3     :     0.000018

 20 F s       :     3.592809  s :     3.592809
      pz      :     1.730109  p :     5.150372
      px      :     1.817534
      py      :     1.602729
      dz2     :     0.003870  d :     0.031114
      dxz     :     0.002493
      dyz     :     0.011332
      dx2y2   :     0.007338
      dxy     :     0.006081
      f0      :     0.000166  f :     0.001565
      f+1     :     0.000014
      f-1     :     0.000329
      f+2     :     0.000396
      f-2     :     0.000242
      f+3     :     0.000233
      f-3     :     0.000184

 21 F s       :     3.591516  s :     3.591516
      pz      :     1.541532  p :     5.149608
      px      :     1.822042
      py      :     1.786033
      dz2     :     0.014634  d :     0.031421
      dxz     :     0.007513
      dyz     :     0.007871
      dx2y2   :     0.000538
      dxy     :     0.000865
      f0      :     0.000600  f :     0.001592
      f+1     :     0.000370
      f-1     :     0.000457
      f+2     :     0.000046
      f-2     :     0.000110
      f+3     :     0.000006
      f-3     :     0.000002

 22 F s       :     3.595019  s :     3.595019
      pz      :     1.759475  p :     5.146863
      px      :     1.806425
      py      :     1.580963
      dz2     :     0.003836  d :     0.030841
      dxz     :     0.001281
      dyz     :     0.010317
      dx2y2   :     0.009387
      dxy     :     0.006022
      f0      :     0.000174  f :     0.001645
      f+1     :     0.000009
      f-1     :     0.000311
      f+2     :     0.000416
      f-2     :     0.000152
      f+3     :     0.000285
      f-3     :     0.000299

 23 F s       :     3.595077  s :     3.595077
      pz      :     1.789022  p :     5.146145
      px      :     1.641634
      py      :     1.715489
      dz2     :     0.004148  d :     0.030969
      dxz     :     0.005026
      dyz     :     0.003741
      dx2y2   :     0.006701
      dxy     :     0.011353
      f0      :     0.000156  f :     0.001665
      f+1     :     0.000197
      f-1     :     0.000130
      f+2     :     0.000085
      f-2     :     0.000343
      f+3     :     0.000362
      f-3     :     0.000392

 24 F s       :     3.593562  s :     3.593562
      pz      :     1.530818  p :     5.145887
      px      :     1.808101
      py      :     1.806967
      dz2     :     0.017603  d :     0.031098
      dxz     :     0.006893
      dyz     :     0.006037
      dx2y2   :     0.000228
      dxy     :     0.000338
      f0      :     0.000798  f :     0.001668
      f+1     :     0.000402
      f-1     :     0.000403
      f+2     :     0.000020
      f-2     :     0.000041
      f+3     :     0.000001
      f-3     :     0.000003

 25 H s       :     0.623609  s :     0.623609
      pz      :     0.035692  p :     0.143406
      px      :     0.067244
      py      :     0.040470



                      *****************************
                      * MAYER POPULATION ANALYSIS *
                      *****************************

  NA   - Mulliken gross atomic population
  ZA   - Total nuclear charge
  QA   - Mulliken gross atomic charge
  VA   - Mayer's total valence
  BVA  - Mayer's bonded valence
  FA   - Mayer's free valence

  ATOM       NA         ZA         QA         VA         BVA        FA
  0 C      5.7725     6.0000     0.2275     4.3951     4.3951    -0.0000
  1 O      8.3472     8.0000    -0.3472     2.1771     2.1771     0.0000
  2 O      8.2846     8.0000    -0.2846     2.2070     2.2070    -0.0000
  3 C      5.5869     6.0000     0.4131     4.1131     4.1131    -0.0000
  4 C      5.6929     6.0000     0.3071     4.1229     4.1229     0.0000
  5 C      5.6715     6.0000     0.3285     4.1749     4.1749     0.0000
  6 C      5.6656     6.0000     0.3344     4.1624     4.1624     0.0000
  7 C      5.6870     6.0000     0.3130     4.1343     4.1343     0.0000
  8 C      5.6759     6.0000     0.3241     4.1799     4.1799    -0.0000
  9 C      5.5237     6.0000     0.4763     4.5152     4.5152    -0.0000
 10 F      9.1765     9.0000    -0.1765     1.1363     1.1363    -0.0000
 11 F      9.1721     9.0000    -0.1721     1.1440     1.1440    -0.0000
 12 F      9.1703     9.0000    -0.1703     1.1511     1.1511    -0.0000
 13 F      9.1716     9.0000    -0.1716     1.1486     1.1486     0.0000
 14 F      9.1676     9.0000    -0.1676     1.1525     1.1525     0.0000
 15 F      9.1658     9.0000    -0.1658     1.1545     1.1545    -0.0000
 16 F      9.1659     9.0000    -0.1659     1.1546     1.1546     0.0000
 17 F      9.1664     9.0000    -0.1664     1.1542     1.1542     0.0000
 18 F      9.1666     9.0000    -0.1666     1.1552     1.1552     0.0000
 19 F      9.1657     9.0000    -0.1657     1.1552     1.1552    -0.0000
 20 F      9.1649     9.0000    -0.1649     1.1550     1.1550     0.0000
 21 F      9.1614     9.0000    -0.1614     1.1567     1.1567     0.0000
 22 F      9.1546     9.0000    -0.1546     1.1638     1.1638    -0.0000
 23 F      9.1519     9.0000    -0.1519     1.1685     1.1685    -0.0000
 24 F      9.1520     9.0000    -0.1520     1.1675     1.1675     0.0000
 25 H      0.6190     1.0000     0.3810     0.8794     0.8794    -0.0000

  Mayer bond orders larger than 0.100000
B(  0-C ,  1-O ) :   1.3086 B(  0-C ,  2-O ) :   2.0845 B(  0-C ,  3-C ) :   0.8997 
B(  1-O , 25-H ) :   0.8216 B(  3-C ,  4-C ) :   0.9435 B(  3-C , 10-F ) :   1.0894 
B(  3-C , 11-F ) :   1.1058 B(  4-C ,  5-C ) :   0.9345 B(  4-C , 12-F ) :   1.0812 
B(  4-C , 13-F ) :   1.0764 B(  5-C ,  6-C ) :   0.9392 B(  5-C , 14-F ) :   1.0828 
B(  5-C , 15-F ) :   1.0848 B(  6-C ,  7-C ) :   0.9328 B(  6-C , 16-F ) :   1.0826 
B(  6-C , 17-F ) :   1.0808 B(  7-C ,  8-C ) :   0.9262 B(  7-C , 18-F ) :   1.0821 
B(  7-C , 19-F ) :   1.0897 B(  8-C ,  9-C ) :   0.9691 B(  8-C , 20-F ) :   1.0875 
B(  8-C , 21-F ) :   1.0985 B(  9-C , 22-F ) :   1.1443 B(  9-C , 23-F ) :   1.1481 
B(  9-C , 24-F ) :   1.1564 

-------
TIMINGS
-------

Total SCF time: 0 days 0 hours 0 min 39 sec 

Total time                  ....      39.436 sec
Sum of individual times     ....      38.790 sec  ( 98.4%)

SCF preparation             ....       1.410 sec  (  3.6%)
Fock matrix formation       ....      32.432 sec  ( 82.2%)
  Startup                   ....       0.099 sec  (  0.3% of F)
  Split-RI-J                ....       2.695 sec  (  8.3% of F)
  Chain of spheres X        ....      22.302 sec  ( 68.8% of F)
  XC integration            ....       4.738 sec  ( 14.6% of F)
    XC Preparation          ....       0.000 sec  (  0.0% of XC)
    Basis function eval.    ....       0.630 sec  ( 13.3% of XC)
    Density eval.           ....       0.686 sec  ( 14.5% of XC)
    XC-Functional eval.     ....       0.036 sec  (  0.8% of XC)
    XC-Potential eval.      ....       0.643 sec  ( 13.6% of XC)
  CPCM terms                ....       2.332 sec  (  7.2% of F)
Diagonalization             ....       0.000 sec  (  0.0%)
Density matrix formation    ....       0.540 sec  (  1.4%)
Total Energy calculation    ....       0.201 sec  (  0.5%)
Population analysis         ....       0.405 sec  (  1.0%)
Orbital Transformation      ....       0.560 sec  (  1.4%)
Orbital Orthonormalization  ....       0.000 sec  (  0.0%)
DIIS solution               ....       2.501 sec  (  6.3%)
SOSCF solution              ....       0.741 sec  (  1.9%)
Finished LeanSCF after  39.9 sec

Maximum memory used throughout the entire LEANSCF-calculation: 102.2 MB


-------------------------------------------------------------------------------
                          DFT DISPERSION CORRECTION                            
                                                                               
                              DFTD3 V3.1  Rev 1                                
                          USING Becke-Johnson damping                          
-------------------------------------------------------------------------------
The B3LYP functional is recognized
Active option DFTDOPT                   ...         4   

molecular C6(AA) [au] = 6840.666244 


            DFT-D V3
 parameters
 s6 scaling factor         :     1.0000 
 a1 scaling factor         :     0.3981 
 s8 scaling factor         :     1.9889 
 a2 scaling factor         :     4.4211 
 ad hoc parameters k1-k3   :    16.0000     1.3333    -4.0000 

 Edisp/kcal,au: -28.283172661555  -0.045072099807 
 E6   /kcal   : -13.493338576 
 E8   /kcal   : -14.789834086 
 % E8         :  52.291990940 

-------------------------   ----------------
Dispersion correction           -0.045072100
-------------------------   ----------------


-------------------------   --------------------
FINAL SINGLE POINT ENERGY     -1953.644667241723
-------------------------   --------------------

                                *** OPTIMIZATION RUN DONE ***



           ************************************************************
           *        Program running with 20 parallel MPI-processes    *
           *              working on a common directory               *
           ************************************************************

------------------------------------------------------------------------------
                              ORCA PROPERTY CALCULATIONS
------------------------------------------------------------------------------

GBWName                                 ... rf_mecn_opt_B3L_P_A.gbw
Number of atoms                         ...     26
Number of basis functions               ...    781
Max core memory                         ...   8000 MB

Electric properties:
Dipole moment                           ... YES
Quadrupole moment                       ...  NO
Static polarizability (Dipole/Dipole)   ...  NO
Static polarizability (Dipole/Quad.)    ...  NO
Static polarizability (Quad./Quad.)     ...  NO
Static polarizability (Velocity)        ...  NO

Atomic electric properties:
Dipole moment                           ...  NO
Quadrupole moment                       ...  NO
Static polarizability                   ...  NO

Choice of electric origin               ... Center of mass
Position of electric origin             ...    -0.083340    -0.146782     0.024942

General magnetic properties:
Magnetizability                         ...  NO

EPR properties:
g-Tensor (aka g-matrix)                 ...  NO
Zero-Field splitting spin-orbit         ...  NO
Zero-field splitting spin-spin          ...  NO
Hyperfine couplings                     ...  NO (   0 nuclei)
Quadrupole couplings                    ...  NO (   0 nuclei)
Contact density                         ...  NO (   0 nuclei)

NMR properties:
Chemical shifts                         ...  NO (   0 nuclei)
Spin-rotation constants                 ...  NO (   0 nuclei)
Spin-spin couplings                     ...  NO (   0 nuclei,    0 pairs)

Choice of magnetic origin               ... GIAO
Position of magnetic origin             ...     0.000000     0.000000     0.000000

Properties with geometric perturbations:
SCF Hessian                             ...  NO
IR spectrum                             ...  NO
VCD spectrum                            ...  NO
X-ray spectroscopy properties:
SCF XES/XAS/RIXS spectra                ...  NO


-------------
DIPOLE MOMENT
-------------

Method             : SCF
Type of density    : Electron Density
Multiplicity       :   1
Irrep              :   0
Energy             : -1953.5995951419158700 Eh
Relativity type    : 
Basis              : AO
                                X                 Y                 Z
Electronic contribution:    -14.950657377      -0.324298255       1.583817126
Nuclear contribution   :     15.679400285      -0.060885706      -2.461900584
                        -----------------------------------------
Total Dipole Moment    :      0.728742908      -0.385183961      -0.878083457
                        -----------------------------------------
Magnitude (a.u.)       :      1.204351887
Magnitude (Debye)      :      3.061219217



--------------------
Rotational spectrum 
--------------------
 
Rotational constants in cm-1:             0.021264             0.003676             0.003636 
Rotational constants in MHz :           637.487991           110.210381           109.010401 

Dipole components along the rotational axes: 
x,y,z [a.u.] :     0.735521    -0.373097     0.877651 
x,y,z [Debye]:     1.869545    -0.948337     2.230812 

 

Dipole moment calculation done in   0.2 sec 

Maximum memory used throughout the entire PROP-calculation: 55.5 MB

--------------------------------
SUGGESTED CITATIONS FOR THIS RUN
--------------------------------

Below you find a list of papers that are relevant to this ORCA run
We neither can nor want to force you to cite these papers, but we appreciate if you do
You receive ORCA, which is the product of decades of hard work by many enthusiastic individuals, for free
The only thing we kindly ask in return is that you cite our papers,
We deeply appreciate it, if you show your appreciation for ORCA by not just citing the generic ORCA reference.

Please note that relegating all ORCA citations to the supporting information does *not* help us.
SI sections are not indexed - citations you put there will not count into any citation statistics
But we need these citations in order to attract the funding resources that allow us to do what we are doing

Therefore, if you are a happy ORCA user, please consider citing a few of the papers listed below in the main body of your paper

In addition to the list printed below, the program has created the file rf_mecn_opt_B3L_P_A.bibtex that contains the list in bibtex format
You can import this file easily into all common literature databanks and citation aid programs


List of essential papers. We consider these as the minimum necessary citations

  1. Neese,F.
     Software update: the ORCA program system, version 5.0
     WIRES Comput. Molec. Sci., 2022 12(1)e1606
     doi.org/10.1002/wcms.1606

List of papers to cite with high priority. The work reported in these papers was absolutely
necessary for this run to complete.
Our perspective: the developers of density functionals and basis sets usually get cited in chemistry papers
Good! But without the algorithms to do something with them, the functionals or basis sets would not do anything.
Hence, in our opinion, the algorithm design and method developments papers are equally worthy of getting cited

  1. Neese,F.
     An improvement of the resolution of the identity approximation for the formation of the Coulomb matrix
     J. Comp. Chem., 2003 24(14)1740-1747
     doi.org/10.1002/jcc.10318
  2. Neese,F.; Wennmohs,F.; Hansen,A.; Becker,U.
     Efficient, approximate and parallel Hartree-Fock and hybrid DFT calculations. A 'chain-of-spheres' algorithm for the Hartree-Fock exchange
     Chem. Phys., 2009 356(1-3)98-109
     doi.org/10.1016/j.chemphys.2008.10.036
  3. Garcia-Rates,M.; Neese,F.
     Effect of the Solute Cavity on the Solvation Energy and its Derivatives within the Framework of the Gaussian Charge Scheme
     J. Comput. Chem., 2020 41 922-939
     doi.org/10.1002/jcc.26139
  4. Helmich-Paris,B.; de Souza,B.; Neese,F.; Izsák,R.
     An improved chain of spheres for exchange algorithm
     J. Chem. Phys., 2021 155 104109
     doi.org/doi: 10.1063/5.0058766.
  5. Neese,F.
     The SHARK Integral Generation and Digestion System
     J. Comp. Chem., 2022  1-16
     doi.org/10.1002/jcc.26942
  6. Grimme,S.; Antony,J.; Ehrlich,S.; Krieg,H.
     A consistent and accurate ab initio parametrization of density functional dispersion correction (DFT-D) for the 94 elements H-Pu
     J. Chem. Phys., 2010 132 154104
     doi.org/10.1063/1.3382344
  7. Grimme,S.; Ehrlich,S.; Goerigk,L.
     Effect of the damping function in dispersion corrected density functional theory
     J. Comput. Chem., 2011 32(7)1456-1465
     doi.org/10.1002/jcc.21759

List of suggested additional citations. These are papers that are important in the 'surrounding' of 
of this run, or papers that preceded the highly important papers. If you like your results we are grateful for a citation.

  1. Izsak,R.; Neese,F.
     An overlap fitted chain of spheres exchange method
     J. Chem. Phys., 2011 135 144105
     doi.org/10.1063/1.3646921
  2. Izsak,R.; Hansen,A.; Neese,F.
     The resolution of identity and chain of spheres approximations for the LPNO-CCSD singles Fock term
     Molec. Phys., 2012 110 2413-2417
     doi.org/10.1080/00268976.2012.687466
  3. Neese,F.
     The ORCA program system
     WIRES Comput. Molec. Sci., 2012 2(1)73-78
     doi.org/10.1002/wcms.81
  4. Izsak,R.; Neese,F.; Klopper,W.
     Robust fitting techniques in the chain of spheres approximation to the Fock exchange: The role of the complementary space
     J. Chem. Phys., 2013 139 
     doi.org/10.1063/1.4819264
  5. Neese,F.
     Software update: the ORCA program system, version 4.0
     WIRES Comput. Molec. Sci., 2018 8(1)1-6
     doi.org/10.1002/wcms.1327
  6. Neese,F.; Wennmohs,F.; Becker,U.; Riplinger,C.
     The ORCA quantum chemistry program package
     J. Chem. Phys., 2020 152 Art. No. L224108
     doi.org/10.1063/5.0004608

List of optional additional citations

  1. Neese,F.
     Approximate second-order SCF convergence for spin unrestricted wavefunctions
     Chem. Phys. Lett., 2000 325(1-3)93-98
     doi.org/10.1016/s0009-2614(00)00662-x

Timings for individual modules:

Sum of individual times          ...     3020.821 sec (=  50.347 min)
Startup calculation              ...      160.431 sec (=   2.674 min)   5.3 %
SCF iterations                   ...     2074.444 sec (=  34.574 min)  68.7 %
Property calculations            ...        1.291 sec (=   0.022 min)   0.0 %
SCF Gradient evaluation          ...      783.800 sec (=  13.063 min)  25.9 %
Geometry relaxation              ...        0.855 sec (=   0.014 min)   0.0 %
                             ****ORCA TERMINATED NORMALLY****
TOTAL RUN TIME: 0 days 0 hours 50 minutes 47 seconds 212 msec
