
                                 *****************
                                 * O   R   C   A *
                                 *****************

                                            #,                                       
                                            ###                                      
                                            ####                                     
                                            #####                                    
                                            ######                                   
                                           ########,                                 
                                     ,,################,,,,,                         
                               ,,#################################,,                 
                          ,,##########################################,,             
                       ,#########################################, ''#####,          
                    ,#############################################,,   '####,        
                  ,##################################################,,,,####,       
                ,###########''''           ''''###############################       
              ,#####''   ,,,,##########,,,,          '''####'''          '####       
            ,##' ,,,,###########################,,,                        '##       
           ' ,,###''''                  '''############,,,                           
         ,,##''                                '''############,,,,        ,,,,,,###''
      ,#''                                            '''#######################'''  
     '                                                          ''''####''''         
             ,#######,   #######,   ,#######,      ##                                
            ,#'     '#,  ##    ##  ,#'     '#,    #''#        ,####,   ,####,        
            ##       ##  ##   ,#'  ##            #'  '#       #'       #'  '#        
            ##       ##  #######   ##           ,######,      #####,   #    #        
            '#,     ,#'  ##    ##  '#,     ,#' ,#      #,     #,   #   #,  ,#        
             '#######'   ##     ##  '#######'  #'      '#     '####' # '####'        



                #########################################################
                #                        -***-                          #
                #          Department of theory and spectroscopy        #
                #                                                       #
                #                      Frank Neese                      #
                #                                                       #
                #     Directorship, Architecture, Infrastructure        #
                #                    SHARK, DRIVERS                     #
                #        Core code/Algorithms in most modules           #
                #                                                       #
                #        Max Planck Institute fuer Kohlenforschung      #
                #                Kaiser Wilhelm Platz 1                 #
                #                 D-45470 Muelheim/Ruhr                 #
                #                      Germany                          #
                #                                                       #
                #                  All rights reserved                  #
                #                        -***-                          #
                #########################################################


                         Program Version 6.0.1  -  RELEASE   -


 With contributions from (in alphabetic order):
[Max-Planck-Institut fuer Kohlenforschung]                               
  Daniel Aravena         : Magnetic Suceptibility                        
  Michael Atanasov       : Ab Initio Ligand Field Theory (pilot matlab implementation)
  Alexander A. Auer      : GIAO ZORA, VPT2 properties, NMR spectrum      
  Ute Becker             : All parallelization in ORCA, NUMFREQ, NUMCALC 
  Giovanni Bistoni       : ED, misc. LED, open-shell LED, HFLD           
  Martin Brehm           : Molecular dynamics                            
  Dmytro Bykov           : pre 5.0 version of the SCF Hessian            
  Marcos Casanova-Páez   : Triplet and SCS-CIS(D). UHF-(DLPNO)-IP/EA/STEOM-CCSD. UHF-CVS-IP/STEOM-CCSD   
  Vijay G. Chilkuri      : MRCI spin determinant printing, contributions to CSF-ICE 
  Pauline Colinet        : FMM embedding                                 
  Dipayan Datta          : RHF DLPNO-CCSD density                        
  Achintya Kumar Dutta   : EOM-CC, STEOM-CC                              
  Nicolas Foglia         : Exact transition moments, OPA infrastructure, MCD improvements    
  Dmitry Ganyushin       : Spin-Orbit,Spin-Spin,Magnetic field MRCI      
  Miquel Garcia-Rates    : C-PCM and meta-GGA Hessian, CCSD/C-PCM, Gaussian charge scheme 
  Tiago L. C. Gouveia    : GS-ROHF, GS-ROCIS                             
  Yang Guo               : DLPNO-NEVPT2, F12-NEVPT2, CIM, IAO-localization        
  Andreas Hansen         : Spin unrestricted coupled pair/coupled cluster methods 
  Ingolf Harden          : AUTO-CI MPn and infrastructure                
  Benjamin Helmich-Paris : MC-RPA, TRAH-(SCF,CASSCF), AVAS, COSX integrals, SCF dyn. polar. 
  Lee Huntington         : MR-EOM, pCC                                   
  Robert Izsak           : Overlap fitted RIJCOSX, COSX-SCS-MP3, EOM     
  Riya Kayal             : Wick's Theorem for AUTO-CI, AUTO-CI UHF-CCSDT 
  Emily Kempfer          : AUTO-CI, RHF CISDT and CCSDT                  
  Christian Kollmar      : KDIIS, OOCD, Brueckner-CCSD(T), CCSD density, CASPT2, CASPT2-K, improved NEVPT2 
  Axel Koslowski         : Symmetry handling                             
  Simone Kossmann        : meta-GGA functionals, TD-DFT gradient, OOMP2, (MP2 Hessian; deprecated post 5.0) 
  Lucas Lang             : DCDCAS                                        
  Marvin Lechner         : AUTO-CI (C++ implementation), FIC-MRCC        
  Spencer Leger          : CASSCF response                               
  Dagmar Lenk            : GEPOL surface, SMD, ORCA-2-JSON               
  Dimitrios Liakos       : Extrapolation schemes; Compound Job, initial MDCI parallelization 
  Dimitrios Manganas     : Further ROCIS development; embedding schemes. LFT, Crystal Embedding 
  Dimitrios Pantazis     : SARC Basis sets                               
  Anastasios Papadopoulos: AUTO-CI, single reference methods and gradients 
  Taras Petrenko         : pre 6.0 DFT Hessian and TD-DFT gradient, (ASA, deprecated), ECA, 1-Electron XAS/XES, NRVS 
  Peter Pinski           : DLPNO-MP2, DLPNO-MP2 Gradient                 
  Christoph Reimann      : Effective Core Potentials                     
  Marius Retegan         : Local ZFS, SOC                                
  Christoph Riplinger    : Optimizer, TS searches, QM/MM, DLPNO-CCSD(T), (RO)-DLPNO pert. Triples 
  Michael Roemelt        : Original ROCIS implementation                 
  Masaaki Saitow         : Open-shell DLPNO-CCSD energy and density      
  Barbara Sandhoefer     : DKH picture change effects                    
  Kantharuban Sivalingam : CASSCF convergence/infrastructure, NEVPT2 and variants, FIC-MRCI 
  Bernardo de Souza      : ESD, SOC TD-DFT                               
  Georgi L. Stoychev     : AutoAux, RI-MP2 NMR, DLPNO-MP2 response, X2C  
  Van Anh Tran           : RI-MP2 g-tensors                              
  Willem Van den Heuvel  : Paramagnetic NMR                              
  Zikuan Wang            : NOTCH, Electric field optimization            
  Frank Wennmohs         : Technical directorship and infrastructure     
  Hang Xu                : AUTO-CI-Response properties                   
                                                                         
[FACCTs GmbH]                                                            
  Markus Bursch, Miquel Garcia-Rates, Christoph Riplinger, Bernardo de Souza, Georgi L. Stoychev 
                                                                 
  APM, Basis sets (HGBS, AHGBS, def-TZVP (Ac-Lr), def2-XVPD (La-Lu)), CI-OPT, improved COSX, DLPNO-Multilevel,           
  DOCKER, DRACO, updates on ESD, GOAT, IRC, LR-CPCM, MBIS, meta-GGA TD-DFT gradient, ML-optimized integration grids, 
  MM, NACMEs, nearIR, NEB, NEB-TS, NL-DFT gradient (VV10), 2- and 3-layer-ONIOM, interface openCOSMO-RS, QMMM,   
  Crystal-QMMM, SF, symmetry and pop. for TD-DFT, r2SCAN hybrids, SOLVATOR                                   
                                                                         
[Other institutions]                                                     
  V. Asgeirsson          : NEB                                           
  Christoph Bannwarth    : sTDA-DFT, sTD-DFT, PBEh-3c, B97-3c, D3        
  Sebastian Ehlert       : rSCAN, r2SCAN, r2SCAN-3c, D4, dhf basis sets  
  Marvin Friede          : D4 for Fr, Ra, Ac-Lr                          
  Lars Goerigk           : TD-DFT with DH, B97 family of functionals     
  Stefan Grimme          : VdW corrections, initial TS optimization, DFT functionals, gCP, sTDA/sTD-DF 
  Waldemar Hujo          : DFT-NL                                        
  H. Jonsson             : NEB                                           
  Holger Kruse           : gCP                                           
  Marcel Mueller         : wB97X-3c, vDZP basis set                      
  Hagen Neugebauer       : wr2SCAN                                       
  Tobias Risthaus        : range-separated hybrid DFT                    
  Lukas Wittmann         : regularized MP2, r2SCAN double-hybrids, wr2SCAN        
                                                                         
We gratefully acknowledge several colleagues who have allowed us to      
interface, adapt or use parts of their codes:                            
  Ed Valeev, F. Pavosevic, A. Kumar             : LibInt (2-el integral package), F12 methods 
  Garnet Chan, S. Sharma, J. Yang, R. Olivares  : DMRG                   
  Ulf Ekstrom                                   : XCFun DFT Library      
  Mihaly Kallay                                 : mrcc  (arbitrary order and MRCC methods)
  Frank Weinhold                                : gennbo (NPA and NBO analysis)           
  Simon Mueller                                 : openCOSMO-RS                            
  Christopher J. Cramer and Donald G. Truhlar   : smd solvation model                     
  S Lehtola, MJT Oliveira, MAL Marques          : LibXC Library                           
  Liviu Ungur et al                             : ANISO software                          


 Your calculation uses the libint2 library for the computation of 2-el integrals
 For citations please refer to: http://libint.valeyev.net

 Your ORCA version has been built with support for libXC version: 6.2.2
 For citations please refer to: https://libxc.gitlab.io

 This ORCA versions uses:
   CBLAS   interface :  Fast vector & matrix operations
   LAPACKE interface :  Fast linear algebra routines
   SCALAPACK package :  Parallel linear algebra routines
   Shared memory     :  Shared parallel matrices
   BLAS/LAPACK       :  OpenBLAS 0.3.27  USE64BITINT DYNAMIC_ARCH NO_AFFINITY SkylakeX SINGLE_THREADED
        Core in use  :  SkylakeX
   Copyright (c) 2011-2014, The OpenBLAS Project


NOTE: MaxCore=8000 MB was set to SCF,MP2,MDCI,CIPSI,MRCI and CIS
      => If you want to overwrite this, your respective input block should be placed after the MaxCore statement
Your calculation utilizes the atom-pairwise dispersion correction
with the Becke-Johnson damping scheme (D3BJ)


Your calculation utilizes the SMD solvation module
Please cite in your paper:
A.V. Marenich, C.J. Cramer, D.G. Truhlar J. Phys. Chem. B, 113, (2009), 6378 

Warning: RI is on but no J-basis has been assigned. Assigning Def2/J (nothing to worry about!)
================================================================================

----- Orbital basis set information -----
Your calculation utilizes the basis: def2-TZVP
   F. Weigend and R. Ahlrichs, Phys. Chem. Chem. Phys. 7, 3297 (2005).

----- AuxJ basis set information -----
Your calculation utilizes the auxiliary basis: def2/J
   F. Weigend, Phys. Chem. Chem. Phys. 8, 1057 (2006).

================================================================================
                                        WARNINGS
                       Please study these warnings very carefully!
================================================================================


WARNING: your system is open-shell and RHF/RKS was chosen
  ===> : WILL SWITCH to UHF/UKS


================================================================================
                                       INPUT FILE
================================================================================
NAME = rf_mecn_freq_TP_C3_D_B.inp
|  1> !TPSSh def2-TZVP freq d3 TightSCF SlowConv defgrid2
|  2>  
|  3> %pal
|  4> nprocs 20
|  5> end
|  6>  
|  7> %scf
|  8> MaxIter 1500
|  9> end
| 10>  
| 11> %maxcore 8000
| 12>  
| 13> !CPCM
| 14> %cpcm smd true
| 15> SMDsolvent "ACETONITRILE"
| 16> end
| 17>  
| 18> * xyz -1 2
| 19> 6        3.573618000     -0.426927000     -1.182197000
| 20> 8        4.217493000     -1.411615000     -1.570685000
| 21> 8        2.930967000      0.443318000     -1.809884000
| 22> 6        3.574718000     -0.137276000      0.358235000
| 23> 6        2.256198000      0.327001000      0.878397000
| 24> 6        0.981878000     -0.439141000      0.773192000
| 25> 6       -0.274134000      0.459955000      0.498922000
| 26> 6       -1.520575000     -0.321769000     -0.032172000
| 27> 6       -2.865314000      0.463441000      0.123629000
| 28> 6       -4.025771000     -0.070336000     -0.776551000
| 29> 9        4.022327000     -1.217253000      1.106625000
| 30> 9        4.490610000      0.867476000      0.605318000
| 31> 9        2.267211000      1.206427000      1.891211000
| 32> 9        1.084465000     -1.360245000     -0.216611000
| 33> 9        0.728046000     -1.120087000      1.940852000
| 34> 9       -0.611838000      1.087151000      1.651546000
| 35> 9        0.050590000      1.397156000     -0.415868000
| 36> 9       -1.639691000     -1.488422000      0.637567000
| 37> 9       -1.328702000     -0.595986000     -1.341969000
| 38> 9       -2.674201000      1.763431000     -0.190170000
| 39> 9       -3.269738000      0.381754000      1.406903000
| 40> 9       -4.129904000     -1.399983000     -0.679383000
| 41> 9       -5.175931000      0.478679000     -0.372674000
| 42> 9       -3.825069000      0.257104000     -2.054920000
| 43> *
| 44> 
| 45>                          ****END OF INPUT****
================================================================================

                       ****************************
                       * Single Point Calculation *
                       ****************************

---------------------------------
CARTESIAN COORDINATES (ANGSTROEM)
---------------------------------
  C      3.573618   -0.426927   -1.182197
  O      4.217493   -1.411615   -1.570685
  O      2.930967    0.443318   -1.809884
  C      3.574718   -0.137276    0.358235
  C      2.256198    0.327001    0.878397
  C      0.981878   -0.439141    0.773192
  C     -0.274134    0.459955    0.498922
  C     -1.520575   -0.321769   -0.032172
  C     -2.865314    0.463441    0.123629
  C     -4.025771   -0.070336   -0.776551
  F      4.022327   -1.217253    1.106625
  F      4.490610    0.867476    0.605318
  F      2.267211    1.206427    1.891211
  F      1.084465   -1.360245   -0.216611
  F      0.728046   -1.120087    1.940852
  F     -0.611838    1.087151    1.651546
  F      0.050590    1.397156   -0.415868
  F     -1.639691   -1.488422    0.637567
  F     -1.328702   -0.595986   -1.341969
  F     -2.674201    1.763431   -0.190170
  F     -3.269738    0.381754    1.406903
  F     -4.129904   -1.399983   -0.679383
  F     -5.175931    0.478679   -0.372674
  F     -3.825069    0.257104   -2.054920

----------------------------
CARTESIAN COORDINATES (A.U.)
----------------------------
  NO LB      ZA    FRAG     MASS         X           Y           Z
   0 C     6.0000    0    12.011    6.753159   -0.806775   -2.234029
   1 O     8.0000    0    15.999    7.969907   -2.667566   -2.968164
   2 O     8.0000    0    15.999    5.538725    0.837750   -3.420185
   3 C     6.0000    0    12.011    6.755238   -0.259414    0.676966
   4 C     6.0000    0    12.011    4.263596    0.617942    1.659930
   5 C     6.0000    0    12.011    1.855481   -0.829856    1.461121
   6 C     6.0000    0    12.011   -0.518038    0.869189    0.942826
   7 C     6.0000    0    12.011   -2.873470   -0.608055   -0.060796
   8 C     6.0000    0    12.011   -5.414659    0.875777    0.233625
   9 C     6.0000    0    12.011   -7.607605   -0.132916   -1.467469
  10 F     9.0000    0    18.998    7.601096   -2.300275    2.091218
  11 F     9.0000    0    18.998    8.486023    1.639292    1.143885
  12 F     9.0000    0    18.998    4.284408    2.279817    3.573871
  13 F     9.0000    0    18.998    2.049342   -2.570491   -0.409335
  14 F     9.0000    0    18.998    1.375808   -2.116658    3.667679
  15 F     9.0000    0    18.998   -1.156206    2.054418    3.120970
  16 F     9.0000    0    18.998    0.095601    2.640242   -0.785877
  17 F     9.0000    0    18.998   -3.098567   -2.812710    1.204827
  18 F     9.0000    0    18.998   -2.510883   -1.126250   -2.535954
  19 F     9.0000    0    18.998   -5.053508    3.332402   -0.359369
  20 F     9.0000    0    18.998   -6.178909    0.721411    2.658661
  21 F     9.0000    0    18.998   -7.804388   -2.645584   -1.283848
  22 F     9.0000    0    18.998   -9.781092    0.904572   -0.704252
  23 F     9.0000    0    18.998   -7.228333    0.485856   -3.883236

--------------------------------
INTERNAL COORDINATES (ANGSTROEM)
--------------------------------
 C      0   0   0     0.000000000000     0.00000000     0.00000000
 O      1   0   0     1.238994914886     0.00000000     0.00000000
 O      1   2   0     1.250726843797   131.50160640     0.00000000
 C      1   2   3     1.567427720319   117.04244161   182.78682052
 C      4   1   2     1.491514877356   113.55586310   219.00683567
 C      5   4   1     1.490615013539   124.82943554    58.49676639
 C      6   5   4     1.568809674326   113.71683765   217.59618766
 C      7   6   5     1.564214951819   114.26222263   162.66603662
 C      8   7   6     1.564976572931   113.58817536   161.79076111
 C      9   8   7     1.562658749369   114.16556081   161.78423240
 F      4   1   2     1.388089236868   112.72548404   344.72525524
 F      4   1   2     1.381822979277   108.09312622   100.08811190
 F      5   4   1     1.341381218834   117.39634319   213.41735537
 F      6   5   4     1.355974428296   109.63229881   339.63061178
 F      6   5   4     1.375335600768   110.63021029    97.77230041
 F      7   6   5     1.354976346439   108.42739554   284.12855054
 F      7   6   5     1.349308020682   108.90014506    41.85411543
 F      8   7   6     1.350488123601   109.48923374    41.03620497
 F      8   7   6     1.351879577635   108.49562691   282.75273238
 F      9   8   7     1.350913761596   109.76358490    41.08305395
 F      9   8   7     1.347970213625   108.79442521   282.16300604
 F     10   9   8     1.337253321746   110.83084629    48.02440695
 F     10   9   8     1.336937592767   108.93991394   167.48547013
 F     10   9   8     1.334812925681   110.86976872   286.86318953

---------------------------
INTERNAL COORDINATES (A.U.)
---------------------------
 C      0   0   0     0.000000000000     0.00000000     0.00000000
 O      1   0   0     2.341361070455     0.00000000     0.00000000
 O      1   2   0     2.363531203120   131.50160640     0.00000000
 C      1   2   3     2.962009126120   117.04244161   182.78682052
 C      4   1   2     2.818554642871   113.55586310   219.00683567
 C      5   4   1     2.816854146701   124.82943554    58.49676639
 C      6   5   4     2.964620640723   113.71683765   217.59618766
 C      7   6   5     2.955937873522   114.26222263   162.66603662
 C      8   7   6     2.957377128842   113.58817536   161.79076111
 C      9   8   7     2.952997077082   114.16556081   161.78423240
 F      4   1   2     2.623108507125   112.72548404   344.72525524
 F      4   1   2     2.611266996392   108.09312622   100.08811190
 F      5   4   1     2.534843144782   117.39634319   213.41735537
 F      6   5   4     2.562420314081   109.63229881   339.63061178
 F      6   5   4     2.599007627684   110.63021029    97.77230041
 F      7   6   5     2.560534212710   108.42739554   284.12855054
 F      7   6   5     2.549822629392   108.90014506    41.85411543
 F      8   7   6     2.552052700718   109.48923374    41.03620497
 F      8   7   6     2.554682167772   108.49562691   282.75273238
 F      9   8   7     2.552857039962   109.76358490    41.08305395
 F      9   8   7     2.547294540435   108.79442521   282.16300604
 F     10   9   8     2.527042549777   110.83084629    48.02440695
 F     10   9   8     2.526445908474   108.93991394   167.48547013
 F     10   9   8     2.522430869555   110.86976872   286.86318953

---------------------
BASIS SET INFORMATION
---------------------
There are 3 groups of distinct atoms

 Group   1 Type C   : 11s6p2d1f contracted to 5s3p2d1f pattern {62111/411/11/1}
 Group   2 Type O   : 11s6p2d1f contracted to 5s3p2d1f pattern {62111/411/11/1}
 Group   3 Type F   : 11s6p2d1f contracted to 5s3p2d1f pattern {62111/411/11/1}

Atom   0C    basis set group =>   1
Atom   1O    basis set group =>   2
Atom   2O    basis set group =>   2
Atom   3C    basis set group =>   1
Atom   4C    basis set group =>   1
Atom   5C    basis set group =>   1
Atom   6C    basis set group =>   1
Atom   7C    basis set group =>   1
Atom   8C    basis set group =>   1
Atom   9C    basis set group =>   1
Atom  10F    basis set group =>   3
Atom  11F    basis set group =>   3
Atom  12F    basis set group =>   3
Atom  13F    basis set group =>   3
Atom  14F    basis set group =>   3
Atom  15F    basis set group =>   3
Atom  16F    basis set group =>   3
Atom  17F    basis set group =>   3
Atom  18F    basis set group =>   3
Atom  19F    basis set group =>   3
Atom  20F    basis set group =>   3
Atom  21F    basis set group =>   3
Atom  22F    basis set group =>   3
Atom  23F    basis set group =>   3
---------------------------------
AUXILIARY/J BASIS SET INFORMATION
---------------------------------
There are 3 groups of distinct atoms

 Group   1 Type C   : 12s5p4d2f1g contracted to 6s4p3d1f1g pattern {711111/2111/211/2/1}
 Group   2 Type O   : 12s5p4d2f1g contracted to 6s4p3d1f1g pattern {711111/2111/211/2/1}
 Group   3 Type F   : 12s5p4d2f1g contracted to 6s4p3d1f1g pattern {711111/2111/211/2/1}

Atom   0C    basis set group =>   1
Atom   1O    basis set group =>   2
Atom   2O    basis set group =>   2
Atom   3C    basis set group =>   1
Atom   4C    basis set group =>   1
Atom   5C    basis set group =>   1
Atom   6C    basis set group =>   1
Atom   7C    basis set group =>   1
Atom   8C    basis set group =>   1
Atom   9C    basis set group =>   1
Atom  10F    basis set group =>   3
Atom  11F    basis set group =>   3
Atom  12F    basis set group =>   3
Atom  13F    basis set group =>   3
Atom  14F    basis set group =>   3
Atom  15F    basis set group =>   3
Atom  16F    basis set group =>   3
Atom  17F    basis set group =>   3
Atom  18F    basis set group =>   3
Atom  19F    basis set group =>   3
Atom  20F    basis set group =>   3
Atom  21F    basis set group =>   3
Atom  22F    basis set group =>   3
Atom  23F    basis set group =>   3


           ************************************************************
           *        Program running with 20 parallel MPI-processes    *
           *              working on a common directory               *
           ************************************************************
------------------------------------------------------------------------------
                             ORCA STARTUP CALCULATIONS
                           -- RI-GTO INTEGRALS CHOSEN --
------------------------------------------------------------------------------
------------------------------------------------------------------------------
                   ___                                                        
                  /   \      - P O W E R E D   B Y -                         
                 /     \                                                     
                 |  |  |   _    _      __       _____    __    __             
                 |  |  |  | |  | |    /  \     |  _  \  |  |  /  |          
                  \  \/   | |  | |   /    \    | | | |  |  | /  /          
                 / \  \   | |__| |  /  /\  \   | |_| |  |  |/  /          
                |  |  |   |  __  | /  /__\  \  |    /   |      \           
                |  |  |   | |  | | |   __   |  |    \   |  |\   \          
                \     /   | |  | | |  |  |  |  | |\  \  |  | \   \       
                 \___/    |_|  |_| |__|  |__|  |_| \__\ |__|  \__/        
                                                                              
                      - O R C A' S   B I G   F R I E N D -                    
                                      &                                       
                       - I N T E G R A L  F E E D E R -                       
                                                                              
 v1 FN, 2020, v2 2021, v3 2022-2024                                           
------------------------------------------------------------------------------


----------------------
SHARK INTEGRAL PACKAGE
----------------------

Number of atoms                             ...     24
Number of basis functions                   ...    744
Number of shells                            ...    264
Maximum angular momentum                    ...      3
Integral batch strategy                     ... SHARK/LIBINT Hybrid
RI-J (if used) integral strategy            ... SPLIT-RIJ (Revised 2003 algorithm where possible)
Printlevel                                  ...      1
Contraction scheme used                     ... SEGMENTED contraction
Prescreening option                         ... SCHWARTZ
   Thresh                                   ... 2.500e-11
   Tcut                                     ... 2.500e-12
   Tpresel                                  ... 2.500e-12 
Coulomb Range Separation                    ... NOT USED
Exchange Range Separation                   ... NOT USED
Multipole approximations                    ... NOT USED
Finite Nucleus Model                        ... NOT USED
CABS basis                                  ... NOT available
Auxiliary Coulomb fitting basis             ... AVAILABLE
   # of basis functions in Aux-J            ...   1176
   # of shells in Aux-J                     ...    360
   Maximum angular momentum in Aux-J        ...      4
Auxiliary J/K fitting basis                 ... NOT available
Auxiliary Correlation fitting basis         ... NOT available
Auxiliary 'external' fitting basis          ... NOT available

Checking pre-screening integrals            ... done (  0.0 sec) Dimension = 264
Check shell pair data                       ... done (  0.0 sec)
Shell pair information
Shell pair cut-off parameter TPreSel        ...   2.5e-12
Total number of shell pairs                 ...     34980
Shell pairs after pre-screening             ...     22208
Total number of primitive shell pairs       ...    115968
Primitive shell pairs kept                  ...     47316
          la=0 lb=0:   4165 shell pairs
          la=1 lb=0:   6040 shell pairs
          la=1 lb=1:   2097 shell pairs
          la=2 lb=0:   3301 shell pairs
          la=2 lb=1:   2428 shell pairs
          la=2 lb=2:    693 shell pairs
          la=3 lb=0:   1509 shell pairs
          la=3 lb=1:   1187 shell pairs
          la=3 lb=2:    632 shell pairs
          la=3 lb=3:    156 shell pairs

Calculating one electron integrals          ... done (  0.0 sec)
Calculating RI/J V-Matrix + Cholesky decomp.... done (  0.1 sec)
Calculating Nuclear repulsion               ... done (  0.0 sec) ENN=   2643.885613874935 Eh

Diagonalization of the overlap matrix:
Smallest eigenvalue                        ... 6.420e-05
Time for diagonalization                   ...    0.123 sec
Threshold for overlap eigenvalues          ... 1.000e-07
Number of eigenvalues below threshold      ... 0
Time for construction of square roots      ...    0.061 sec
Total time needed                          ...    0.237 sec

-------------------
DFT GRID GENERATION
-------------------

General Integration Accuracy     IntAcc      ... 4.388
Radial Grid Type                 RadialGrid  ... OptM3 with GC (2021)
Angular Grid (max. ang.)         AngularGrid ... 4 (Lebedev-302)
Angular grid pruning method      GridPruning ... 4 (adaptive)
Weight generation scheme         WeightScheme... mBecke (2022)
Basis function cutoff            BFCut       ... 1.0000e-11
Integration weight cutoff        WCut        ... 1.0000e-14
Partially contracted basis set               ... off
Rotationally invariant grid construction     ... off
Angular grids for H and He will be reduced by one unit

Total number of grid points                  ...   145444
Total number of batches                      ...     2284
Average number of points per batch           ...       63
Average number of grid points per atom       ...     6060

--------------------
COSX GRID GENERATION
--------------------

GRIDX 1
-------
General Integration Accuracy     IntAcc      ... 3.816
Radial Grid Type                 RadialGrid  ... OptM3 with GC (2021)
Angular Grid (max. ang.)         AngularGrid ... 1 (Lebedev-50)
Angular grid pruning method      GridPruning ... 4 (adaptive)
Weight generation scheme         WeightScheme... mBecke (2022)
Basis function cutoff            BFCut       ... 1.0000e-11
Integration weight cutoff        WCut        ... 1.0000e-14
Partially contracted basis set               ... on
Rotationally invariant grid construction     ... off
Angular grids for H and He will be reduced by one unit

Total number of grid points                  ...    18256
Total number of batches                      ...      152
Average number of points per batch           ...      120
Average number of grid points per atom       ...      761
UseSFitting                                  ... on

GRIDX 2
-------
General Integration Accuracy     IntAcc      ... 4.020
Radial Grid Type                 RadialGrid  ... OptM3 with GC (2021)
Angular Grid (max. ang.)         AngularGrid ... 2 (Lebedev-110)
Angular grid pruning method      GridPruning ... 4 (adaptive)
Weight generation scheme         WeightScheme... mBecke (2022)
Basis function cutoff            BFCut       ... 1.0000e-11
Integration weight cutoff        WCut        ... 1.0000e-14
Partially contracted basis set               ... on
Rotationally invariant grid construction     ... off
Angular grids for H and He will be reduced by one unit

Total number of grid points                  ...    43271
Total number of batches                      ...      351
Average number of points per batch           ...      123
Average number of grid points per atom       ...     1803
UseSFitting                                  ... on

GRIDX 3
-------
General Integration Accuracy     IntAcc      ... 4.338
Radial Grid Type                 RadialGrid  ... OptM3 with GC (2021)
Angular Grid (max. ang.)         AngularGrid ... 3 (Lebedev-194)
Angular grid pruning method      GridPruning ... 4 (adaptive)
Weight generation scheme         WeightScheme... mBecke (2022)
Basis function cutoff            BFCut       ... 1.0000e-11
Integration weight cutoff        WCut        ... 1.0000e-14
Partially contracted basis set               ... on
Rotationally invariant grid construction     ... off
Angular grids for H and He will be reduced by one unit

Total number of grid points                  ...    95903
Total number of batches                      ...      757
Average number of points per batch           ...      126
Average number of grid points per atom       ...     3996
UseSFitting                                  ... on
Initializing property integral containers    ... done (  0.0 sec)

SHARK setup successfully completed in   3.7 seconds

Maximum memory used throughout the entire STARTUP-calculation: 57.4 MB


           ************************************************************
           *        Program running with 20 parallel MPI-processes    *
           *              working on a common directory               *
           ************************************************************
-------------------------------------------------------------------------------
                                 ORCA GUESS
                   Start orbitals & Density for SCF / CASSCF
-------------------------------------------------------------------------------

------------
SCF SETTINGS
------------
Hamiltonian:
 Density Functional     Method          .... DFT(GTOs)
 Exchange Functional    Exchange        .... TPSS
 Correlation Functional Correlation     .... TPSS
 LDA part of GGA corr.  LDAOpt          .... PW91-LDA
 Gradients option       PostSCFGGA      .... off
 Hybrid DFT is turned on
   Fraction HF Exchange ScalHFX         ....  0.100000
   Scaling of DF-GGA-X  ScalDFX         ....  0.900000
   Scaling of DF-GGA-C  ScalDFC         ....  1.000000
   Scaling of DF-LDA-C  ScalLDAC        ....  1.000000
   Perturbative correction              ....  0.000000
   NL short-range parameter             ....  5.200000
 RI-approximation to the Coulomb term is turned on
   Number of AuxJ basis functions       .... 1176
   RIJ-COSX (HFX calculated with COS-X)).... on


General Settings:
 Integral files         IntName         .... rf_mecn_freq_TP_C3_D_B
 Hartree-Fock type      HFTyp           .... UHF
 Total Charge           Charge          ....   -1
 Multiplicity           Mult            ....    2
 Number of Electrons    NEL             ....  191
 Basis Dimension        Dim             ....  744
 Nuclear Repulsion      ENuc            ....   2643.8856138749 Eh

Convergence Acceleration:
 AO-DIIS                CNVDIIS         .... on
   Start iteration      DIISMaxIt       ....     0
   Startup error        DIISStart       ....  0.200000
   # of expansion vecs  DIISMaxEq       ....     5
   Bias factor          DIISBfac        ....   1.050
   Max. coefficient     DIISMaxC        ....  10.000
 MO-DIIS                CNVKDIIS        .... off
 Trust-Rad. Augm. Hess. CNVTRAH         .... auto
   Auto Start mean grad. ratio tolernc. ....  1.125000
   Auto Start start iteration           ....    50
   Auto Start num. interpolation iter.  ....    10
   Max. Number of Micro iterations      ....    24
   Max. Number of Macro iterations      .... Maxiter - #DIIS iter
   Number of Davidson start vectors     ....     2
   Converg. threshold    (grad. norm)   ....   1.000e-05
   Grad. Scal. Fac. for Micro threshold ....   0.100
   Minimum threshold for Micro iter.    ....   1.000e-02
   NR start threshold (gradient norm)   ....   1.000e-04
   Initial trust radius                 ....   0.400
   Minimum AH scaling param. (alpha)    ....   1.000
   Maximum AH scaling param. (alpha)    .... 1000.000
   Quad. conv. algorithm                .... NR
   White noise on init. David. guess    .... on
   Maximum white noise                  ....   0.010
   Pseudo random numbers                .... off
   Inactive MOs                         .... canonical
   Orbital update algorithm             .... Taylor
   Preconditioner                       .... Diag
   Full preconditioner red. dimension   ....   250
 SOSCF                  CNVSOSCF        .... on
   Start iteration      SOSCFMaxIt      ....   150
   Startup grad/error   SOSCFStart      ....  0.001000
   Hessian update       SOSCFHessUp     .... L-BFGS
 Level Shifting         CNVShift        .... on
   Level shift para.    LevelShift      ....    0.2500
   Turn off err/grad.   ShiftErr        ....    0.0000
 Zerner damping         CNVZerner       .... off
 Static damping         CNVDamp         .... on
   Fraction old density DampFac         ....    0.8500
   Max. Damping (<1)    DampMax         ....    0.9800
   Min. Damping (>=0)   DampMin         ....    0.0000
   Turn off err/grad.   DampErr         ....    0.0300

SCF Procedure:
 Maximum # iterations   MaxIter         ....  1500
 SCF integral mode      SCFMode         .... Direct
   Integral package                     .... SHARK and LIBINT hybrid scheme
 Reset frequency        DirectResetFreq ....    20
 Integral Threshold     Thresh          ....  2.500e-11 Eh
 Primitive CutOff       TCut            ....  2.500e-12 Eh

Convergence Tolerance:
 Convergence Check Mode ConvCheckMode   .... Total+1el-Energy
 Convergence forced     ConvForced      .... 0
 Energy Change          TolE            ....  1.000e-08 Eh
 1-El. energy change                    ....  1.000e-05 Eh
 Orbital Gradient       TolG            ....  1.000e-05
 Orbital Rotation angle TolX            ....  1.000e-05
 DIIS Error             TolErr          ....  5.000e-07

------------------------------
INITIAL GUESS: MODEL POTENTIAL
------------------------------
Loading Hartree-Fock densities                     ... done
Calculating cut-offs                               ... done
Initializing the effective Hamiltonian             ... done
Setting up the integral package (SHARK)            ... done
Starting the Coulomb interaction                   ... done (   0.2 sec)
Making the grid                                    ... done (   0.5 sec)
Mapping shells                                     ... done
Starting the XC term evaluation                    ... done (   0.1 sec)
  promolecular density results
     # of electrons  =    190.000131156
     EX              =   -197.180947097
     EC              =     -6.669615964
     EX+EC           =   -203.850563061
Transforming the Hamiltonian                       ... done (   0.0 sec)
Diagonalizing the Hamiltonian                      ... done (   0.1 sec)
Back transforming the eigenvectors                 ... done (   0.0 sec)
Now organizing SCF variables                       ... done
                      ------------------
                      INITIAL GUESS DONE (   1.2 sec)
                      ------------------
             **** ENERGY FILE WAS UPDATED (rf_mecn_freq_TP_C3_D_B.en.tmp) ****
Finished Guess after   1.9 sec
Maximum memory used throughout the entire GUESS-calculation: 46.2 MB


           ************************************************************
           *        Program running with 20 parallel MPI-processes    *
           *              working on a common directory               *
           ************************************************************

-------------------------------------------------------------------------------------------
                                      ORCA LEAN-SCF
                              memory conserving SCF solver
-------------------------------------------------------------------------------------------

--------------------
CPCM SOLVATION MODEL
--------------------
CPCM parameters:
  Epsilon                                         ...      35.6880
  Refrac                                          ...       1.3442
  Rsolv                                           ...       1.3000
  Surface type                                    ... GAUSSIAN VDW
  Discretization scheme                           ... Constant charge density
    Threshold for H atoms                         ...       5.0000 (charges/Ang^2)
    Threshold for non-H atoms                     ...       5.0000 (charges/Ang^2)
  Epsilon function type                           ...         CPCM
Solvent:                                          ... ACETONITRILE
SMD-CDS solvent descriptors:
  Soln                                            ...       1.3442
  Soln25                                          ...       1.3416
  Sola                                            ...       0.0700
  Solb                                            ...       0.3200
  Solg                                            ...      41.2500
  Solc                                            ...       0.0000
  Solh                                            ...       0.0000
Radii:
  Scheme                                          ... Element-dependent radii
  Radius for C  used is    3.4960 Bohr (=   1.8500 Ang.)
  Radius for O  used is    4.0969 Bohr (=   2.1680 Ang.)
  Radius for F  used is    3.2692 Bohr (=   1.7300 Ang.)
Calculating surface                               ...        done! (  0.0s)
Cavity surface points                             ...         2128
Cavity Volume                                     ...    2107.3419
Cavity Surface-area                               ...    1100.9075
Calculating surface distance matrix               ...        done! (  0.0s)
Performing Cholesky decomposition & store         ...        done! (  0.1s)
Overall time for CPCM initialization              ...                 0.1s

----------------------------------------D-I-I-S--------------------------------------------
Iteration    Energy (Eh)           Delta-E    RMSDP     MaxDP     DIISErr   Damp  Time(sec)
-------------------------------------------------------------------------------------------
               ***  Starting incremental Fock matrix formation  ***
    1    -1853.4900378353745509     0.00e+00  3.09e-04  6.88e-02  1.49e-01  0.850   7.9
Warning: op=0 Small HOMO/LUMO gap (   0.029) - skipping pre-diagonalization
         Will do a full diagonalization
    2    -1853.6279652971302312    -1.38e-01  4.46e-04  1.27e-01  1.02e-01  0.850   5.2
                               ***Turning on AO-DIIS***
    3    -1853.7022101695442871    -7.42e-02  1.87e-04  4.82e-02  5.85e-02  0.850   4.8
    4    -1853.7452782178602320    -4.31e-02  8.15e-05  1.38e-02  4.28e-02  0.850   4.4
    5    -1853.7756533016913636    -3.04e-02  5.12e-05  4.45e-03  3.56e-02  0.850   4.4
    6    -1853.7997208273704928    -2.41e-02  4.32e-05  4.93e-03  3.13e-02  0.850   4.6
    7    -1853.8198462218892928    -2.01e-02  3.86e-05  4.29e-03  2.75e-02  0.850   4.1
    8    -1853.8370714247334945    -1.72e-02  2.30e-04  2.08e-02  2.32e-02  0.000   4.1
    9    -1853.9282356659564357    -9.12e-02  2.88e-05  2.69e-03  4.69e-03  0.000   4.4
   10    -1853.9285784660546597    -3.43e-04  1.50e-05  1.01e-03  2.74e-03  0.000   4.1
                              *** Initializing SOSCF ***
---------------------------------------S-O-S-C-F--------------------------------------
Iteration    Energy (Eh)           Delta-E    RMSDP     MaxDP     MaxGrad    Time(sec)
--------------------------------------------------------------------------------------
   11    -1853.9287262219627337    -1.48e-04  1.21e-05  1.69e-03  7.80e-04     4.5
               *** Restarting incremental Fock matrix formation ***
   12    -1853.9287787361440678    -5.25e-05  2.17e-05  4.36e-03  1.56e-03     7.8
   13    -1853.9288290437966680    -5.03e-05  1.87e-05  4.35e-03  3.79e-04     5.1
   14    -1853.9288253048275692     3.74e-06  8.31e-06  1.34e-03  8.52e-04     5.3
   15    -1853.9288378554397241    -1.26e-05  6.60e-06  9.97e-04  3.68e-04     4.8
   16    -1853.9288359214556294     1.93e-06  3.91e-06  7.09e-04  2.76e-04     4.9
   17    -1853.9288399883530474    -4.07e-06  1.47e-06  2.83e-04  2.87e-05     4.9
   18    -1853.9288399361644224     5.22e-08  9.90e-07  2.24e-04  3.43e-05     4.3
   19    -1853.9288400663403991    -1.30e-07  2.16e-07  4.29e-05  5.02e-06     4.0
   20    -1853.9288400233840548     4.30e-08  1.23e-07  2.95e-05  9.98e-06     3.5
   21    -1853.9288400833279411    -5.99e-08  9.47e-08  1.70e-05  1.66e-06     3.2
                  *** Gradient check signals convergence ***

               *****************************************************
               *                     SUCCESS                       *
               *           SCF CONVERGED AFTER  21 CYCLES          *
               *****************************************************

Recomputing exchange energy using gridx3       ... done (    8.850 sec)
Old exchange energy                            :    -19.903300597 Eh
New exchange energy                            :    -19.903285259 Eh
Exchange energy change after final integration :      0.000015338 Eh
Total energy after final integration           :  -1853.928824745 Eh

SMD CDS free energy correction energy :                 3.17677     Kcal/mol
Total Energy after SMD CDS correction =             -1853.923762236 Eh
             **** ENERGY FILE WAS UPDATED (rf_mecn_freq_TP_C3_D_B.en.tmp) ****

----------------
TOTAL SCF ENERGY
----------------

Total Energy       :      -1853.92376223560859 Eh          -50447.83029 eV

Components:
Nuclear Repulsion  :       2643.88561387493473 Eh           71943.78510 eV
Electronic Energy  :      -4497.73438670011819 Eh         -122389.57483 eV
One Electron Energy:      -7863.69615072407396 Eh         -213982.05090 eV
Two Electron Energy:       3365.96176402395577 Eh           91592.47607 eV
CPCM Dielectric    :         -0.08006725814409 Eh              -2.17874 eV
SMD CDS (Gcds)     :          0.00506250988305 Eh               0.13776 eV

Virial components:
Potential Energy   :      -3701.58218149127697 Eh         -100725.17193 eV
Kinetic Energy     :       1847.65841925566815 Eh           50277.34164 eV
Virial Ratio       :          2.00339096388956

DFT components:
N(Alpha)           :       95.999962359020 electrons
N(Beta)            :       94.999954052955 electrons
N(Total)           :      190.999916411974 electrons
E(X)               :     -180.881313772029 Eh       
E(C)               :       -6.716534846355 Eh       
E(XC)              :     -187.597848618385 Eh       

CPCM Solvation Model Properties:
Surface-charge          :          0.99002172563481
Corrected charge        :          1.00000000000000
Outlying charge corr.   :          0.00000553866680 Eh               0.00015 eV
Free-energy (cav+disp)  :          0.00506250988305 Eh               0.13776 eV

---------------
SCF CONVERGENCE
---------------

  Last Energy change         ...    5.9944e-08  Tolerance :   1.0000e-08
  Last MAX-Density change    ...    1.7041e-05  Tolerance :   1.0000e-07
  Last RMS-Density change    ...    9.4664e-08  Tolerance :   5.0000e-09
  Last DIIS Error            ...    7.7975e-04  Tolerance :   5.0000e-07
  Last Orbital Gradient      ...    1.6649e-06  Tolerance :   1.0000e-05
  Last Orbital Rotation      ...    3.4369e-06  Tolerance :   1.0000e-05


----------------------
UHF SPIN CONTAMINATION
----------------------

Warning: in a DFT calculation there is little theoretical justification to 
         calculate <S**2> as in Hartree-Fock theory. We will do it anyways
         but you should keep in mind that the values have only limited relevance

Expectation value of <S**2>     :     0.755386
Ideal value S*(S+1) for S=0.5   :     0.750000
Deviation                       :     0.005386

----------------
ORBITAL ENERGIES
----------------
                 SPIN UP ORBITALS
  NO   OCC          E(Eh)            E(eV) 
   0   1.0000     -24.659932      -671.0309 
   1   1.0000     -24.658891      -671.0025 
   2   1.0000     -24.658370      -670.9884 
   3   1.0000     -24.658187      -670.9834 
   4   1.0000     -24.657198      -670.9565 
   5   1.0000     -24.656731      -670.9438 
   6   1.0000     -24.656572      -670.9394 
   7   1.0000     -24.652463      -670.8276 
   8   1.0000     -24.650694      -670.7795 
   9   1.0000     -24.646632      -670.6689 
  10   1.0000     -24.646201      -670.6572 
  11   1.0000     -24.636339      -670.3889 
  12   1.0000     -24.610425      -669.6837 
  13   1.0000     -24.603547      -669.4965 
  14   1.0000     -18.992051      -516.8000 
  15   1.0000     -18.991875      -516.7952 
  16   1.0000     -10.394414      -282.8464 
  17   1.0000     -10.341657      -281.4108 
  18   1.0000     -10.340902      -281.3902 
  19   1.0000     -10.333970      -281.2016 
  20   1.0000     -10.326852      -281.0079 
  21   1.0000     -10.275097      -279.5996 
  22   1.0000     -10.234911      -278.5061 
  23   1.0000     -10.189776      -277.2779 
  24   1.0000      -1.320985       -35.9458 
  25   1.0000      -1.294426       -35.2231 
  26   1.0000      -1.278369       -34.7862 
  27   1.0000      -1.272903       -34.6374 
  28   1.0000      -1.261550       -34.3285 
  29   1.0000      -1.239552       -33.7299 
  30   1.0000      -1.235793       -33.6276 
  31   1.0000      -1.230319       -33.4787 
  32   1.0000      -1.227697       -33.4073 
  33   1.0000      -1.220891       -33.2221 
  34   1.0000      -1.219088       -33.1731 
  35   1.0000      -1.216497       -33.1026 
  36   1.0000      -1.203356       -32.7450 
  37   1.0000      -1.165710       -31.7206 
  38   1.0000      -0.999854       -27.2074 
  39   1.0000      -0.918620       -24.9969 
  40   1.0000      -0.821662       -22.3586 
  41   1.0000      -0.805091       -21.9076 
  42   1.0000      -0.772499       -21.0208 
  43   1.0000      -0.728596       -19.8261 
  44   1.0000      -0.686176       -18.6718 
  45   1.0000      -0.658061       -17.9067 
  46   1.0000      -0.631523       -17.1846 
  47   1.0000      -0.619141       -16.8477 
  48   1.0000      -0.614513       -16.7217 
  49   1.0000      -0.608409       -16.5557 
  50   1.0000      -0.596183       -16.2230 
  51   1.0000      -0.590900       -16.0792 
  52   1.0000      -0.589421       -16.0390 
  53   1.0000      -0.575860       -15.6700 
  54   1.0000      -0.571996       -15.5648 
  55   1.0000      -0.565631       -15.3916 
  56   1.0000      -0.559758       -15.2318 
  57   1.0000      -0.549697       -14.9580 
  58   1.0000      -0.540844       -14.7171 
  59   1.0000      -0.532265       -14.4837 
  60   1.0000      -0.515504       -14.0276 
  61   1.0000      -0.484517       -13.1844 
  62   1.0000      -0.480067       -13.0633 
  63   1.0000      -0.479649       -13.0519 
  64   1.0000      -0.473572       -12.8865 
  65   1.0000      -0.468702       -12.7540 
  66   1.0000      -0.466546       -12.6954 
  67   1.0000      -0.460195       -12.5225 
  68   1.0000      -0.454180       -12.3589 
  69   1.0000      -0.452113       -12.3026 
  70   1.0000      -0.446105       -12.1391 
  71   1.0000      -0.443317       -12.0633 
  72   1.0000      -0.438634       -11.9358 
  73   1.0000      -0.433429       -11.7942 
  74   1.0000      -0.432714       -11.7748 
  75   1.0000      -0.424024       -11.5383 
  76   1.0000      -0.421969       -11.4824 
  77   1.0000      -0.420324       -11.4376 
  78   1.0000      -0.417241       -11.3537 
  79   1.0000      -0.414486       -11.2787 
  80   1.0000      -0.414121       -11.2688 
  81   1.0000      -0.411128       -11.1874 
  82   1.0000      -0.405520       -11.0348 
  83   1.0000      -0.402961       -10.9651 
  84   1.0000      -0.401612       -10.9284 
  85   1.0000      -0.396025       -10.7764 
  86   1.0000      -0.380702       -10.3594 
  87   1.0000      -0.378032       -10.2868 
  88   1.0000      -0.372751       -10.1431 
  89   1.0000      -0.360464        -9.8087 
  90   1.0000      -0.352833        -9.6011 
  91   1.0000      -0.323936        -8.8148 
  92   1.0000      -0.247096        -6.7238 
  93   1.0000      -0.234218        -6.3734 
  94   1.0000      -0.222031        -6.0418 
  95   1.0000      -0.210374        -5.7246 
  96   0.0000      -0.016123        -0.4387 
  97   0.0000       0.001875         0.0510 
  98   0.0000       0.010465         0.2848 
  99   0.0000       0.043230         1.1763 
 100   0.0000       0.059999         1.6327 
 101   0.0000       0.082614         2.2480 
 102   0.0000       0.100538         2.7358 
 103   0.0000       0.106390         2.8950 
 104   0.0000       0.111657         3.0383 
 105   0.0000       0.127579         3.4716 
 106   0.0000       0.132602         3.6083 

                 SPIN DOWN ORBITALS
  NO   OCC          E(Eh)            E(eV) 
   0   1.0000     -24.659933      -671.0309 
   1   1.0000     -24.658891      -671.0025 
   2   1.0000     -24.658366      -670.9883 
   3   1.0000     -24.658187      -670.9834 
   4   1.0000     -24.657195      -670.9564 
   5   1.0000     -24.656725      -670.9436 
   6   1.0000     -24.656570      -670.9394 
   7   1.0000     -24.652387      -670.8256 
   8   1.0000     -24.650627      -670.7777 
   9   1.0000     -24.646196      -670.6571 
  10   1.0000     -24.642692      -670.5618 
  11   1.0000     -24.634887      -670.3494 
  12   1.0000     -24.610371      -669.6822 
  13   1.0000     -24.601976      -669.4538 
  14   1.0000     -18.991267      -516.7787 
  15   1.0000     -18.990742      -516.7644 
  16   1.0000     -10.394407      -282.8462 
  17   1.0000     -10.341638      -281.4103 
  18   1.0000     -10.340869      -281.3893 
  19   1.0000     -10.333600      -281.1916 
  20   1.0000     -10.327467      -281.0247 
  21   1.0000     -10.275775      -279.6181 
  22   1.0000     -10.219305      -278.0814 
  23   1.0000     -10.189715      -277.2762 
  24   1.0000      -1.320979       -35.9457 
  25   1.0000      -1.294284       -35.2193 
  26   1.0000      -1.278149       -34.7802 
  27   1.0000      -1.272724       -34.6326 
  28   1.0000      -1.260395       -34.2971 
  29   1.0000      -1.235792       -33.6276 
  30   1.0000      -1.233255       -33.5586 
  31   1.0000      -1.230314       -33.4785 
  32   1.0000      -1.227634       -33.4056 
  33   1.0000      -1.220805       -33.2198 
  34   1.0000      -1.217085       -33.1186 
  35   1.0000      -1.215958       -33.0879 
  36   1.0000      -1.201384       -32.6913 
  37   1.0000      -1.163708       -31.6661 
  38   1.0000      -0.998468       -27.1697 
  39   1.0000      -0.916775       -24.9467 
  40   1.0000      -0.820010       -22.3136 
  41   1.0000      -0.796981       -21.6869 
  42   1.0000      -0.764820       -20.8118 
  43   1.0000      -0.725813       -19.7504 
  44   1.0000      -0.685229       -18.6460 
  45   1.0000      -0.657044       -17.8791 
  46   1.0000      -0.627487       -17.0748 
  47   1.0000      -0.618165       -16.8211 
  48   1.0000      -0.613076       -16.6827 
  49   1.0000      -0.608295       -16.5526 
  50   1.0000      -0.595544       -16.2056 
  51   1.0000      -0.589482       -16.0406 
  52   1.0000      -0.588075       -16.0023 
  53   1.0000      -0.575128       -15.6500 
  54   1.0000      -0.569843       -15.5062 
  55   1.0000      -0.563797       -15.3417 
  56   1.0000      -0.558386       -15.1945 
  57   1.0000      -0.547734       -14.9046 
  58   1.0000      -0.535183       -14.5631 
  59   1.0000      -0.530153       -14.4262 
  60   1.0000      -0.513592       -13.9755 
  61   1.0000      -0.484451       -13.1826 
  62   1.0000      -0.479618       -13.0511 
  63   1.0000      -0.474339       -12.9074 
  64   1.0000      -0.469926       -12.7873 
  65   1.0000      -0.467836       -12.7305 
  66   1.0000      -0.459987       -12.5169 
  67   1.0000      -0.454003       -12.3540 
  68   1.0000      -0.451713       -12.2917 
  69   1.0000      -0.451231       -12.2786 
  70   1.0000      -0.444571       -12.0974 
  71   1.0000      -0.442001       -12.0275 
  72   1.0000      -0.437884       -11.9154 
  73   1.0000      -0.432974       -11.7818 
  74   1.0000      -0.431306       -11.7364 
  75   1.0000      -0.422369       -11.4932 
  76   1.0000      -0.421032       -11.4569 
  77   1.0000      -0.419946       -11.4273 
  78   1.0000      -0.415888       -11.3169 
  79   1.0000      -0.414271       -11.2729 
  80   1.0000      -0.411650       -11.2016 
  81   1.0000      -0.410688       -11.1754 
  82   1.0000      -0.404655       -11.0112 
  83   1.0000      -0.401957       -10.9378 
  84   1.0000      -0.399929       -10.8826 
  85   1.0000      -0.394910       -10.7460 
  86   1.0000      -0.379579       -10.3289 
  87   1.0000      -0.376599       -10.2478 
  88   1.0000      -0.370972       -10.0947 
  89   1.0000      -0.359922        -9.7940 
  90   1.0000      -0.349944        -9.5225 
  91   1.0000      -0.322023        -8.7627 
  92   1.0000      -0.234361        -6.3773 
  93   1.0000      -0.219361        -5.9691 
  94   1.0000      -0.218003        -5.9322 
  95   0.0000      -0.108191        -2.9440 
  96   0.0000      -0.013102        -0.3565 
  97   0.0000       0.003995         0.1087 
  98   0.0000       0.014342         0.3903 
  99   0.0000       0.047614         1.2956 
 100   0.0000       0.062738         1.7072 
 101   0.0000       0.089542         2.4366 
 102   0.0000       0.102960         2.8017 
 103   0.0000       0.108283         2.9465 
 104   0.0000       0.114262         3.1092 
 105   0.0000       0.128755         3.5036 
*Only the first 10 virtual orbitals were printed.

                    ********************************
                    * MULLIKEN POPULATION ANALYSIS *
                    ********************************

--------------------------------------------
MULLIKEN ATOMIC CHARGES AND SPIN POPULATIONS
--------------------------------------------
   0 C :    0.166028   -0.004351
   1 O :   -0.471381    0.021737
   2 O :   -0.484376    0.035004
   3 C :    0.310629   -0.026310
   4 C :    0.112434    0.826302
   5 C :    0.328454    0.009401
   6 C :    0.296801    0.001898
   7 C :    0.271290    0.002838
   8 C :    0.294706    0.000704
   9 C :    0.408326    0.000282
  10 F :   -0.211900    0.031048
  11 F :   -0.206236    0.001161
  12 F :   -0.164971    0.070762
  13 F :   -0.165371   -0.000577
  14 F :   -0.175421    0.027597
  15 F :   -0.158644    0.001547
  16 F :   -0.152312    0.000866
  17 F :   -0.150452   -0.000099
  18 F :   -0.151411    0.000084
  19 F :   -0.147691   -0.000015
  20 F :   -0.145091    0.000045
  21 F :   -0.136094   -0.000008
  22 F :   -0.133565    0.000078
  23 F :   -0.133753    0.000008
Sum of atomic charges         :   -1.0000000
Sum of atomic spin populations:    1.0000000

-----------------------------------------------------
MULLIKEN REDUCED ORBITAL CHARGES AND SPIN POPULATIONS
-----------------------------------------------------
CHARGE
  0 C s       :     3.037297  s :     3.037297
      pz      :     0.917568  p :     2.514179
      px      :     0.803118
      py      :     0.793492
      dz2     :     0.061522  d :     0.258402
      dxz     :     0.029435
      dyz     :     0.050679
      dx2y2   :     0.072465
      dxy     :     0.044301
      f0      :     0.002437  f :     0.024094
      f+1     :     0.003049
      f-1     :     0.005534
      f+2     :     0.002837
      f-2     :     0.003508
      f+3     :     0.002922
      f-3     :     0.003807

  1 O s       :     3.791733  s :     3.791733
      pz      :     1.731727  p :     4.650474
      px      :     1.489263
      py      :     1.429484
      dz2     :     0.003412  d :     0.027407
      dxz     :     0.003076
      dyz     :     0.005552
      dx2y2   :     0.008060
      dxy     :     0.007306
      f0      :     0.000186  f :     0.001767
      f+1     :     0.000123
      f-1     :     0.000266
      f+2     :     0.000176
      f-2     :     0.000295
      f+3     :     0.000296
      f-3     :     0.000426

  2 O s       :     3.800381  s :     3.800381
      pz      :     1.680549  p :     4.655451
      px      :     1.485288
      py      :     1.489614
      dz2     :     0.004069  d :     0.026838
      dxz     :     0.004499
      dyz     :     0.006190
      dx2y2   :     0.006295
      dxy     :     0.005786
      f0      :     0.000175  f :     0.001707
      f+1     :     0.000141
      f-1     :     0.000260
      f+2     :     0.000295
      f-2     :     0.000349
      f+3     :     0.000215
      f-3     :     0.000271

  3 C s       :     3.088682  s :     3.088682
      pz      :     0.930094  p :     2.312068
      px      :     0.759990
      py      :     0.621983
      dz2     :     0.049253  d :     0.262789
      dxz     :     0.046004
      dyz     :     0.054327
      dx2y2   :     0.056422
      dxy     :     0.056784
      f0      :     0.002620  f :     0.025833
      f+1     :     0.002618
      f-1     :     0.004432
      f+2     :     0.002713
      f-2     :     0.004804
      f+3     :     0.003640
      f-3     :     0.005005

  4 C s       :     3.246769  s :     3.246769
      pz      :     0.790087  p :     2.468278
      px      :     0.869809
      py      :     0.808382
      dz2     :     0.035790  d :     0.155111
      dxz     :     0.036280
      dyz     :     0.021384
      dx2y2   :     0.023099
      dxy     :     0.038556
      f0      :     0.003049  f :     0.017408
      f+1     :     0.002277
      f-1     :     0.002675
      f+2     :     0.002190
      f-2     :     0.003263
      f+3     :     0.002283
      f-3     :     0.001670

  5 C s       :     3.078706  s :     3.078706
      pz      :     0.596221  p :     2.258450
      px      :     0.931910
      py      :     0.730319
      dz2     :     0.075584  d :     0.306763
      dxz     :     0.067637
      dyz     :     0.056049
      dx2y2   :     0.045160
      dxy     :     0.062333
      f0      :     0.005849  f :     0.027627
      f+1     :     0.003194
      f-1     :     0.004668
      f+2     :     0.004364
      f-2     :     0.005042
      f+3     :     0.002506
      f-3     :     0.002004

  6 C s       :     3.130192  s :     3.130192
      pz      :     0.617863  p :     2.244381
      px      :     0.896641
      py      :     0.729877
      dz2     :     0.078701  d :     0.300182
      dxz     :     0.059052
      dyz     :     0.058581
      dx2y2   :     0.042661
      dxy     :     0.061187
      f0      :     0.005638  f :     0.028445
      f+1     :     0.003195
      f-1     :     0.005155
      f+2     :     0.004987
      f-2     :     0.004561
      f+3     :     0.002475
      f-3     :     0.002435

  7 C s       :     3.135239  s :     3.135239
      pz      :     0.619277  p :     2.262744
      px      :     0.934552
      py      :     0.708915
      dz2     :     0.066881  d :     0.302285
      dxz     :     0.066316
      dyz     :     0.069129
      dx2y2   :     0.036219
      dxy     :     0.063740
      f0      :     0.004032  f :     0.028442
      f+1     :     0.004411
      f-1     :     0.007951
      f+2     :     0.002910
      f-2     :     0.003317
      f+3     :     0.003336
      f-3     :     0.002484

  8 C s       :     3.104473  s :     3.104473
      pz      :     0.678157  p :     2.275977
      px      :     0.916899
      py      :     0.680921
      dz2     :     0.056285  d :     0.296344
      dxz     :     0.056662
      dyz     :     0.077390
      dx2y2   :     0.043590
      dxy     :     0.062417
      f0      :     0.005061  f :     0.028499
      f+1     :     0.003722
      f-1     :     0.006286
      f+2     :     0.003839
      f-2     :     0.002466
      f+3     :     0.004255
      f-3     :     0.002871

  9 C s       :     3.020725  s :     3.020725
      pz      :     0.720220  p :     2.168143
      px      :     0.783011
      py      :     0.664912
      dz2     :     0.061058  d :     0.362403
      dxz     :     0.073655
      dyz     :     0.085074
      dx2y2   :     0.066993
      dxy     :     0.075623
      f0      :     0.006642  f :     0.040404
      f+1     :     0.006665
      f-1     :     0.005680
      f+2     :     0.005791
      f-2     :     0.003103
      f+3     :     0.008716
      f-3     :     0.003806

 10 F s       :     3.911981  s :     3.911981
      pz      :     1.787170  p :     5.285827
      px      :     1.854593
      py      :     1.644064
      dz2     :     0.002025  d :     0.013491
      dxz     :     0.001398
      dyz     :     0.004578
      dx2y2   :     0.002660
      dxy     :     0.002831
      f0      :     0.000071  f :     0.000601
      f+1     :     0.000023
      f-1     :     0.000112
      f+2     :     0.000122
      f-2     :     0.000117
      f+3     :     0.000088
      f-3     :     0.000067

 11 F s       :     3.915178  s :     3.915178
      pz      :     1.898293  p :     5.276552
      px      :     1.703220
      py      :     1.675039
      dz2     :     0.002013  d :     0.013885
      dxz     :     0.001625
      dyz     :     0.002051
      dx2y2   :     0.002788
      dxy     :     0.005407
      f0      :     0.000057  f :     0.000622
      f+1     :     0.000063
      f-1     :     0.000072
      f+2     :     0.000013
      f-2     :     0.000102
      f+3     :     0.000171
      f-3     :     0.000144

 12 F s       :     3.918726  s :     3.918726
      pz      :     1.627056  p :     5.229282
      px      :     1.913059
      py      :     1.689168
      dz2     :     0.004393  d :     0.016263
      dxz     :     0.001987
      dyz     :     0.005888
      dx2y2   :     0.002329
      dxy     :     0.001666
      f0      :     0.000102  f :     0.000699
      f+1     :     0.000031
      f-1     :     0.000234
      f+2     :     0.000169
      f-2     :     0.000096
      f+3     :     0.000030
      f-3     :     0.000037

 13 F s       :     3.924827  s :     3.924827
      pz      :     1.648097  p :     5.224273
      px      :     1.903590
      py      :     1.672586
      dz2     :     0.003142  d :     0.015581
      dxz     :     0.001956
      dyz     :     0.006188
      dx2y2   :     0.002281
      dxy     :     0.002014
      f0      :     0.000082  f :     0.000690
      f+1     :     0.000028
      f-1     :     0.000227
      f+2     :     0.000170
      f-2     :     0.000104
      f+3     :     0.000039
      f-3     :     0.000039

 14 F s       :     3.917356  s :     3.917356
      pz      :     1.575088  p :     5.242925
      px      :     1.893162
      py      :     1.774675
      dz2     :     0.004440  d :     0.014497
      dxz     :     0.002721
      dyz     :     0.005100
      dx2y2   :     0.001017
      dxy     :     0.001219
      f0      :     0.000125  f :     0.000642
      f+1     :     0.000082
      f-1     :     0.000229
      f+2     :     0.000088
      f-2     :     0.000092
      f+3     :     0.000014
      f-3     :     0.000012

 15 F s       :     3.918517  s :     3.918517
      pz      :     1.566095  p :     5.223705
      px      :     1.872300
      py      :     1.785310
      dz2     :     0.004875  d :     0.015726
      dxz     :     0.003375
      dyz     :     0.005057
      dx2y2   :     0.001046
      dxy     :     0.001373
      f0      :     0.000137  f :     0.000696
      f+1     :     0.000113
      f-1     :     0.000225
      f+2     :     0.000083
      f-2     :     0.000112
      f+3     :     0.000014
      f-3     :     0.000012

 16 F s       :     3.918733  s :     3.918733
      pz      :     1.683523  p :     5.216768
      px      :     1.872921
      py      :     1.660324
      dz2     :     0.002868  d :     0.016091
      dxz     :     0.002231
      dyz     :     0.005911
      dx2y2   :     0.002511
      dxy     :     0.002570
      f0      :     0.000078  f :     0.000720
      f+1     :     0.000041
      f-1     :     0.000189
      f+2     :     0.000159
      f-2     :     0.000144
      f+3     :     0.000059
      f-3     :     0.000050

 17 F s       :     3.918035  s :     3.918035
      pz      :     1.777686  p :     5.215650
      px      :     1.898683
      py      :     1.539282
      dz2     :     0.002080  d :     0.016054
      dxz     :     0.001013
      dyz     :     0.005557
      dx2y2   :     0.004278
      dxy     :     0.003127
      f0      :     0.000081  f :     0.000712
      f+1     :     0.000005
      f-1     :     0.000134
      f+2     :     0.000200
      f-2     :     0.000080
      f+3     :     0.000097
      f-3     :     0.000116

 18 F s       :     3.918430  s :     3.918430
      pz      :     1.458593  p :     5.216309
      px      :     1.893594
      py      :     1.864122
      dz2     :     0.007620  d :     0.015965
      dxz     :     0.003814
      dyz     :     0.003720
      dx2y2   :     0.000357
      dxy     :     0.000454
      f0      :     0.000308  f :     0.000707
      f+1     :     0.000159
      f-1     :     0.000180
      f+2     :     0.000023
      f-2     :     0.000033
      f+3     :     0.000002
      f-3     :     0.000002

 19 F s       :     3.917736  s :     3.917736
      pz      :     1.865819  p :     5.213273
      px      :     1.887957
      py      :     1.459497
      dz2     :     0.002139  d :     0.015972
      dxz     :     0.000351
      dyz     :     0.003841
      dx2y2   :     0.005739
      dxy     :     0.003902
      f0      :     0.000071  f :     0.000710
      f+1     :     0.000011
      f-1     :     0.000126
      f+2     :     0.000125
      f-2     :     0.000031
      f+3     :     0.000156
      f-3     :     0.000191

 20 F s       :     3.915375  s :     3.915375
      pz      :     1.471185  p :     5.212874
      px      :     1.858423
      py      :     1.883266
      dz2     :     0.007360  d :     0.016118
      dxz     :     0.004749
      dyz     :     0.003061
      dx2y2   :     0.000541
      dxy     :     0.000408
      f0      :     0.000279  f :     0.000725
      f+1     :     0.000232
      f-1     :     0.000128
      f+2     :     0.000044
      f-2     :     0.000037
      f+3     :     0.000003
      f-3     :     0.000002

 21 F s       :     3.912790  s :     3.912790
      pz      :     1.883802  p :     5.206370
      px      :     1.884851
      py      :     1.437716
      dz2     :     0.002333  d :     0.016174
      dxz     :     0.000166
      dyz     :     0.003489
      dx2y2   :     0.006567
      dxy     :     0.003618
      f0      :     0.000065  f :     0.000759
      f+1     :     0.000012
      f-1     :     0.000156
      f+2     :     0.000106
      f-2     :     0.000010
      f+3     :     0.000160
      f-3     :     0.000250

 22 F s       :     3.911216  s :     3.911216
      pz      :     1.850045  p :     5.205365
      px      :     1.543368
      py      :     1.811952
      dz2     :     0.002223  d :     0.016216
      dxz     :     0.003796
      dyz     :     0.001123
      dx2y2   :     0.004375
      dxy     :     0.004700
      f0      :     0.000081  f :     0.000769
      f+1     :     0.000115
      f-1     :     0.000028
      f+2     :     0.000089
      f-2     :     0.000116
      f+3     :     0.000140
      f-3     :     0.000200

 23 F s       :     3.911345  s :     3.911345
      pz      :     1.467029  p :     5.205316
      px      :     1.879620
      py      :     1.858667
      dz2     :     0.007709  d :     0.016320
      dxz     :     0.003746
      dyz     :     0.004015
      dx2y2   :     0.000448
      dxy     :     0.000403
      f0      :     0.000302  f :     0.000772
      f+1     :     0.000175
      f-1     :     0.000210
      f+2     :     0.000041
      f-2     :     0.000038
      f+3     :     0.000003
      f-3     :     0.000003


SPIN
  0 C s       :    -0.000844  s :    -0.000844
      pz      :    -0.000224  p :    -0.002894
      px      :    -0.001208
      py      :    -0.001463
      dz2     :     0.000143  d :    -0.001119
      dxz     :    -0.000208
      dyz     :    -0.000550
      dx2y2   :    -0.000140
      dxy     :    -0.000364
      f0      :     0.000044  f :     0.000506
      f+1     :     0.000099
      f-1     :     0.000292
      f+2     :    -0.000001
      f-2     :     0.000023
      f+3     :     0.000048
      f-3     :     0.000000

  1 O s       :     0.001262  s :     0.001262
      pz      :     0.018654  p :     0.020536
      px      :    -0.000176
      py      :     0.002058
      dz2     :    -0.000010  d :    -0.000047
      dxz     :    -0.000013
      dyz     :    -0.000002
      dx2y2   :    -0.000013
      dxy     :    -0.000009
      f0      :    -0.000004  f :    -0.000014
      f+1     :    -0.000002
      f-1     :    -0.000005
      f+2     :    -0.000002
      f-2     :    -0.000002
      f+3     :    -0.000000
      f-3     :     0.000000

  2 O s       :     0.001107  s :     0.001107
      pz      :     0.016622  p :     0.033789
      px      :     0.008978
      py      :     0.008189
      dz2     :    -0.000023  d :     0.000114
      dxz     :     0.000065
      dyz     :     0.000055
      dx2y2   :    -0.000003
      dxy     :     0.000021
      f0      :    -0.000007  f :    -0.000006
      f+1     :     0.000003
      f-1     :     0.000003
      f+2     :    -0.000007
      f-2     :    -0.000007
      f+3     :     0.000004
      f-3     :     0.000004

  3 C s       :    -0.006592  s :    -0.006592
      pz      :    -0.014300  p :    -0.032703
      px      :    -0.019093
      py      :     0.000690
      dz2     :     0.002669  d :     0.011530
      dxz     :     0.003131
      dyz     :     0.000245
      dx2y2   :     0.000082
      dxy     :     0.005404
      f0      :     0.000053  f :     0.001455
      f+1     :     0.000434
      f-1     :     0.000124
      f+2     :     0.000386
      f-2     :    -0.000027
      f+3     :     0.000114
      f-3     :     0.000371

  4 C s       :     0.066082  s :     0.066082
      pz      :     0.348605  p :     0.759868
      px      :     0.061720
      py      :     0.349543
      dz2     :    -0.000004  d :     0.002319
      dxz     :     0.001720
      dyz     :     0.000077
      dx2y2   :     0.000355
      dxy     :     0.000170
      f0      :    -0.000176  f :    -0.001967
      f+1     :    -0.000191
      f-1     :    -0.000548
      f+2     :    -0.000485
      f-2     :    -0.000262
      f+3     :    -0.000078
      f-3     :    -0.000228

  5 C s       :     0.004165  s :     0.004165
      pz      :     0.006802  p :    -0.014893
      px      :    -0.018562
      py      :    -0.003134
      dz2     :     0.000451  d :     0.019008
      dxz     :     0.005661
      dyz     :     0.002642
      dx2y2   :     0.007979
      dxy     :     0.002275
      f0      :     0.000321  f :     0.001122
      f+1     :    -0.000030
      f-1     :     0.000062
      f+2     :     0.000121
      f-2     :     0.000210
      f+3     :     0.000470
      f-3     :    -0.000032

  6 C s       :    -0.002756  s :    -0.002756
      pz      :     0.001920  p :     0.003530
      px      :    -0.003612
      py      :     0.005222
      dz2     :     0.000127  d :     0.001095
      dxz     :     0.000130
      dyz     :     0.000046
      dx2y2   :     0.000614
      dxy     :     0.000177
      f0      :     0.000010  f :     0.000029
      f+1     :     0.000005
      f-1     :    -0.000007
      f+2     :     0.000006
      f-2     :     0.000005
      f+3     :     0.000010
      f-3     :    -0.000000

  7 C s       :     0.000052  s :     0.000052
      pz      :     0.000261  p :     0.002434
      px      :     0.000687
      py      :     0.001486
      dz2     :     0.000025  d :     0.000342
      dxz     :     0.000055
      dyz     :     0.000002
      dx2y2   :     0.000304
      dxy     :    -0.000044
      f0      :    -0.000001  f :     0.000010
      f+1     :     0.000000
      f-1     :     0.000001
      f+2     :     0.000003
      f-2     :    -0.000000
      f+3     :     0.000009
      f-3     :    -0.000002

  8 C s       :     0.000033  s :     0.000033
      pz      :    -0.000035  p :     0.000607
      px      :     0.000254
      py      :     0.000388
      dz2     :     0.000000  d :     0.000061
      dxz     :     0.000017
      dyz     :    -0.000003
      dx2y2   :     0.000026
      dxy     :     0.000020
      f0      :    -0.000000  f :     0.000003
      f+1     :    -0.000000
      f-1     :     0.000000
      f+2     :     0.000000
      f-2     :    -0.000000
      f+3     :     0.000003
      f-3     :     0.000000

  9 C s       :     0.000082  s :     0.000082
      pz      :     0.000067  p :     0.000172
      px      :     0.000049
      py      :     0.000056
      dz2     :     0.000002  d :     0.000026
      dxz     :    -0.000000
      dyz     :     0.000002
      dx2y2   :     0.000015
      dxy     :     0.000007
      f0      :    -0.000000  f :     0.000002
      f+1     :     0.000000
      f-1     :    -0.000000
      f+2     :     0.000000
      f-2     :     0.000001
      f+3     :     0.000001
      f-3     :    -0.000000

 10 F s       :     0.000726  s :     0.000726
      pz      :     0.000156  p :     0.030301
      px      :     0.019401
      py      :     0.010743
      dz2     :     0.000005  d :     0.000018
      dxz     :    -0.000006
      dyz     :    -0.000010
      dx2y2   :     0.000041
      dxy     :    -0.000012
      f0      :     0.000001  f :     0.000004
      f+1     :     0.000000
      f-1     :    -0.000000
      f+2     :    -0.000000
      f-2     :     0.000001
      f+3     :     0.000001
      f-3     :     0.000001

 11 F s       :    -0.000071  s :    -0.000071
      pz      :     0.000078  p :     0.001256
      px      :     0.001016
      py      :     0.000162
      dz2     :     0.000006  d :    -0.000022
      dxz     :    -0.000006
      dyz     :    -0.000013
      dx2y2   :    -0.000026
      dxy     :     0.000016
      f0      :    -0.000000  f :    -0.000001
      f+1     :     0.000000
      f-1     :    -0.000000
      f+2     :     0.000000
      f-2     :    -0.000001
      f+3     :    -0.000001
      f-3     :    -0.000000

 12 F s       :     0.003232  s :     0.003232
      pz      :     0.035190  p :     0.066004
      px      :     0.001956
      py      :     0.028859
      dz2     :     0.000965  d :     0.001502
      dxz     :     0.000053
      dyz     :     0.000171
      dx2y2   :     0.000281
      dxy     :     0.000032
      f0      :     0.000021  f :     0.000024
      f+1     :     0.000003
      f-1     :    -0.000005
      f+2     :     0.000001
      f-2     :    -0.000002
      f+3     :     0.000002
      f-3     :     0.000005

 13 F s       :    -0.000184  s :    -0.000184
      pz      :     0.001816  p :    -0.000430
      px      :    -0.001365
      py      :    -0.000881
      dz2     :    -0.000012  d :     0.000036
      dxz     :     0.000004
      dyz     :     0.000017
      dx2y2   :     0.000039
      dxy     :    -0.000012
      f0      :    -0.000000  f :     0.000001
      f+1     :     0.000001
      f-1     :    -0.000000
      f+2     :     0.000001
      f-2     :    -0.000001
      f+3     :     0.000000
      f-3     :     0.000001

 14 F s       :     0.000435  s :     0.000435
      pz      :     0.010431  p :     0.027146
      px      :     0.008182
      py      :     0.008534
      dz2     :     0.000018  d :     0.000009
      dxz     :    -0.000033
      dyz     :    -0.000017
      dx2y2   :     0.000031
      dxy     :     0.000009
      f0      :     0.000002  f :     0.000007
      f+1     :     0.000001
      f-1     :     0.000001
      f+2     :     0.000002
      f-2     :     0.000001
      f+3     :     0.000000
      f-3     :     0.000001

 15 F s       :     0.000053  s :     0.000053
      pz      :    -0.000171  p :     0.001471
      px      :     0.000825
      py      :     0.000817
      dz2     :     0.000013  d :     0.000022
      dxz     :     0.000004
      dyz     :     0.000000
[...]
  7:     17.93   0.000809    4.09  0.014090  ( 0.111679 -0.004953  0.039912)
  8:     28.34   0.000078    0.39  0.000857  ( 0.023076 -0.003339  0.017702)
  9:     37.14   0.000016    0.08  0.000131  ( 0.004406 -0.000049 -0.010555)
 10:     42.15   0.000226    1.14  0.001673  (-0.037072 -0.015033 -0.008533)
 11:     50.15   0.000212    1.07  0.001319  ( 0.020514  0.019544 -0.022718)
 12:     56.78   0.000137    0.69  0.000755  ( 0.022146 -0.015714 -0.004171)
 13:     70.76   0.000281    1.42  0.001239  ( 0.019536 -0.028843  0.005014)
 14:    109.03   0.000207    1.05  0.000593  ( 0.023737  0.003767  0.003900)
 15:    112.97   0.002299   11.62  0.006352  (-0.067768 -0.016789  0.038438)
 16:    144.23   0.000602    3.04  0.001302  (-0.023868  0.010946  0.024753)
 17:    168.45   0.000055    0.28  0.000103  ( 0.003028  0.004992 -0.008284)
 18:    181.45   0.002568   12.98  0.004416  ( 0.028194 -0.006180 -0.059856)
 19:    190.10   0.001628    8.23  0.002673  ( 0.010254  0.023858 -0.044705)
 20:    198.28   0.000871    4.40  0.001371  (-0.006897  0.031821  0.017624)
 21:    219.41   0.000037    0.19  0.000053  ( 0.006814  0.000809  0.002377)
 22:    234.60   0.000292    1.48  0.000388  ( 0.010712  0.016454  0.001697)
 23:    238.86   0.000125    0.63  0.000164  (-0.009569 -0.005308  0.006622)
 24:    241.97   0.000590    2.98  0.000761  (-0.023011 -0.014724 -0.003784)
 25:    276.20   0.001405    7.10  0.001588  ( 0.038188 -0.011023  0.002862)
 26:    284.27   0.000127    0.64  0.000139  (-0.004751 -0.002397 -0.010536)
 27:    301.47   0.000127    0.64  0.000132  ( 0.006017  0.008653 -0.004521)
 28:    314.73   0.000607    3.07  0.000602  (-0.022326 -0.001979  0.009961)
 29:    328.91   0.000234    1.18  0.000222  ( 0.013656  0.005905  0.000564)
 30:    340.18   0.000723    3.65  0.000663  (-0.018325 -0.013114 -0.012475)
 31:    348.43   0.000207    1.04  0.000185  (-0.005107 -0.003348 -0.012152)
 32:    355.34   0.000036    0.18  0.000031  ( 0.004644 -0.002846  0.001287)
 33:    369.87   0.000093    0.47  0.000078  ( 0.008582 -0.001360 -0.001724)
 34:    387.86   0.000275    1.39  0.000222  ( 0.006350 -0.012723 -0.004397)
 35:    433.56   0.002272   11.48  0.001635  (-0.037840 -0.012695  0.006483)
 36:    455.95   0.000688    3.47  0.000471  ( 0.016205  0.000451  0.014415)
 37:    488.84   0.011519   58.21  0.007354  (-0.085405  0.002959 -0.007140)
 38:    506.28   0.001112    5.62  0.000685  ( 0.025178  0.006028  0.003896)
 39:    519.12   0.002361   11.93  0.001419  ( 0.019935 -0.029012 -0.013419)
 40:    552.83   0.004182   21.14  0.002361  (-0.030681 -0.035098 -0.013696)
 41:    562.89   0.003061   15.47  0.001697  (-0.034643 -0.022074 -0.003060)
 42:    587.59   0.001296    6.55  0.000688  ( 0.011779 -0.008703  0.021766)
 43:    597.20   0.004898   24.75  0.002560  (-0.049738  0.006241  0.006836)
 44:    620.84   0.004648   23.49  0.002336  ( 0.045178 -0.002524  0.017001)
 45:    649.21   0.021263  107.46  0.010221  ( 0.100258  0.001668  0.012902)
 46:    686.02   0.032627  164.88  0.014842  ( 0.120966 -0.011854  0.008274)
 47:    705.55   0.001841    9.30  0.000814  ( 0.019857 -0.005160 -0.019833)
 48:    739.52   0.013939   70.44  0.005882  ( 0.019196  0.001619 -0.074234)
 49:    752.51   0.005458   27.58  0.002264  (-0.012790  0.016776 -0.042644)
 50:    787.65   0.013801   69.74  0.005468  ( 0.054258  0.029809  0.040438)
 51:    867.26   0.001650    8.34  0.000594  ( 0.009004  0.011607 -0.019443)
 52:    968.77   0.047803  241.58  0.015398  ( 0.035326 -0.115105  0.030023)
 53:    989.57   0.041910  211.79  0.013216  (-0.066598 -0.065136  0.067368)
 54:   1023.09   0.028859  145.84  0.008802  ( 0.003824 -0.069942  0.062417)
 55:   1073.12   0.025275  127.73  0.007350  (-0.045366  0.011575 -0.071819)
 56:   1104.09   0.012957   65.48  0.003662  (-0.035214 -0.011410 -0.047875)
 57:   1114.08   0.026606  134.46  0.007453  (-0.029252 -0.067470 -0.045220)
 58:   1126.63   0.120706  610.00  0.033434  ( 0.023456 -0.135037 -0.121033)
 59:   1136.26   0.029270  147.92  0.008039  (-0.009463 -0.049148  0.074390)
 60:   1141.58   0.035098  177.37  0.009595  (-0.004433  0.085473 -0.047636)
 61:   1150.60   0.068594  346.64  0.018604  ( 0.034225 -0.123578 -0.046487)
 62:   1153.64   0.089399  451.79  0.024183  ( 0.055879  0.052313 -0.135365)
 63:   1173.42   0.097976  495.13  0.026056  (-0.046049 -0.074943  0.135348)
 64:   1193.14   0.003819   19.30  0.000999  ( 0.023480 -0.020675  0.004476)
 65:   1224.84   0.027870  140.84  0.007101  ( 0.062899 -0.034893 -0.043896)
 66:   1263.97   0.005770   29.16  0.001425  (-0.001681  0.031531  0.020679)
 67:   1298.55   0.062268  314.68  0.014964  ( 0.074986  0.033005  0.090840)
 68:   1315.98   0.004406   22.26  0.001045  ( 0.027210  0.016911 -0.004283)
 69:   1340.56   0.021832  110.33  0.005082  ( 0.051423 -0.008550 -0.048629)
 70:   1358.02   0.014847   75.03  0.003412  ( 0.006857  0.012450 -0.056654)
 71:   1703.79   0.157681  796.86  0.028881  ( 0.104233 -0.134116 -0.005389)

* The epsilon (eps) is given for a Dirac delta lineshape.
** The dipole moment derivative (T) already includes vibrational overlap.

The first frequency considered to be a vibration is 6
The total number of vibrations considered is 66


--------------------------
THERMOCHEMISTRY AT 298.15K
--------------------------

Temperature         ...   298.15 K
Pressure            ...     1.00 atm
Total Mass          ...   394.06 AMU
Quasi RRHO          ...     True
Cut-Off Frequency   ...     1.00 cm^-1

Throughout the following assumptions are being made:
  (1) The electronic state is orbitally nondegenerate
      but the spin degeneracy is treated
  (2) There are no thermally accessible electronically excited states
  (3) Hindered rotations indicated by low frequency modes are not
      treated as such but are treated as vibrations and this may
      cause some error
  (4) All equations used are the standard statistical mechanics
      equations for an ideal gas
  (5) All vibrations are strictly harmonic

freq.       9.35  E(vib)   ...       0.58 
freq.      17.93  E(vib)   ...       0.57 
freq.      28.34  E(vib)   ...       0.55 
freq.      37.14  E(vib)   ...       0.54 
freq.      42.15  E(vib)   ...       0.53 
freq.      50.15  E(vib)   ...       0.52 
freq.      56.78  E(vib)   ...       0.52 
freq.      70.76  E(vib)   ...       0.50 
freq.     109.03  E(vib)   ...       0.45 
freq.     112.97  E(vib)   ...       0.45 
freq.     144.23  E(vib)   ...       0.41 
freq.     168.45  E(vib)   ...       0.38 
freq.     181.45  E(vib)   ...       0.37 
freq.     190.10  E(vib)   ...       0.36 
freq.     198.28  E(vib)   ...       0.35 
freq.     219.41  E(vib)   ...       0.33 
freq.     234.60  E(vib)   ...       0.32 
freq.     238.86  E(vib)   ...       0.32 
freq.     241.97  E(vib)   ...       0.31 
freq.     276.20  E(vib)   ...       0.28 
freq.     284.27  E(vib)   ...       0.28 
freq.     301.47  E(vib)   ...       0.26 
freq.     314.73  E(vib)   ...       0.25 
freq.     328.91  E(vib)   ...       0.24 
freq.     340.18  E(vib)   ...       0.23 
freq.     348.43  E(vib)   ...       0.23 
freq.     355.34  E(vib)   ...       0.22 
freq.     369.87  E(vib)   ...       0.21 
freq.     387.86  E(vib)   ...       0.20 
freq.     433.56  E(vib)   ...       0.17 
freq.     455.95  E(vib)   ...       0.16 
freq.     488.84  E(vib)   ...       0.15 
freq.     506.28  E(vib)   ...       0.14 
freq.     519.12  E(vib)   ...       0.13 
freq.     552.83  E(vib)   ...       0.12 
freq.     562.89  E(vib)   ...       0.11 
freq.     587.59  E(vib)   ...       0.10 
freq.     597.20  E(vib)   ...       0.10 
freq.     620.84  E(vib)   ...       0.09 
freq.     649.21  E(vib)   ...       0.08 
freq.     686.02  E(vib)   ...       0.07 
freq.     705.55  E(vib)   ...       0.07 
freq.     739.52  E(vib)   ...       0.06 
freq.     752.51  E(vib)   ...       0.06 
freq.     787.65  E(vib)   ...       0.05 
freq.     867.26  E(vib)   ...       0.04 
freq.     968.77  E(vib)   ...       0.03 
freq.     989.57  E(vib)   ...       0.02 
freq.    1023.09  E(vib)   ...       0.02 
freq.    1073.12  E(vib)   ...       0.02 
freq.    1104.09  E(vib)   ...       0.02 
freq.    1114.08  E(vib)   ...       0.01 
freq.    1126.63  E(vib)   ...       0.01 
freq.    1136.26  E(vib)   ...       0.01 
freq.    1141.58  E(vib)   ...       0.01 
freq.    1150.60  E(vib)   ...       0.01 
freq.    1153.64  E(vib)   ...       0.01 
freq.    1173.42  E(vib)   ...       0.01 
freq.    1193.14  E(vib)   ...       0.01 
freq.    1224.84  E(vib)   ...       0.01 
freq.    1263.97  E(vib)   ...       0.01 
freq.    1298.55  E(vib)   ...       0.01 
freq.    1315.98  E(vib)   ...       0.01 
freq.    1340.56  E(vib)   ...       0.01 
freq.    1358.02  E(vib)   ...       0.01 
freq.    1703.79  E(vib)   ...       0.00 

------------
INNER ENERGY
------------

The inner energy is: U= E(el) + E(ZPE) + E(vib) + E(rot) + E(trans)
    E(el)   - is the total energy from the electronic structure calculation
              = E(kin-el) + E(nuc-el) + E(el-el) + E(nuc-nuc)
    E(ZPE)  - the the zero temperature vibrational energy from the frequency calculation
    E(vib)  - the the finite temperature correction to E(ZPE) due to population
              of excited vibrational states
    E(rot)  - is the rotational thermal energy
    E(trans)- is the translational thermal energy

Summary of contributions to the inner energy U:
Electronic energy                ...  -1853.95334752 Eh
Zero point energy                ...      0.09118538 Eh      57.22 kcal/mol
Thermal vibrational correction   ...      0.02032609 Eh      12.75 kcal/mol
Thermal rotational correction    ...      0.00141627 Eh       0.89 kcal/mol
Thermal translational correction ...      0.00141627 Eh       0.89 kcal/mol
-----------------------------------------------------------------------
Total thermal energy                  -1853.83900351 Eh


Summary of corrections to the electronic energy:
(perhaps to be used in another calculation)
Total thermal correction                  0.02315863 Eh      14.53 kcal/mol
Non-thermal (ZPE) correction              0.09118538 Eh      57.22 kcal/mol
-----------------------------------------------------------------------
Total correction                          0.11434402 Eh      71.75 kcal/mol


--------
ENTHALPY
--------

The enthalpy is H = U + kB*T
                kB is Boltzmann's constant
Total thermal energy              ...  -1853.83900351 Eh 
Thermal Enthalpy correction       ...      0.00094421 Eh       0.59 kcal/mol
-----------------------------------------------------------------------
Total Enthalpy                    ...  -1853.83805930 Eh


Note: Only C1 symmetry has been detected, increase convergence thresholds 
      if your molecule has a higher symmetry. Symmetry factor of 1.0 is   
      used for the rotational entropy correction. 
 

Note: Rotational entropy computed according to Herzberg 
Infrared and Raman Spectra, Chapter V,1, Van Nostrand Reinhold, 1945 
Point Group:  C1, Symmetry Number:   1  
Rotational constants in cm-1:     0.018792     0.004367     0.004170 

Vibrational entropy computed according to the QRRHO of S. Grimme
Chem.Eur.J. 2012 18 9955 using a reference frequency of 100.0 cm-1


-------
ENTROPY
-------

The entropy contributions are T*S = T*(S(el)+S(vib)+S(rot)+S(trans))
     S(el)   - electronic entropy
     S(vib)  - vibrational entropy
     S(rot)  - rotational entropy
     S(trans)- translational entropy
The entropies will be listed as multiplied by the temperature to get
units of energy

Electronic entropy                ...      0.00065446 Eh      0.41 kcal/mol
Vibrational entropy               ...      0.03753197 Eh     23.55 kcal/mol
Rotational entropy                ...      0.01653918 Eh     10.38 kcal/mol
Translational entropy             ...      0.02081341 Eh     13.06 kcal/mol
-----------------------------------------------------------------------
Final entropy term                ...      0.07553903 Eh     47.40 kcal/mol

In case the symmetry of your molecule has not been determined correctly
or in case you have a reason to use a different symmetry number we print 
out the resulting rotational entropy values for sn=1,12:

 non-linear molecules -----------------------------------
|  sn= 1 | S(rot)=       0.01653918 Eh     10.38 kcal/mol|
|  sn= 2 | S(rot)=       0.01588473 Eh      9.97 kcal/mol|
|  sn= 3 | S(rot)=       0.01550189 Eh      9.73 kcal/mol|
|  sn= 4 | S(rot)=       0.01523027 Eh      9.56 kcal/mol|
|  sn= 5 | S(rot)=       0.01501958 Eh      9.42 kcal/mol|
|  sn= 6 | S(rot)=       0.01484744 Eh      9.32 kcal/mol|
|  sn= 7 | S(rot)=       0.01470189 Eh      9.23 kcal/mol|
|  sn= 8 | S(rot)=       0.01457581 Eh      9.15 kcal/mol|
|  sn= 9 | S(rot)=       0.01446461 Eh      9.08 kcal/mol|
|  sn=10 | S(rot)=       0.01436513 Eh      9.01 kcal/mol|
|  sn=11 | S(rot)=       0.01427514 Eh      8.96 kcal/mol|
|  sn=12 | S(rot)=       0.01419298 Eh      8.91 kcal/mol|
 linear molecules ---------------------------------------
|  Dinfh | S(rot)=       0.01049968 Eh      6.59 kcal/mol|
|  Cinfv | S(rot)=       0.01115414 Eh      7.00 kcal/mol|
 --------------------------------------------------------


-------------------
GIBBS FREE ENERGY
-------------------

The Gibbs free energy is G = H - T*S

Total enthalpy                    ...  -1853.83805930 Eh 
Total entropy correction          ...     -0.07553903 Eh    -47.40 kcal/mol
-----------------------------------------------------------------------
Final Gibbs free energy         ...  -1853.91359832 Eh

For completeness - the Gibbs free energy minus the electronic energy
G-E(el)                           ...      0.03974920 Eh     24.94 kcal/mol


Maximum memory used throughout the entire PROP-calculation: 523.6 MB

--------------------------------
SUGGESTED CITATIONS FOR THIS RUN
--------------------------------

Below you find a list of papers that are relevant to this ORCA run
We neither can nor want to force you to cite these papers, but we appreciate if you do
You receive ORCA, which is the product of decades of hard work by many enthusiastic individuals, for free
The only thing we kindly ask in return is that you cite our papers,
We deeply appreciate it, if you show your appreciation for ORCA by not just citing the generic ORCA reference.

Please note that relegating all ORCA citations to the supporting information does *not* help us.
SI sections are not indexed - citations you put there will not count into any citation statistics
But we need these citations in order to attract the funding resources that allow us to do what we are doing

Therefore, if you are a happy ORCA user, please consider citing a few of the papers listed below in the main body of your paper

In addition to the list printed below, the program has created the file rf_mecn_freq_TP_C3_D_B.bibtex that contains the list in bibtex format
You can import this file easily into all common literature databanks and citation aid programs


List of essential papers. We consider these as the minimum necessary citations

  1. Neese,F.
     Software update: the ORCA program system, version 5.0
     WIRES Comput. Molec. Sci., 2022 12(1)e1606
     doi.org/10.1002/wcms.1606

List of papers to cite with high priority. The work reported in these papers was absolutely
necessary for this run to complete.
Our perspective: the developers of density functionals and basis sets usually get cited in chemistry papers
Good! But without the algorithms to do something with them, the functionals or basis sets would not do anything.
Hence, in our opinion, the algorithm design and method developments papers are equally worthy of getting cited

  1. Neese,F.
     An improvement of the resolution of the identity approximation for the formation of the Coulomb matrix
     J. Comp. Chem., 2003 24(14)1740-1747
     doi.org/10.1002/jcc.10318
  2. Neese,F.; Wennmohs,F.; Hansen,A.; Becker,U.
     Efficient, approximate and parallel Hartree-Fock and hybrid DFT calculations. A 'chain-of-spheres' algorithm for the Hartree-Fock exchange
     Chem. Phys., 2009 356(1-3)98-109
     doi.org/10.1016/j.chemphys.2008.10.036
  3. Bykov,D.; Petrenko,T.; Izsak,R.; Kossmann,S.; Becker,U.; Valeev,E.; Neese,F.
     Efficient implementation of the analytic second derivatives of Hartree-Fock and hybrid DFT energies: a detailed analysis of different approximations
     Molec. Phys., 2015 113 1961-1977
     doi.org/10.1080/00268976.2015.1025114
  4. Garcia-Rates,M.; Neese,F.
     Efficient implementation of the analytical second derivatives of hartree-fock and hybrid DFT energies within the framework of the conductor-like polarizable continuum model
     J. Comput. Chem., 2019 40 1816-1828
     doi.org/10.1002/jcc.25833
  5. Garcia-Rates,M.; Neese,F.
     Effect of the Solute Cavity on the Solvation Energy and its Derivatives within the Framework of the Gaussian Charge Scheme
     J. Comput. Chem., 2020 41 922-939
     doi.org/10.1002/jcc.26139
  6. Helmich-Paris,B.; de Souza,B.; Neese,F.; Izsák,R.
     An improved chain of spheres for exchange algorithm
     J. Chem. Phys., 2021 155 104109
     doi.org/doi: 10.1063/5.0058766.
  7. Neese,F.
     The SHARK Integral Generation and Digestion System
     J. Comp. Chem., 2022  1-16
     doi.org/10.1002/jcc.26942
  8. Grimme,S.; Antony,J.; Ehrlich,S.; Krieg,H.
     A consistent and accurate ab initio parametrization of density functional dispersion correction (DFT-D) for the 94 elements H-Pu
     J. Chem. Phys., 2010 132 154104
     doi.org/10.1063/1.3382344
  9. Grimme,S.; Ehrlich,S.; Goerigk,L.
     Effect of the damping function in dispersion corrected density functional theory
     J. Comput. Chem., 2011 32(7)1456-1465
     doi.org/10.1002/jcc.21759

List of suggested additional citations. These are papers that are important in the 'surrounding' of 
of this run, or papers that preceded the highly important papers. If you like your results we are grateful for a citation.

  1. Izsak,R.; Neese,F.
     An overlap fitted chain of spheres exchange method
     J. Chem. Phys., 2011 135 144105
     doi.org/10.1063/1.3646921
  2. Izsak,R.; Hansen,A.; Neese,F.
     The resolution of identity and chain of spheres approximations for the LPNO-CCSD singles Fock term
     Molec. Phys., 2012 110 2413-2417
     doi.org/10.1080/00268976.2012.687466
  3. Neese,F.
     The ORCA program system
     WIRES Comput. Molec. Sci., 2012 2(1)73-78
     doi.org/10.1002/wcms.81
  4. Izsak,R.; Neese,F.; Klopper,W.
     Robust fitting techniques in the chain of spheres approximation to the Fock exchange: The role of the complementary space
     J. Chem. Phys., 2013 139 
     doi.org/10.1063/1.4819264
  5. Neese,F.
     Software update: the ORCA program system, version 4.0
     WIRES Comput. Molec. Sci., 2018 8(1)1-6
     doi.org/10.1002/wcms.1327
  6. Neese,F.; Wennmohs,F.; Becker,U.; Riplinger,C.
     The ORCA quantum chemistry program package
     J. Chem. Phys., 2020 152 Art. No. L224108
     doi.org/10.1063/5.0004608

List of optional additional citations

  1. Neese,F.
     Approximate second-order SCF convergence for spin unrestricted wavefunctions
     Chem. Phys. Lett., 2000 325(1-3)93-98
     doi.org/10.1016/s0009-2614(00)00662-x

Timings for individual modules:

Sum of individual times          ...     1459.574 sec (=  24.326 min)
Startup calculation              ...        4.339 sec (=   0.072 min)   0.3 %
SCF iterations                   ...      114.437 sec (=   1.907 min)   7.8 %
Property integrals               ...      435.629 sec (=   7.260 min)  29.8 %
SCF Response                     ...      639.860 sec (=  10.664 min)  43.8 %
Property calculations            ...      265.310 sec (=   4.422 min)  18.2 %
                             ****ORCA TERMINATED NORMALLY****
TOTAL RUN TIME: 0 days 0 hours 24 minutes 20 seconds 389 msec
