
                                 *****************
                                 * O   R   C   A *
                                 *****************

                                            #,                                       
                                            ###                                      
                                            ####                                     
                                            #####                                    
                                            ######                                   
                                           ########,                                 
                                     ,,################,,,,,                         
                               ,,#################################,,                 
                          ,,##########################################,,             
                       ,#########################################, ''#####,          
                    ,#############################################,,   '####,        
                  ,##################################################,,,,####,       
                ,###########''''           ''''###############################       
              ,#####''   ,,,,##########,,,,          '''####'''          '####       
            ,##' ,,,,###########################,,,                        '##       
           ' ,,###''''                  '''############,,,                           
         ,,##''                                '''############,,,,        ,,,,,,###''
      ,#''                                            '''#######################'''  
     '                                                          ''''####''''         
             ,#######,   #######,   ,#######,      ##                                
            ,#'     '#,  ##    ##  ,#'     '#,    #''#        ,####,   ,####,        
            ##       ##  ##   ,#'  ##            #'  '#       #'       #'  '#        
            ##       ##  #######   ##           ,######,      #####,   #    #        
            '#,     ,#'  ##    ##  '#,     ,#' ,#      #,     #,   #   #,  ,#        
             '#######'   ##     ##  '#######'  #'      '#     '####' # '####'        



                #########################################################
                #                        -***-                          #
                #          Department of theory and spectroscopy        #
                #                                                       #
                #                      Frank Neese                      #
                #                                                       #
                #     Directorship, Architecture, Infrastructure        #
                #                    SHARK, DRIVERS                     #
                #        Core code/Algorithms in most modules           #
                #                                                       #
                #        Max Planck Institute fuer Kohlenforschung      #
                #                Kaiser Wilhelm Platz 1                 #
                #                 D-45470 Muelheim/Ruhr                 #
                #                      Germany                          #
                #                                                       #
                #                  All rights reserved                  #
                #                        -***-                          #
                #########################################################


                         Program Version 6.0.1  -  RELEASE   -


 With contributions from (in alphabetic order):
[Max-Planck-Institut fuer Kohlenforschung]                               
  Daniel Aravena         : Magnetic Suceptibility                        
  Michael Atanasov       : Ab Initio Ligand Field Theory (pilot matlab implementation)
  Alexander A. Auer      : GIAO ZORA, VPT2 properties, NMR spectrum      
  Ute Becker             : All parallelization in ORCA, NUMFREQ, NUMCALC 
  Giovanni Bistoni       : ED, misc. LED, open-shell LED, HFLD           
  Martin Brehm           : Molecular dynamics                            
  Dmytro Bykov           : pre 5.0 version of the SCF Hessian            
  Marcos Casanova-Páez   : Triplet and SCS-CIS(D). UHF-(DLPNO)-IP/EA/STEOM-CCSD. UHF-CVS-IP/STEOM-CCSD   
  Vijay G. Chilkuri      : MRCI spin determinant printing, contributions to CSF-ICE 
  Pauline Colinet        : FMM embedding                                 
  Dipayan Datta          : RHF DLPNO-CCSD density                        
  Achintya Kumar Dutta   : EOM-CC, STEOM-CC                              
  Nicolas Foglia         : Exact transition moments, OPA infrastructure, MCD improvements    
  Dmitry Ganyushin       : Spin-Orbit,Spin-Spin,Magnetic field MRCI      
  Miquel Garcia-Rates    : C-PCM and meta-GGA Hessian, CCSD/C-PCM, Gaussian charge scheme 
  Tiago L. C. Gouveia    : GS-ROHF, GS-ROCIS                             
  Yang Guo               : DLPNO-NEVPT2, F12-NEVPT2, CIM, IAO-localization        
  Andreas Hansen         : Spin unrestricted coupled pair/coupled cluster methods 
  Ingolf Harden          : AUTO-CI MPn and infrastructure                
  Benjamin Helmich-Paris : MC-RPA, TRAH-(SCF,CASSCF), AVAS, COSX integrals, SCF dyn. polar. 
  Lee Huntington         : MR-EOM, pCC                                   
  Robert Izsak           : Overlap fitted RIJCOSX, COSX-SCS-MP3, EOM     
  Riya Kayal             : Wick's Theorem for AUTO-CI, AUTO-CI UHF-CCSDT 
  Emily Kempfer          : AUTO-CI, RHF CISDT and CCSDT                  
  Christian Kollmar      : KDIIS, OOCD, Brueckner-CCSD(T), CCSD density, CASPT2, CASPT2-K, improved NEVPT2 
  Axel Koslowski         : Symmetry handling                             
  Simone Kossmann        : meta-GGA functionals, TD-DFT gradient, OOMP2, (MP2 Hessian; deprecated post 5.0) 
  Lucas Lang             : DCDCAS                                        
  Marvin Lechner         : AUTO-CI (C++ implementation), FIC-MRCC        
  Spencer Leger          : CASSCF response                               
  Dagmar Lenk            : GEPOL surface, SMD, ORCA-2-JSON               
  Dimitrios Liakos       : Extrapolation schemes; Compound Job, initial MDCI parallelization 
  Dimitrios Manganas     : Further ROCIS development; embedding schemes. LFT, Crystal Embedding 
  Dimitrios Pantazis     : SARC Basis sets                               
  Anastasios Papadopoulos: AUTO-CI, single reference methods and gradients 
  Taras Petrenko         : pre 6.0 DFT Hessian and TD-DFT gradient, (ASA, deprecated), ECA, 1-Electron XAS/XES, NRVS 
  Peter Pinski           : DLPNO-MP2, DLPNO-MP2 Gradient                 
  Christoph Reimann      : Effective Core Potentials                     
  Marius Retegan         : Local ZFS, SOC                                
  Christoph Riplinger    : Optimizer, TS searches, QM/MM, DLPNO-CCSD(T), (RO)-DLPNO pert. Triples 
  Michael Roemelt        : Original ROCIS implementation                 
  Masaaki Saitow         : Open-shell DLPNO-CCSD energy and density      
  Barbara Sandhoefer     : DKH picture change effects                    
  Kantharuban Sivalingam : CASSCF convergence/infrastructure, NEVPT2 and variants, FIC-MRCI 
  Bernardo de Souza      : ESD, SOC TD-DFT                               
  Georgi L. Stoychev     : AutoAux, RI-MP2 NMR, DLPNO-MP2 response, X2C  
  Van Anh Tran           : RI-MP2 g-tensors                              
  Willem Van den Heuvel  : Paramagnetic NMR                              
  Zikuan Wang            : NOTCH, Electric field optimization            
  Frank Wennmohs         : Technical directorship and infrastructure     
  Hang Xu                : AUTO-CI-Response properties                   
                                                                         
[FACCTs GmbH]                                                            
  Markus Bursch, Miquel Garcia-Rates, Christoph Riplinger, Bernardo de Souza, Georgi L. Stoychev 
                                                                 
  APM, Basis sets (HGBS, AHGBS, def-TZVP (Ac-Lr), def2-XVPD (La-Lu)), CI-OPT, improved COSX, DLPNO-Multilevel,           
  DOCKER, DRACO, updates on ESD, GOAT, IRC, LR-CPCM, MBIS, meta-GGA TD-DFT gradient, ML-optimized integration grids, 
  MM, NACMEs, nearIR, NEB, NEB-TS, NL-DFT gradient (VV10), 2- and 3-layer-ONIOM, interface openCOSMO-RS, QMMM,   
  Crystal-QMMM, SF, symmetry and pop. for TD-DFT, r2SCAN hybrids, SOLVATOR                                   
                                                                         
[Other institutions]                                                     
  V. Asgeirsson          : NEB                                           
  Christoph Bannwarth    : sTDA-DFT, sTD-DFT, PBEh-3c, B97-3c, D3        
  Sebastian Ehlert       : rSCAN, r2SCAN, r2SCAN-3c, D4, dhf basis sets  
  Marvin Friede          : D4 for Fr, Ra, Ac-Lr                          
  Lars Goerigk           : TD-DFT with DH, B97 family of functionals     
  Stefan Grimme          : VdW corrections, initial TS optimization, DFT functionals, gCP, sTDA/sTD-DF 
  Waldemar Hujo          : DFT-NL                                        
  H. Jonsson             : NEB                                           
  Holger Kruse           : gCP                                           
  Marcel Mueller         : wB97X-3c, vDZP basis set                      
  Hagen Neugebauer       : wr2SCAN                                       
  Tobias Risthaus        : range-separated hybrid DFT                    
  Lukas Wittmann         : regularized MP2, r2SCAN double-hybrids, wr2SCAN        
                                                                         
We gratefully acknowledge several colleagues who have allowed us to      
interface, adapt or use parts of their codes:                            
  Ed Valeev, F. Pavosevic, A. Kumar             : LibInt (2-el integral package), F12 methods 
  Garnet Chan, S. Sharma, J. Yang, R. Olivares  : DMRG                   
  Ulf Ekstrom                                   : XCFun DFT Library      
  Mihaly Kallay                                 : mrcc  (arbitrary order and MRCC methods)
  Frank Weinhold                                : gennbo (NPA and NBO analysis)           
  Simon Mueller                                 : openCOSMO-RS                            
  Christopher J. Cramer and Donald G. Truhlar   : smd solvation model                     
  S Lehtola, MJT Oliveira, MAL Marques          : LibXC Library                           
  Liviu Ungur et al                             : ANISO software                          


 Your calculation uses the libint2 library for the computation of 2-el integrals
 For citations please refer to: http://libint.valeyev.net

 Your ORCA version has been built with support for libXC version: 6.2.2
 For citations please refer to: https://libxc.gitlab.io

 This ORCA versions uses:
   CBLAS   interface :  Fast vector & matrix operations
   LAPACKE interface :  Fast linear algebra routines
   SCALAPACK package :  Parallel linear algebra routines
   Shared memory     :  Shared parallel matrices
   BLAS/LAPACK       :  OpenBLAS 0.3.27  USE64BITINT DYNAMIC_ARCH NO_AFFINITY SkylakeX SINGLE_THREADED
        Core in use  :  SkylakeX
   Copyright (c) 2011-2014, The OpenBLAS Project


NOTE: MaxCore=8000 MB was set to SCF,MP2,MDCI,CIPSI,MRCI and CIS
      => If you want to overwrite this, your respective input block should be placed after the MaxCore statement
Your calculation utilizes the atom-pairwise dispersion correction
with the Becke-Johnson damping scheme (D3BJ)


Your calculation utilizes the SMD solvation module
Please cite in your paper:
A.V. Marenich, C.J. Cramer, D.G. Truhlar J. Phys. Chem. B, 113, (2009), 6378 

Warning: RI is on but no J-basis has been assigned. Assigning Def2/J (nothing to worry about!)
================================================================================

----- Orbital basis set information -----
Your calculation utilizes the basis: def2-TZVP
   F. Weigend and R. Ahlrichs, Phys. Chem. Chem. Phys. 7, 3297 (2005).

----- AuxJ basis set information -----
Your calculation utilizes the auxiliary basis: def2/J
   F. Weigend, Phys. Chem. Chem. Phys. 8, 1057 (2006).

================================================================================
                                        WARNINGS
                       Please study these warnings very carefully!
================================================================================


WARNING: your system is open-shell and RHF/RKS was chosen
  ===> : WILL SWITCH to UHF/UKS


WARNING: Geometry Optimization
  ===> : Switching off AutoStart
         For restart on a previous wavefunction, please use MOREAD

================================================================================
                                       INPUT FILE
================================================================================
NAME = rf_mecn_opt_B3L_C2_P_B.inp
|  1> !B3LYP def2-TZVP opt d3 TightSCF SlowConv defgrid2
|  2>  
|  3> %pal
|  4> nprocs 20
|  5> end
|  6>  
|  7> %scf
|  8> MaxIter 1500
|  9> end
| 10>  
| 11> %maxcore 8000
| 12>  
| 13> !CPCM
| 14> %cpcm smd true
| 15> SMDsolvent "ACETONITRILE"
| 16> end
| 17>  
| 18> * xyz 0 2
| 19> 6        4.790427000     -0.033865800     -0.529943200
| 20> 8        5.449345000     -1.206924000     -0.894594600
| 21> 8        4.978223000      1.323071000     -0.737377200
| 22> 6        3.506687600     -0.338741600      0.376153800
| 23> 6        2.222300000      0.400524800     -0.110681600
| 24> 6        0.900506800     -0.386389800      0.175703000
| 25> 6       -0.395261200      0.487294000      0.065549000
| 26> 6       -1.705693600     -0.364773800     -0.068373600
| 27> 6       -3.005136200      0.445344800      0.258164000
| 28> 6       -4.319880200     -0.214526000     -0.270540800
| 29> 9        3.211587400     -1.692050400      0.412735200
| 30> 9        2.125696800      1.616867800      0.483236600
| 31> 9        2.314152400      0.589704000     -1.455769200
| 32> 9        0.794028800     -1.413561400     -0.700839000
| 33> 9        0.958350600     -0.884509000      1.435093400
| 34> 9       -0.498373400      1.260265600      1.173340200
| 35> 9       -0.299075000      1.289512600     -1.020910800
| 36> 9       -1.641790400     -1.418189000      0.779523800
| 37> 9       -1.792381400     -0.831391600     -1.336863600
| 38> 9       -2.918792200      1.679227200     -0.295171200
| 39> 9       -3.119771000      0.573779800      1.598579800
| 40> 9       -4.383115600     -1.504377600      0.089127600
| 41> 9       -5.365669800      0.430528600      0.260394200
| 42> 9       -4.396020400     -0.128550600     -1.602941800
| 43> 1        5.903122371     -2.014774547     -1.145719253
| 44> *
| 45> 
| 46>                          ****END OF INPUT****
================================================================================

                       *****************************
                       * Geometry Optimization Run *
                       *****************************

Geometry optimization settings:
Update method            Update   .... BFGS
Choice of coordinates    CoordSys .... (2022) Redundant Internals
Initial Hessian          InHess   .... Almloef's Model
Max. no of cycles        MaxIter  .... 75

Convergence Tolerances:
Energy Change            TolE     ....  5.0000e-06 Eh
Max. Gradient            TolMAXG  ....  3.0000e-04 Eh/bohr
RMS Gradient             TolRMSG  ....  1.0000e-04 Eh/bohr
Max. Displacement        TolMAXD  ....  4.0000e-03 bohr
RMS Displacement         TolRMSD  ....  2.0000e-03 bohr
Strict Convergence                .... False

------------------------------------------------------------------------------
                        ORCA OPTIMIZATION COORDINATE SETUP
------------------------------------------------------------------------------

The optimization will be done in redundant internal coordinates (2022)
Making redundant internal coordinates   ...  (2022 redundants) done
Evaluating the initial hessian          ...  (Almloef) done
Evaluating the coordinates              ...  done
Calculating the B-matrix                .... done
Calculating the G-matrix                .... done
Diagonalizing the G-matrix              .... done
Small eigenvalue found = 4.736e-03
Small eigenvalue found = 1.221e-02
Small eigenvalue found = 2.954e-02
The first mode is                       ....   38
The number of degrees of freedom        ....   69

    -----------------------------------------------------------------
                    Redundant Internal Coordinates


    -----------------------------------------------------------------
         Definition                    Initial Value    Approx d2E/dq
    -----------------------------------------------------------------
      1. B(O   1,C   0)                  1.3940         0.551454   
      2. B(O   2,C   0)                  1.3855         0.568952   
      3. B(C   3,C   0)                  1.6006         0.288221   
      4. B(C   4,C   3)                  1.5599         0.334759   
      5. B(C   5,C   4)                  1.5647         0.328824   
      6. B(C   6,C   5)                  1.5667         0.326486   
      7. B(C   7,C   6)                  1.5688         0.323927   
      8. B(C   8,C   7)                  1.5657         0.327637   
      9. B(C   9,C   8)                  1.5632         0.330714   
     10. B(F  10,C   3)                  1.3856         0.528443   
     11. B(F  11,C   4)                  1.3570         0.586881   
     12. B(F  12,C   4)                  1.3614         0.577499   
     13. B(F  13,C   5)                  1.3545         0.592326   
     14. B(F  14,C   5)                  1.3556         0.590092   
     15. B(F  15,C   6)                  1.3547         0.591865   
     16. B(F  16,C   6)                  1.3540         0.593567   
     17. B(F  17,C   7)                  1.3538         0.593973   
     18. B(F  18,C   7)                  1.3544         0.592672   
     19. B(F  19,C   8)                  1.3550         0.591238   
     20. B(F  20,C   8)                  1.3514         0.599114   
     21. B(F  21,C   9)                  1.3406         0.623533   
     22. B(F  22,C   9)                  1.3385         0.628179   
     23. B(F  23,C   9)                  1.3373         0.630929   
     24. B(H  24,O   1)                  0.9600         0.519956   
     25. A(O   1,C   0,O   2)          136.1318         0.413163   
     26. A(O   2,C   0,C   3)          112.3347         0.371210   
     27. A(O   1,C   0,C   3)          111.5249         0.369222   
     28. L(C   0,O   1,H  24,C   3, 2) 180.0000         0.362759   
     29. L(C   0,O   1,H  24,C   3, 1) 180.0000         0.362759   
     30. A(C   4,C   3,F  10)          107.2033         0.374492   
     31. A(C   0,C   3,C   4)          113.1687         0.341363   
     32. A(C   0,C   3,F  10)          111.8265         0.364982   
     33. A(C   3,C   4,F  12)          108.5818         0.380286   
     34. A(C   3,C   4,F  11)          110.2926         0.381351   
     35. A(C   3,C   4,C   5)          113.5839         0.349005   
     36. A(F  11,C   4,F  12)          108.2194         0.415201   
     37. A(C   5,C   4,F  11)          108.0911         0.380169   
     38. A(C   5,C   4,F  12)          107.9208         0.379109   
     39. A(F  13,C   5,F  14)          109.0206         0.417483   
     40. A(C   6,C   5,F  14)          107.7906         0.380059   
     41. A(C   4,C   5,F  14)          108.5900         0.380529   
     42. A(C   6,C   5,F  13)          108.2026         0.380308   
     43. A(C   4,C   5,F  13)          109.2282         0.380779   
     44. A(C   4,C   5,C   6)          113.9128         0.347536   
     45. A(C   5,C   6,C   7)          113.2023         0.346660   
     46. A(F  15,C   6,F  16)          108.8752         0.417862   
     47. A(C   7,C   6,F  16)          108.2186         0.379927   
     48. A(C   5,C   6,F  16)          109.1523         0.380446   
     49. A(C   7,C   6,F  15)          108.4284         0.379738   
     50. A(C   5,C   6,F  15)          108.8835         0.380256   
     51. A(C   8,C   7,F  18)          108.6915         0.380579   
     52. A(C   6,C   7,F  18)          108.6955         0.379828   
     53. A(C   8,C   7,F  17)          108.1296         0.380723   
     54. A(F  17,C   7,F  18)          108.7561         0.418014   
     55. A(C   6,C   7,F  17)          109.2524         0.379972   
     56. A(C   6,C   7,C   8)          113.2298         0.346865   
     57. A(F  19,C   8,F  20)          108.8987         0.418476   
     58. A(C   7,C   8,C   9)          114.1471         0.348078   
     59. A(C   9,C   8,F  20)          107.7127         0.381912   
     60. A(C   7,C   8,F  20)          109.0521         0.381293   
     61. A(C   9,C   8,F  19)          107.4499         0.381036   
     62. A(C   7,C   8,F  19)          109.4572         0.380419   
     63. A(F  22,C   9,F  23)          108.6464         0.426961   
     64. A(F  21,C   9,F  23)          109.0552         0.426394   
     65. A(C   8,C   9,F  23)          110.9604         0.385362   
     66. A(F  21,C   9,F  22)          108.6877         0.426061   
     67. A(C   8,C   9,F  22)          108.6349         0.385069   
     68. A(C   8,C   9,F  21)          110.7995         0.384572   
     69. D(C   4,C   3,C   0,O   1)   -131.0839         0.006172   
     70. D(F  10,C   3,C   0,O   1)     -9.8890         0.006172   
     71. D(C   4,C   3,C   0,O   2)     49.8076         0.006172   
     72. D(F  10,C   3,C   0,O   2)    171.0025         0.006172   
     73. D(C   5,C   4,C   3,C   0)    148.6429         0.008543   
     74. D(F  11,C   4,C   3,C   0)    -89.8453         0.008543   
     75. D(F  12,C   4,C   3,C   0)     28.5784         0.008543   
     76. D(F  11,C   4,C   3,F  10)    146.3851         0.008543   
     77. D(C   5,C   4,C   3,F  10)     24.8733         0.008543   
     78. D(F  13,C   5,C   4,F  11)    162.3014         0.008811   
     79. D(C   6,C   5,C   4,F  12)    -75.6292         0.008811   
     80. D(C   6,C   5,C   4,F  11)     41.2001         0.008811   
     81. D(F  13,C   5,C   4,C   3)    -74.9661         0.008811   
     82. D(F  13,C   5,C   4,F  12)     45.4721         0.008811   
     83. D(C   6,C   5,C   4,C   3)    163.9326         0.008811   
     84. D(F  15,C   6,C   5,F  14)     44.2190         0.008700   
     85. D(F  15,C   6,C   5,F  13)    161.9826         0.008700   
     86. D(F  15,C   6,C   5,C   4)    -76.3465         0.008700   
     87. D(C   7,C   6,C   5,F  14)    -76.4529         0.008700   
     88. D(C   7,C   6,C   5,F  13)     41.3107         0.008700   
     89. D(C   7,C   6,C   5,C   4)    162.9815         0.008700   
     90. D(F  17,C   7,C   6,F  15)    -79.1358         0.008578   
     91. D(F  17,C   7,C   6,C   5)     41.7939         0.008578   
     92. D(C   8,C   7,C   6,F  16)    -76.5134         0.008578   
     93. D(C   8,C   7,C   6,F  15)     41.4341         0.008578   
     94. D(F  17,C   7,C   6,F  16)    162.9167         0.008578   
     95. D(C   8,C   7,C   6,C   5)    162.3638         0.008578   
     96. D(F  19,C   8,C   7,C   6)     41.9584         0.008755   
     97. D(C   9,C   8,C   7,F  18)     41.5227         0.008755   
     98. D(C   9,C   8,C   7,F  17)    -76.3785         0.008755   
     99. D(C   9,C   8,C   7,C   6)    162.4166         0.008755   
    100. D(F  19,C   8,C   7,F  18)    -78.9355         0.008755   
    101. D(F  19,C   8,C   7,F  17)    163.1633         0.008755   
    102. D(F  22,C   9,C   8,F  19)    -69.0724         0.008903   
    103. D(F  22,C   9,C   8,C   7)    169.3552         0.008903   
    104. D(F  21,C   9,C   8,F  20)    -71.2185         0.008903   
    105. D(F  21,C   9,C   8,F  19)    171.5999         0.008903   
    106. D(F  22,C   9,C   8,F  20)     48.1091         0.008903   
    107. D(F  21,C   9,C   8,C   7)     50.0276         0.008903   
    -----------------------------------------------------------------

Number of atoms                         .... 25
Number of degrees of freedom            .... 107


         *************************************************************
         *                GEOMETRY OPTIMIZATION CYCLE   1            *
         *************************************************************
---------------------------------
CARTESIAN COORDINATES (ANGSTROEM)
---------------------------------
  C      4.790427   -0.033866   -0.529943
  O      5.449345   -1.206924   -0.894595
  O      4.978223    1.323071   -0.737377
  C      3.506688   -0.338742    0.376154
  C      2.222300    0.400525   -0.110682
  C      0.900507   -0.386390    0.175703
  C     -0.395261    0.487294    0.065549
  C     -1.705694   -0.364774   -0.068374
  C     -3.005136    0.445345    0.258164
  C     -4.319880   -0.214526   -0.270541
  F      3.211587   -1.692050    0.412735
  F      2.125697    1.616868    0.483237
  F      2.314152    0.589704   -1.455769
  F      0.794029   -1.413561   -0.700839
  F      0.958351   -0.884509    1.435093
  F     -0.498373    1.260266    1.173340
  F     -0.299075    1.289513   -1.020911
  F     -1.641790   -1.418189    0.779524
  F     -1.792381   -0.831392   -1.336864
  F     -2.918792    1.679227   -0.295171
  F     -3.119771    0.573780    1.598580
  F     -4.383116   -1.504378    0.089128
  F     -5.365670    0.430529    0.260394
  F     -4.396020   -0.128551   -1.602942
  H      5.903122   -2.014775   -1.145719

----------------------------
CARTESIAN COORDINATES (A.U.)
----------------------------
  NO LB      ZA    FRAG     MASS         X           Y           Z
   0 C     6.0000    0    12.011    9.052595   -0.063997   -1.001448
   1 O     8.0000    0    15.999   10.297770   -2.280756   -1.690539
   2 O     8.0000    0    15.999    9.407478    2.500242   -1.393441
   3 C     6.0000    0    12.011    6.626679   -0.640129    0.710828
   4 C     6.0000    0    12.011    4.199538    0.756882   -0.209158
   5 C     6.0000    0    12.011    1.701711   -0.730171    0.332031
   6 C     6.0000    0    12.011   -0.746935    0.920852    0.123870
   7 C     6.0000    0    12.011   -3.223294   -0.689323   -0.129207
   8 C     6.0000    0    12.011   -5.678884    0.841580    0.487859
   9 C     6.0000    0    12.011   -8.163391   -0.405395   -0.511248
  10 F     9.0000    0    18.998    6.069021   -3.197512    0.779956
  11 F     9.0000    0    18.998    4.016985    3.055437    0.913185
  12 F     9.0000    0    18.998    4.373114    1.114379   -2.751005
  13 F     9.0000    0    18.998    1.500497   -2.671244   -1.324394
  14 F     9.0000    0    18.998    1.811020   -1.671480    2.711934
  15 F     9.0000    0    18.998   -0.941789    2.381557    2.217292
  16 F     9.0000    0    18.998   -0.565170    2.436826   -1.929242
  17 F     9.0000    0    18.998   -3.102534   -2.679989    1.473086
  18 F     9.0000    0    18.998   -3.387110   -1.571102   -2.526306
  19 F     9.0000    0    18.998   -5.515718    3.173280   -0.557793
  20 F     9.0000    0    18.998   -5.895513    1.084287    3.020878
  21 F     9.0000    0    18.998   -8.282888   -2.842862    0.168427
  22 F     9.0000    0    18.998  -10.139646    0.813581    0.492074
  23 F     9.0000    0    18.998   -8.307275   -0.242925   -3.029121
  24 H     1.0000    0     1.008   11.155285   -3.807372   -2.165096

--------------------------------
INTERNAL COORDINATES (ANGSTROEM)
--------------------------------
 C      0   0   0     0.000000000000     0.00000000     0.00000000
 O      1   0   0     1.393990356793     0.00000000     0.00000000
 O      1   2   0     1.385486802956   136.13177198     0.00000000
 C      1   2   3     1.600608594862   111.52489317   181.18992567
 C      4   1   2     1.559863783763   113.16872737   228.91614990
 C      5   4   1     1.564732561934   113.58394786   148.64287440
 C      6   5   4     1.566675459667   113.91280616   163.93256239
 C      7   6   5     1.568817348692   113.20226571   162.98152714
 C      8   7   6     1.565717094808   113.22984595   162.36375422
 C      9   8   7     1.563173062643   114.14707705   162.41661495
 F      4   1   2     1.385592665621   111.82651119   350.11101305
 F      5   4   1     1.357041377479   110.29260564   270.15468021
 F      5   4   1     1.361428031433   108.58179722    28.57841973
 F      6   5   4     1.354527570075   109.22822656   285.03385927
 F      6   5   4     1.355556277776   108.59004089    43.81583148
 F      7   6   5     1.354739297058   108.88346185   283.65347401
 F      7   6   5     1.353957667090   109.15230848    42.38718856
 F      8   7   6     1.353771473879   109.25240264    41.79387651
 F      8   7   6     1.354368423305   108.69554158   283.25540020
 F      9   8   7     1.355028009646   109.45719767    41.95842364
 F      9   8   7     1.351425618925   109.05210362   282.91820052
 F     10   9   8     1.340551089588   110.79953142    50.02756898
 F     10   9   8     1.338530275591   108.63493714   169.35523750
 F     10   9   8     1.337341214598   110.96044107   288.72891896
 H      2   1   3     0.960000000033   180.00000000     0.00000000

---------------------------
INTERNAL COORDINATES (A.U.)
---------------------------
 C      0   0   0     0.000000000000     0.00000000     0.00000000
 O      1   0   0     2.634260007667     0.00000000     0.00000000
 O      1   2   0     2.618190619750   136.13177198     0.00000000
 C      1   2   3     3.024711891890   111.52489317   181.18992567
 C      4   1   2     2.947715357535   113.16872737   228.91614990
 C      5   4   1     2.956916014884   113.58394786   148.64287440
 C      6   5   4     2.960587559506   113.91280616   163.93256239
 C      7   6   5     2.964635143173   113.20226571   162.98152714
 C      8   7   6     2.958776512386   113.22984595   162.36375422
 C      9   8   7     2.953968988318   114.14707705   162.41661495
 F      4   1   2     2.618390671194   111.82651119   350.11101305
 F      5   4   1     2.564436555835   110.29260564   270.15468021
 F      5   4   1     2.572726130452   108.58179722    28.57841973
 F      6   5   4     2.559686148288   109.22822656   285.03385927
 F      6   5   4     2.561630124115   108.59004089    43.81583148
 F      7   6   5     2.560086254300   108.88346185   283.65347401
 F      7   6   5     2.558609187723   109.15230848    42.38718856
 F      8   7   6     2.558257333546   109.25240264    41.79387651
 F      8   7   6     2.559385404477   108.69554158   283.25540020
 F      9   8   7     2.560631842023   109.45719767    41.95842364
 F      9   8   7     2.553824310132   109.05210362   282.91820052
 F     10   9   8     2.533274427850   110.79953142    50.02756898
 F     10   9   8     2.529455642830   108.63493714   169.35523750
 F     10   9   8     2.527208643196   110.96044107   288.72891896
 H      2   1   3     1.814137088628   180.00000000     0.00000000

---------------------
BASIS SET INFORMATION
---------------------
There are 4 groups of distinct atoms

 Group   1 Type C   : 11s6p2d1f contracted to 5s3p2d1f pattern {62111/411/11/1}
 Group   2 Type O   : 11s6p2d1f contracted to 5s3p2d1f pattern {62111/411/11/1}
 Group   3 Type F   : 11s6p2d1f contracted to 5s3p2d1f pattern {62111/411/11/1}
 Group   4 Type H   : 5s1p contracted to 3s1p pattern {311/1}

Atom   0C    basis set group =>   1
Atom   1O    basis set group =>   2
Atom   2O    basis set group =>   2
Atom   3C    basis set group =>   1
Atom   4C    basis set group =>   1
Atom   5C    basis set group =>   1
Atom   6C    basis set group =>   1
Atom   7C    basis set group =>   1
Atom   8C    basis set group =>   1
Atom   9C    basis set group =>   1
Atom  10F    basis set group =>   3
Atom  11F    basis set group =>   3
Atom  12F    basis set group =>   3
Atom  13F    basis set group =>   3
Atom  14F    basis set group =>   3
Atom  15F    basis set group =>   3
Atom  16F    basis set group =>   3
Atom  17F    basis set group =>   3
Atom  18F    basis set group =>   3
Atom  19F    basis set group =>   3
Atom  20F    basis set group =>   3
Atom  21F    basis set group =>   3
Atom  22F    basis set group =>   3
Atom  23F    basis set group =>   3
Atom  24H    basis set group =>   4
---------------------------------
AUXILIARY/J BASIS SET INFORMATION
---------------------------------
There are 4 groups of distinct atoms

 Group   1 Type C   : 12s5p4d2f1g contracted to 6s4p3d1f1g pattern {711111/2111/211/2/1}
 Group   2 Type O   : 12s5p4d2f1g contracted to 6s4p3d1f1g pattern {711111/2111/211/2/1}
 Group   3 Type F   : 12s5p4d2f1g contracted to 6s4p3d1f1g pattern {711111/2111/211/2/1}
 Group   4 Type H   : 5s2p1d contracted to 3s1p1d pattern {311/2/1}

Atom   0C    basis set group =>   1
Atom   1O    basis set group =>   2
Atom   2O    basis set group =>   2
Atom   3C    basis set group =>   1
Atom   4C    basis set group =>   1
Atom   5C    basis set group =>   1
Atom   6C    basis set group =>   1
Atom   7C    basis set group =>   1
Atom   8C    basis set group =>   1
Atom   9C    basis set group =>   1
Atom  10F    basis set group =>   3
Atom  11F    basis set group =>   3
Atom  12F    basis set group =>   3
Atom  13F    basis set group =>   3
Atom  14F    basis set group =>   3
Atom  15F    basis set group =>   3
Atom  16F    basis set group =>   3
Atom  17F    basis set group =>   3
Atom  18F    basis set group =>   3
Atom  19F    basis set group =>   3
Atom  20F    basis set group =>   3
Atom  21F    basis set group =>   3
Atom  22F    basis set group =>   3
Atom  23F    basis set group =>   3
Atom  24H    basis set group =>   4


           ************************************************************
           *        Program running with 20 parallel MPI-processes    *
           *              working on a common directory               *
           ************************************************************
------------------------------------------------------------------------------
                             ORCA STARTUP CALCULATIONS
                           -- RI-GTO INTEGRALS CHOSEN --
------------------------------------------------------------------------------
------------------------------------------------------------------------------
                   ___                                                        
                  /   \      - P O W E R E D   B Y -                         
                 /     \                                                     
                 |  |  |   _    _      __       _____    __    __             
                 |  |  |  | |  | |    /  \     |  _  \  |  |  /  |          
                  \  \/   | |  | |   /    \    | | | |  |  | /  /          
                 / \  \   | |__| |  /  /\  \   | |_| |  |  |/  /          
                |  |  |   |  __  | /  /__\  \  |    /   |      \           
                |  |  |   | |  | | |   __   |  |    \   |  |\   \          
                \     /   | |  | | |  |  |  |  | |\  \  |  | \   \       
                 \___/    |_|  |_| |__|  |__|  |_| \__\ |__|  \__/        
                                                                              
                      - O R C A' S   B I G   F R I E N D -                    
                                      &                                       
                       - I N T E G R A L  F E E D E R -                       
                                                                              
 v1 FN, 2020, v2 2021, v3 2022-2024                                           
------------------------------------------------------------------------------


----------------------
SHARK INTEGRAL PACKAGE
----------------------

Number of atoms                             ...     25
Number of basis functions                   ...    750
Number of shells                            ...    268
Maximum angular momentum                    ...      3
Integral batch strategy                     ... SHARK/LIBINT Hybrid
RI-J (if used) integral strategy            ... SPLIT-RIJ (Revised 2003 algorithm where possible)
Printlevel                                  ...      1
Contraction scheme used                     ... SEGMENTED contraction
Prescreening option                         ... SCHWARTZ
   Thresh                                   ... 2.500e-11
   Tcut                                     ... 2.500e-12
   Tpresel                                  ... 2.500e-12 
Coulomb Range Separation                    ... NOT USED
Exchange Range Separation                   ... NOT USED
Multipole approximations                    ... NOT USED
Finite Nucleus Model                        ... NOT USED
CABS basis                                  ... NOT available
Auxiliary Coulomb fitting basis             ... AVAILABLE
   # of basis functions in Aux-J            ...   1187
   # of shells in Aux-J                     ...    365
   Maximum angular momentum in Aux-J        ...      4
Auxiliary J/K fitting basis                 ... NOT available
Auxiliary Correlation fitting basis         ... NOT available
Auxiliary 'external' fitting basis          ... NOT available

Checking pre-screening integrals            ... done (  0.0 sec) Dimension = 268
Check shell pair data                       ... done (  0.0 sec)
Shell pair information
Shell pair cut-off parameter TPreSel        ...   2.5e-12
Total number of shell pairs                 ...     36046
Shell pairs after pre-screening             ...     22313
Total number of primitive shell pairs       ...    118872
Primitive shell pairs kept                  ...     47303
          la=0 lb=0:   4253 shell pairs
          la=1 lb=0:   6089 shell pairs
          la=1 lb=1:   2103 shell pairs
          la=2 lb=0:   3314 shell pairs
          la=2 lb=1:   2425 shell pairs
          la=2 lb=2:    684 shell pairs
          la=3 lb=0:   1503 shell pairs
          la=3 lb=1:   1165 shell pairs
          la=3 lb=2:    627 shell pairs
          la=3 lb=3:    150 shell pairs

Calculating one electron integrals          ... done (  0.0 sec)
Calculating RI/J V-Matrix + Cholesky decomp.... done (  0.1 sec)
Calculating Nuclear repulsion               ... done (  0.0 sec) ENN=   2653.036024569685 Eh

Diagonalization of the overlap matrix:
Smallest eigenvalue                        ... 6.221e-05
Time for diagonalization                   ...    0.106 sec
Threshold for overlap eigenvalues          ... 1.000e-07
Number of eigenvalues below threshold      ... 0
Time for construction of square roots      ...    0.056 sec
Total time needed                          ...    0.168 sec

-------------------
DFT GRID GENERATION
-------------------

General Integration Accuracy     IntAcc      ... 4.388
Radial Grid Type                 RadialGrid  ... OptM3 with GC (2021)
Angular Grid (max. ang.)         AngularGrid ... 4 (Lebedev-302)
Angular grid pruning method      GridPruning ... 4 (adaptive)
Weight generation scheme         WeightScheme... mBecke (2022)
Basis function cutoff            BFCut       ... 1.0000e-11
Integration weight cutoff        WCut        ... 1.0000e-14
Partially contracted basis set               ... off
Rotationally invariant grid construction     ... off
Angular grids for H and He will be reduced by one unit

Total number of grid points                  ...   148712
Total number of batches                      ...     2334
Average number of points per batch           ...       63
Average number of grid points per atom       ...     5948

--------------------
COSX GRID GENERATION
--------------------

GRIDX 1
-------
General Integration Accuracy     IntAcc      ... 3.816
Radial Grid Type                 RadialGrid  ... OptM3 with GC (2021)
Angular Grid (max. ang.)         AngularGrid ... 1 (Lebedev-50)
Angular grid pruning method      GridPruning ... 4 (adaptive)
Weight generation scheme         WeightScheme... mBecke (2022)
Basis function cutoff            BFCut       ... 1.0000e-11
Integration weight cutoff        WCut        ... 1.0000e-14
Partially contracted basis set               ... on
Rotationally invariant grid construction     ... off
Angular grids for H and He will be reduced by one unit

Total number of grid points                  ...    18712
Total number of batches                      ...      158
Average number of points per batch           ...      118
Average number of grid points per atom       ...      748
UseSFitting                                  ... on

GRIDX 2
-------
General Integration Accuracy     IntAcc      ... 4.020
Radial Grid Type                 RadialGrid  ... OptM3 with GC (2021)
Angular Grid (max. ang.)         AngularGrid ... 2 (Lebedev-110)
Angular grid pruning method      GridPruning ... 4 (adaptive)
Weight generation scheme         WeightScheme... mBecke (2022)
Basis function cutoff            BFCut       ... 1.0000e-11
Integration weight cutoff        WCut        ... 1.0000e-14
Partially contracted basis set               ... on
Rotationally invariant grid construction     ... off
Angular grids for H and He will be reduced by one unit

Total number of grid points                  ...    44091
Total number of batches                      ...      359
Average number of points per batch           ...      122
Average number of grid points per atom       ...     1764
UseSFitting                                  ... on

GRIDX 3
-------
General Integration Accuracy     IntAcc      ... 4.338
Radial Grid Type                 RadialGrid  ... OptM3 with GC (2021)
Angular Grid (max. ang.)         AngularGrid ... 3 (Lebedev-194)
Angular grid pruning method      GridPruning ... 4 (adaptive)
Weight generation scheme         WeightScheme... mBecke (2022)
Basis function cutoff            BFCut       ... 1.0000e-11
Integration weight cutoff        WCut        ... 1.0000e-14
Partially contracted basis set               ... on
Rotationally invariant grid construction     ... off
Angular grids for H and He will be reduced by one unit

Total number of grid points                  ...    97624
Total number of batches                      ...      774
Average number of points per batch           ...      126
Average number of grid points per atom       ...     3905
UseSFitting                                  ... on
Initializing property integral containers    ... done (  0.0 sec)

SHARK setup successfully completed in   3.5 seconds

Maximum memory used throughout the entire STARTUP-calculation: 57.3 MB


           ************************************************************
           *        Program running with 20 parallel MPI-processes    *
           *              working on a common directory               *
           ************************************************************
-------------------------------------------------------------------------------
                                 ORCA GUESS
                   Start orbitals & Density for SCF / CASSCF
-------------------------------------------------------------------------------

------------
SCF SETTINGS
------------
Hamiltonian:
 Density Functional     Method          .... DFT(GTOs)
 Exchange Functional    Exchange        .... B88
   X-Alpha parameter    XAlpha          ....  0.666667
   Becke's b parameter  XBeta           ....  0.004200
 Correlation Functional Correlation     .... LYP
 LDA part of GGA corr.  LDAOpt          .... VWN-5
 Gradients option       PostSCFGGA      .... off
 Hybrid DFT is turned on
   Fraction HF Exchange ScalHFX         ....  0.200000
   Scaling of DF-GGA-X  ScalDFX         ....  0.720000
   Scaling of DF-GGA-C  ScalDFC         ....  0.810000
   Scaling of DF-LDA-C  ScalLDAC        ....  1.000000
   Perturbative correction              ....  0.000000
   NL short-range parameter             ....  4.800000
 RI-approximation to the Coulomb term is turned on
   Number of AuxJ basis functions       .... 1187
   RIJ-COSX (HFX calculated with COS-X)).... on


General Settings:
 Integral files         IntName         .... rf_mecn_opt_B3L_C2_P_B
 Hartree-Fock type      HFTyp           .... UHF
 Total Charge           Charge          ....    0
 Multiplicity           Mult            ....    2
 Number of Electrons    NEL             ....  191
 Basis Dimension        Dim             ....  750
 Nuclear Repulsion      ENuc            ....   2653.0360245697 Eh

Convergence Acceleration:
 AO-DIIS                CNVDIIS         .... on
   Start iteration      DIISMaxIt       ....     0
   Startup error        DIISStart       ....  0.200000
   # of expansion vecs  DIISMaxEq       ....     5
   Bias factor          DIISBfac        ....   1.050
   Max. coefficient     DIISMaxC        ....  10.000
 MO-DIIS                CNVKDIIS        .... off
 Trust-Rad. Augm. Hess. CNVTRAH         .... auto
   Auto Start mean grad. ratio tolernc. ....  1.125000
   Auto Start start iteration           ....    50
   Auto Start num. interpolation iter.  ....    10
   Max. Number of Micro iterations      ....    24
   Max. Number of Macro iterations      .... Maxiter - #DIIS iter
   Number of Davidson start vectors     ....     2
   Converg. threshold    (grad. norm)   ....   1.000e-05
   Grad. Scal. Fac. for Micro threshold ....   0.100
   Minimum threshold for Micro iter.    ....   1.000e-02
   NR start threshold (gradient norm)   ....   1.000e-04
   Initial trust radius                 ....   0.400
   Minimum AH scaling param. (alpha)    ....   1.000
   Maximum AH scaling param. (alpha)    .... 1000.000
   Quad. conv. algorithm                .... NR
   White noise on init. David. guess    .... on
   Maximum white noise                  ....   0.010
   Pseudo random numbers                .... off
   Inactive MOs                         .... canonical
   Orbital update algorithm             .... Taylor
   Preconditioner                       .... Diag
   Full preconditioner red. dimension   ....   250
 SOSCF                  CNVSOSCF        .... on
   Start iteration      SOSCFMaxIt      ....   150
   Startup grad/error   SOSCFStart      ....  0.001000
   Hessian update       SOSCFHessUp     .... L-BFGS
 Level Shifting         CNVShift        .... on
   Level shift para.    LevelShift      ....    0.2500
   Turn off err/grad.   ShiftErr        ....    0.0000
 Zerner damping         CNVZerner       .... off
 Static damping         CNVDamp         .... on
   Fraction old density DampFac         ....    0.8500
   Max. Damping (<1)    DampMax         ....    0.9800
   Min. Damping (>=0)   DampMin         ....    0.0000
   Turn off err/grad.   DampErr         ....    0.0300

SCF Procedure:
 Maximum # iterations   MaxIter         ....  1500
 SCF integral mode      SCFMode         .... Direct
   Integral package                     .... SHARK and LIBINT hybrid scheme
 Reset frequency        DirectResetFreq ....    20
 Integral Threshold     Thresh          ....  2.500e-11 Eh
 Primitive CutOff       TCut            ....  2.500e-12 Eh

Convergence Tolerance:
 Convergence Check Mode ConvCheckMode   .... Total+1el-Energy
 Convergence forced     ConvForced      .... 0
 Energy Change          TolE            ....  1.000e-08 Eh
 1-El. energy change                    ....  1.000e-05 Eh
 Orbital Gradient       TolG            ....  1.000e-05
 Orbital Rotation angle TolX            ....  1.000e-05
 DIIS Error             TolErr          ....  5.000e-07

------------------------------
INITIAL GUESS: MODEL POTENTIAL
------------------------------
Loading Hartree-Fock densities                     ... done
Calculating cut-offs                               ... done
Initializing the effective Hamiltonian             ... done
Setting up the integral package (SHARK)            ... done
Starting the Coulomb interaction                   ... done (   0.2 sec)
Making the grid                                    ... done (   0.4 sec)
Mapping shells                                     ... done
Starting the XC term evaluation                    ... done (   0.1 sec)
  promolecular density results
     # of electrons  =    190.999799884
     EX              =   -198.460524701
     EC              =     -7.163980675
     EX+EC           =   -205.624505377
Transforming the Hamiltonian                       ... done (   0.0 sec)
Diagonalizing the Hamiltonian                      ... done (   0.1 sec)
Back transforming the eigenvectors                 ... done (   0.0 sec)
Now organizing SCF variables                       ... done
                      ------------------
                      INITIAL GUESS DONE (   1.0 sec)
                      ------------------
             **** ENERGY FILE WAS UPDATED (rf_mecn_opt_B3L_C2_P_B.en.tmp) ****
Finished Guess after   1.8 sec
Maximum memory used throughout the entire GUESS-calculation: 46.3 MB


           ************************************************************
           *        Program running with 20 parallel MPI-processes    *
           *              working on a common directory               *
           ************************************************************

-------------------------------------------------------------------------------------------
                                      ORCA LEAN-SCF
                              memory conserving SCF solver
-------------------------------------------------------------------------------------------

--------------------
CPCM SOLVATION MODEL
--------------------
CPCM parameters:
  Epsilon                                         ...      35.6880
  Refrac                                          ...       1.3442
  Rsolv                                           ...       1.3000
  Surface type                                    ... GAUSSIAN VDW
  Discretization scheme                           ... Constant charge density
    Threshold for H atoms                         ...       5.0000 (charges/Ang^2)
    Threshold for non-H atoms                     ...       5.0000 (charges/Ang^2)
  Epsilon function type                           ...         CPCM
Solvent:                                          ... ACETONITRILE
SMD-CDS solvent descriptors:
  Soln                                            ...       1.3442
  Soln25                                          ...       1.3416
  Sola                                            ...       0.0700
  Solb                                            ...       0.3200
  Solg                                            ...      41.2500
  Solc                                            ...       0.0000
  Solh                                            ...       0.0000
Radii:
  Scheme                                          ... Element-dependent radii
  Radius for C  used is    3.4960 Bohr (=   1.8500 Ang.)
  Radius for O  used is    4.0969 Bohr (=   2.1680 Ang.)
  Radius for F  used is    3.2692 Bohr (=   1.7300 Ang.)
  Radius for H  used is    2.2677 Bohr (=   1.2000 Ang.)
Calculating surface                               ...        done! (  0.0s)
Cavity surface points                             ...         2142
Cavity Volume                                     ...    2127.0562
Cavity Surface-area                               ...    1106.2742
Calculating surface distance matrix               ...        done! (  0.0s)
Performing Cholesky decomposition & store         ...        done! (  0.1s)
Overall time for CPCM initialization              ...                 0.1s

----------------------------------------D-I-I-S--------------------------------------------
Iteration    Energy (Eh)           Delta-E    RMSDP     MaxDP     DIISErr   Damp  Time(sec)
-------------------------------------------------------------------------------------------
               ***  Starting incremental Fock matrix formation  ***
    1    -1853.0497413139255514     0.00e+00  2.28e-04  1.74e-02  1.63e-01  0.850   6.4
Warning: op=1 Small HOMO/LUMO gap (   0.010) - skipping pre-diagonalization
         Will do a full diagonalization
    2    -1853.2230929816269054    -1.73e-01  2.20e-04  1.92e-02  1.02e-01  0.850   4.6
                               ***Turning on AO-DIIS***
    3    -1853.3114723378730559    -8.84e-02  9.20e-05  6.16e-03  5.71e-02  0.850   3.7
    4    -1853.3635381228514234    -5.21e-02  5.19e-05  3.08e-03  4.11e-02  0.850   3.7
    5    -1853.4004471380303585    -3.69e-02  3.87e-05  2.45e-03  3.45e-02  0.850   3.6
    6    -1853.4298681649197533    -2.94e-02  3.33e-05  2.49e-03  3.14e-02  0.850   3.5
    7    -1853.4545940424613946    -2.47e-02  3.13e-05  2.36e-03  2.67e-02  0.850   3.5
    8    -1853.4756591661162020    -2.11e-02  1.84e-04  1.41e-02  2.08e-02  0.000   3.4
    9    -1853.5863063011165650    -1.11e-01  2.41e-05  2.97e-03  5.47e-03  0.000   3.8
   10    -1853.5865802342932511    -2.74e-04  9.95e-06  1.48e-03  4.13e-03  0.000   3.2
                              *** Initializing SOSCF ***
---------------------------------------S-O-S-C-F--------------------------------------
Iteration    Energy (Eh)           Delta-E    RMSDP     MaxDP     MaxGrad    Time(sec)
--------------------------------------------------------------------------------------
   11    -1853.5867009092389708    -1.21e-04  6.10e-06  6.77e-04  8.79e-04     3.7
               *** Restarting incremental Fock matrix formation ***
   12    -1853.5867480816341413    -4.72e-05  7.52e-06  1.24e-03  1.00e-03     6.2
   13    -1853.5867624471429735    -1.44e-05  1.30e-05  1.50e-03  1.34e-03     4.0
   14    -1853.5867686982037412    -6.25e-06  5.61e-06  5.12e-04  8.71e-04     4.2
   15    -1853.5867767624813496    -8.06e-06  2.68e-06  2.52e-04  1.35e-04     4.1
   16    -1853.5867770831355301    -3.21e-07  1.43e-06  1.75e-04  2.11e-04     3.8
   17    -1853.5867779811615037    -8.98e-07  1.05e-06  1.39e-04  4.96e-05     3.5
   18    -1853.5867780383696299    -5.72e-08  4.82e-07  5.74e-05  2.94e-05     3.5
   19    -1853.5867781301567447    -9.18e-08  2.22e-07  2.03e-05  8.46e-06     3.3
   20    -1853.5867781188380832     1.13e-08  1.09e-07  7.32e-06  8.88e-06     2.9
   21    -1853.5867781242859564    -5.45e-09  9.16e-08  5.77e-06  1.98e-06     2.8
                 **** Energy Check signals convergence ****

               *****************************************************
               *                     SUCCESS                       *
               *           SCF CONVERGED AFTER  21 CYCLES          *
               *****************************************************

Recomputing exchange energy using gridx3       ... done (    7.783 sec)
Old exchange energy                            :    -39.752822354 Eh
New exchange energy                            :    -39.752842032 Eh
Exchange energy change after final integration :     -0.000019678 Eh
Total energy after final integration           :  -1853.586797802 Eh

SMD CDS free energy correction energy :                 3.61262     Kcal/mol
Total Energy after SMD CDS correction =             -1853.581040732 Eh
             **** ENERGY FILE WAS UPDATED (rf_mecn_opt_B3L_C2_P_B.en.tmp) ****

----------------
TOTAL SCF ENERGY
----------------

Total Energy       :      -1853.58104073220557 Eh          -50438.50436 eV

Components:
Nuclear Repulsion  :       2653.03602456968474 Eh           72192.78044 eV
Electronic Energy  :      -4506.60634476559790 Eh         -122630.99308 eV
One Electron Energy:      -7857.42330314978881 Eh         -213811.35804 eV
Two Electron Energy:       3350.81695838419046 Eh           91180.36496 eV
CPCM Dielectric    :         -0.01645792837154 Eh              -0.44784 eV
SMD CDS (Gcds)     :          0.00575707000959 Eh               0.15666 eV

Virial components:
Potential Energy   :      -3699.74528581094955 Eh         -100675.18745 eV
Kinetic Energy     :       1846.16424507874399 Eh           50236.68309 eV
Virial Ratio       :          2.00401740834990

DFT components:
N(Alpha)           :       95.999975263441 electrons
N(Beta)            :       94.999964241194 electrons
N(Total)           :      190.999939504635 electrons
E(X)               :     -158.474182528582 Eh       
E(C)               :       -8.366709904225 Eh       
E(XC)              :     -166.840892432806 Eh       

CPCM Solvation Model Properties:
Surface-charge          :         -0.00954796251038
Corrected charge        :         -0.00000000000000
Outlying charge corr.   :          0.00000497859468 Eh               0.00014 eV
Free-energy (cav+disp)  :          0.00575707000959 Eh               0.15666 eV

---------------
SCF CONVERGENCE
---------------

  Last Energy change         ...    5.4479e-09  Tolerance :   1.0000e-08
  Last MAX-Density change    ...    5.7674e-06  Tolerance :   1.0000e-07
  Last RMS-Density change    ...    9.1560e-08  Tolerance :   5.0000e-09
  Last DIIS Error            ...    8.7888e-04  Tolerance :   5.0000e-07
  Last Orbital Gradient      ...    1.9830e-06  Tolerance :   1.0000e-05
  Last Orbital Rotation      ...    1.0130e-05  Tolerance :   1.0000e-05


----------------------
UHF SPIN CONTAMINATION
----------------------

Warning: in a DFT calculation there is little theoretical justification to 
         calculate <S**2> as in Hartree-Fock theory. We will do it anyways
         but you should keep in mind that the values have only limited relevance

Expectation value of <S**2>     :     0.759829
Ideal value S*(S+1) for S=0.5   :     0.750000
Deviation                       :     0.009829

----------------
ORBITAL ENERGIES
----------------
                 SPIN UP ORBITALS
  NO   OCC          E(Eh)            E(eV) 
   0   1.0000     -24.746971      -673.3993 
   1   1.0000     -24.746828      -673.3954 
   2   1.0000     -24.746497      -673.3864 
   3   1.0000     -24.746066      -673.3747 
   4   1.0000     -24.746019      -673.3734 
   5   1.0000     -24.745374      -673.3559 
   6   1.0000     -24.745340      -673.3549 
   7   1.0000     -24.745315      -673.3542 
   8   1.0000     -24.744965      -673.3447 
   9   1.0000     -24.743058      -673.2928 
  10   1.0000     -24.741356      -673.2465 
  11   1.0000     -24.738044      -673.1564 
  12   1.0000     -24.735862      -673.0970 
  13   1.0000     -24.734974      -673.0729 
  14   1.0000     -19.194707      -522.3145 
  15   1.0000     -19.164764      -521.4997 
  16   1.0000     -10.464992      -284.7669 
  17   1.0000     -10.414047      -283.3806 
  18   1.0000     -10.412797      -283.3466 
  19   1.0000     -10.411963      -283.3239 
  20   1.0000     -10.409148      -283.2473 
  21   1.0000     -10.406911      -283.1865 
  22   1.0000     -10.397738      -282.9368 
  23   1.0000     -10.345300      -281.5099 
  24   1.0000      -1.352975       -36.8163 
  25   1.0000      -1.332207       -36.2512 
  26   1.0000      -1.317719       -35.8570 
  27   1.0000      -1.307714       -35.5847 
  28   1.0000      -1.306490       -35.5514 
  29   1.0000      -1.299339       -35.3568 
  30   1.0000      -1.268289       -34.5119 
  31   1.0000      -1.262866       -34.3643 
  32   1.0000      -1.261663       -34.3316 
  33   1.0000      -1.261095       -34.3161 
  34   1.0000      -1.256287       -34.1853 
  35   1.0000      -1.251742       -34.0616 
  36   1.0000      -1.250515       -34.0282 
  37   1.0000      -1.243533       -33.8382 
  38   1.0000      -1.082099       -29.4454 
  39   1.0000      -0.998565       -27.1723 
  40   1.0000      -0.853947       -23.2371 
  41   1.0000      -0.836286       -22.7565 
  42   1.0000      -0.810628       -22.0583 
  43   1.0000      -0.775512       -21.1028 
  44   1.0000      -0.738790       -20.1035 
  45   1.0000      -0.709703       -19.3120 
  46   1.0000      -0.689066       -18.7504 
  47   1.0000      -0.672522       -18.3003 
  48   1.0000      -0.653359       -17.7788 
  49   1.0000      -0.648204       -17.6385 
  50   1.0000      -0.640035       -17.4162 
  51   1.0000      -0.632885       -17.2217 
  52   1.0000      -0.629530       -17.1304 
  53   1.0000      -0.626826       -17.0568 
  54   1.0000      -0.615392       -16.7457 
  55   1.0000      -0.608718       -16.5640 
  56   1.0000      -0.607504       -16.5310 
  57   1.0000      -0.600124       -16.3302 
  58   1.0000      -0.587927       -15.9983 
  59   1.0000      -0.582790       -15.8585 
  60   1.0000      -0.576617       -15.6905 
  61   1.0000      -0.565675       -15.3928 
  62   1.0000      -0.520036       -14.1509 
  63   1.0000      -0.517806       -14.0902 
  64   1.0000      -0.516605       -14.0575 
  65   1.0000      -0.509729       -13.8704 
  66   1.0000      -0.509446       -13.8627 
  67   1.0000      -0.502478       -13.6731 
  68   1.0000      -0.500448       -13.6179 
  69   1.0000      -0.498067       -13.5531 
  70   1.0000      -0.491530       -13.3752 
  71   1.0000      -0.488482       -13.2923 
  72   1.0000      -0.487113       -13.2550 
  73   1.0000      -0.483769       -13.1640 
  74   1.0000      -0.479556       -13.0494 
  75   1.0000      -0.474890       -12.9224 
  76   1.0000      -0.467411       -12.7189 
  77   1.0000      -0.465418       -12.6647 
  78   1.0000      -0.462118       -12.5749 
  79   1.0000      -0.457197       -12.4410 
  80   1.0000      -0.455347       -12.3906 
  81   1.0000      -0.453009       -12.3270 
  82   1.0000      -0.449266       -12.2252 
  83   1.0000      -0.447410       -12.1747 
  84   1.0000      -0.443937       -12.0801 
  85   1.0000      -0.442774       -12.0485 
  86   1.0000      -0.439711       -11.9652 
  87   1.0000      -0.438227       -11.9248 
  88   1.0000      -0.431859       -11.7515 
  89   1.0000      -0.422073       -11.4852 
  90   1.0000      -0.394940       -10.7469 
  91   1.0000      -0.367022        -9.9872 
  92   1.0000      -0.351345        -9.5606 
  93   1.0000      -0.347320        -9.4511 
  94   1.0000      -0.315848        -8.5947 
  95   1.0000      -0.296996        -8.0817 
  96   0.0000      -0.070140        -1.9086 
  97   0.0000      -0.022827        -0.6211 
  98   0.0000      -0.005183        -0.1410 
  99   0.0000       0.001003         0.0273 
 100   0.0000       0.030975         0.8429 
 101   0.0000       0.037433         1.0186 
 102   0.0000       0.074224         2.0197 
 103   0.0000       0.085117         2.3161 
 104   0.0000       0.093735         2.5507 
 105   0.0000       0.100396         2.7319 
 106   0.0000       0.115798         3.1510 

                 SPIN DOWN ORBITALS
  NO   OCC          E(Eh)            E(eV) 
   0   1.0000     -24.746971      -673.3993 
   1   1.0000     -24.746827      -673.3954 
   2   1.0000     -24.746497      -673.3864 
   3   1.0000     -24.746066      -673.3747 
   4   1.0000     -24.746019      -673.3734 
   5   1.0000     -24.745374      -673.3559 
   6   1.0000     -24.745342      -673.3550 
   7   1.0000     -24.745312      -673.3542 
   8   1.0000     -24.744965      -673.3447 
   9   1.0000     -24.743065      -673.2930 
  10   1.0000     -24.741294      -673.2448 
  11   1.0000     -24.734804      -673.0682 
  12   1.0000     -24.734615      -673.0631 
  13   1.0000     -24.733996      -673.0463 
  14   1.0000     -19.194644      -522.3128 
  15   1.0000     -19.161049      -521.3987 
  16   1.0000     -10.464992      -284.7669 
  17   1.0000     -10.414047      -283.3806 
  18   1.0000     -10.412790      -283.3464 
  19   1.0000     -10.411963      -283.3239 
  20   1.0000     -10.409173      -283.2480 
  21   1.0000     -10.406834      -283.1844 
  22   1.0000     -10.398543      -282.9588 
  23   1.0000     -10.330626      -281.1106 
  24   1.0000      -1.352974       -36.8163 
  25   1.0000      -1.332114       -36.2487 
  26   1.0000      -1.317412       -35.8486 
  27   1.0000      -1.307637       -35.5826 
  28   1.0000      -1.306322       -35.5468 
  29   1.0000      -1.298319       -35.3291 
  30   1.0000      -1.268283       -34.5117 
  31   1.0000      -1.262818       -34.3630 
  32   1.0000      -1.261100       -34.3163 
  33   1.0000      -1.256212       -34.1833 
  34   1.0000      -1.252893       -34.0929 
  35   1.0000      -1.251667       -34.0596 
  36   1.0000      -1.250412       -34.0254 
  37   1.0000      -1.242024       -33.7972 
  38   1.0000      -1.081595       -29.4317 
  39   1.0000      -0.991768       -26.9874 
  40   1.0000      -0.853558       -23.2265 
  41   1.0000      -0.833703       -22.6862 
  42   1.0000      -0.804586       -21.8939 
  43   1.0000      -0.768641       -20.9158 
  44   1.0000      -0.736742       -20.0478 
  45   1.0000      -0.708415       -19.2769 
  46   1.0000      -0.688023       -18.7221 
  47   1.0000      -0.668042       -18.1783 
  48   1.0000      -0.653303       -17.7773 
  49   1.0000      -0.647645       -17.6233 
  50   1.0000      -0.640000       -17.4153 
  51   1.0000      -0.632652       -17.2153 
  52   1.0000      -0.628833       -17.1114 
  53   1.0000      -0.626034       -17.0352 
  54   1.0000      -0.614663       -16.7258 
  55   1.0000      -0.608148       -16.5486 
  56   1.0000      -0.606701       -16.5092 
  57   1.0000      -0.599213       -16.3054 
  58   1.0000      -0.587052       -15.9745 
  59   1.0000      -0.580657       -15.8005 
  60   1.0000      -0.572152       -15.5690 
  61   1.0000      -0.560726       -15.2581 
  62   1.0000      -0.519743       -14.1429 
  63   1.0000      -0.516463       -14.0537 
  64   1.0000      -0.510712       -13.8972 
  65   1.0000      -0.508717       -13.8429 
  66   1.0000      -0.502818       -13.6824 
  67   1.0000      -0.500694       -13.6246 
  68   1.0000      -0.499673       -13.5968 
  69   1.0000      -0.492267       -13.3953 
  70   1.0000      -0.490789       -13.3550 
  71   1.0000      -0.487267       -13.2592 
  72   1.0000      -0.483932       -13.1685 
  73   1.0000      -0.482620       -13.1327 
  74   1.0000      -0.478568       -13.0225 
  75   1.0000      -0.473294       -12.8790 
  76   1.0000      -0.465465       -12.6659 
  77   1.0000      -0.462896       -12.5960 
  78   1.0000      -0.457957       -12.4616 
  79   1.0000      -0.457071       -12.4375 
  80   1.0000      -0.455235       -12.3876 
  81   1.0000      -0.452665       -12.3176 
  82   1.0000      -0.449043       -12.2191 
  83   1.0000      -0.447174       -12.1682 
  84   1.0000      -0.443822       -12.0770 
  85   1.0000      -0.442111       -12.0305 
  86   1.0000      -0.438765       -11.9394 
  87   1.0000      -0.435555       -11.8520 
  88   1.0000      -0.430121       -11.7042 
  89   1.0000      -0.419687       -11.4203 
  90   1.0000      -0.392280       -10.6745 
  91   1.0000      -0.364038        -9.9060 
  92   1.0000      -0.349415        -9.5081 
  93   1.0000      -0.331477        -9.0199 
  94   1.0000      -0.310247        -8.4422 
  95   0.0000      -0.157706        -4.2914 
  96   0.0000      -0.054115        -1.4725 
  97   0.0000      -0.019140        -0.5208 
  98   0.0000      -0.004355        -0.1185 
  99   0.0000       0.001199         0.0326 
 100   0.0000       0.032151         0.8749 
 101   0.0000       0.044061         1.1990 
 102   0.0000       0.076871         2.0918 
 103   0.0000       0.088945         2.4203 
 104   0.0000       0.094778         2.5790 
 105   0.0000       0.101393         2.7590 
*Only the first 10 virtual orbitals were printed.

                    ********************************
                    * MULLIKEN POPULATION ANALYSIS *
                    ********************************

--------------------------------------------
MULLIKEN ATOMIC CHARGES AND SPIN POPULATIONS
--------------------------------------------
   0 C :    0.413226   -0.058632
   1 O :   -0.466971    0.005500
   2 O :   -0.402980    0.138381
   3 C :    0.165909    0.809298
   4 C :    0.385533   -0.003382
   5 C :    0.345880   -0.000958
   6 C :    0.325326    0.000403
   7 C :    0.315954   -0.000015
   8 C :    0.324991    0.000002
   9 C :    0.477131   -0.000001
  10 F :   -0.171650    0.079102
  11 F :   -0.180313    0.003150
  12 F :   -0.174548    0.025642
  13 F :   -0.171566    0.000006
  14 F :   -0.172004    0.000849
  15 F :   -0.168430   -0.000012
  16 F :   -0.168385    0.000053
  17 F :   -0.168044    0.000009
  18 F :   -0.167717   -0.000002
  19 F :   -0.166391    0.000001
  20 F :   -0.162716   -0.000000
  21 F :   -0.155729    0.000000
  22 F :   -0.152124    0.000001
  23 F :   -0.152710    0.000000
  24 H :    0.448327    0.000604
Sum of atomic charges         :    0.0000000
Sum of atomic spin populations:    1.0000000

-----------------------------------------------------
MULLIKEN REDUCED ORBITAL CHARGES AND SPIN POPULATIONS
-----------------------------------------------------
CHARGE
  0 C s       :     3.146108  s :     3.146108
      pz      :     0.762302  p :     2.217776
      px      :     0.798457
      py      :     0.657017
      dz2     :     0.019997  d :     0.204580
      dxz     :     0.016741
      dyz     :     0.055118
      dx2y2   :     0.048420
      dxy     :     0.064303
      f0      :     0.001737  f :     0.018310
      f+1     :     0.001247
      f-1     :     0.002381
      f+2     :     0.002567
      f-2     :     0.001907
      f+3     :     0.003911
      f-3     :     0.004561

  1 O s       :     3.663791  s :     3.663791
      pz      :     1.739708  p :     4.786671
      px      :     1.692976
      py      :     1.353987
      dz2     :     0.001641  d :     0.013698
      dxz     :     0.001105
      dyz     :     0.002908
      dx2y2   :     0.003121
      dxy     :     0.004923
      f0      :     0.000277  f :     0.002810
      f+1     :     0.000128
      f-1     :     0.000375
      f+2     :     0.000241
      f-2     :     0.000431
      f+3     :     0.000919
      f-3     :     0.000440

  2 O s       :     3.877463  s :     3.877463
      pz      :     1.564034  p :     4.499784
      px      :     1.685472
      py      :     1.250278
      dz2     :     0.003266  d :     0.024456
      dxz     :     0.000306
      dyz     :     0.006261
      dx2y2   :     0.009172
      dxy     :     0.005451
      f0      :     0.000115  f :     0.001277
      f+1     :     0.000016
      f-1     :     0.000226
      f+2     :     0.000214
      f-2     :     0.000028
      f+3     :     0.000287
      f-3     :     0.000391

  3 C s       :     3.310741  s :     3.310741
      pz      :     0.892574  p :     2.374310
      px      :     0.883299
      py      :     0.598437
      dz2     :     0.013174  d :     0.134645
      dxz     :     0.016473
      dyz     :     0.031050
      dx2y2   :     0.033753
      dxy     :     0.040194
      f0      :     0.001905  f :     0.014394
      f+1     :     0.001080
      f-1     :     0.001168
      f+2     :     0.002579
      f-2     :     0.001192
      f+3     :     0.003545
      f-3     :     0.002925

  4 C s       :     3.116939  s :     3.116939
      pz      :     0.606001  p :     2.190209
      px      :     0.892414
      py      :     0.691794
      dz2     :     0.059311  d :     0.279820
      dxz     :     0.062171
      dyz     :     0.067028
      dx2y2   :     0.034195
      dxy     :     0.057116
      f0      :     0.003828  f :     0.027499
      f+1     :     0.004753
      f-1     :     0.007908
      f+2     :     0.002284
      f-2     :     0.002660
      f+3     :     0.003455
      f-3     :     0.002611

  5 C s       :     3.152180  s :     3.152180
      pz      :     0.584681  p :     2.190428
      px      :     0.897054
      py      :     0.708693
      dz2     :     0.073250  d :     0.283833
      dxz     :     0.060901
      dyz     :     0.057957
      dx2y2   :     0.033396
      dxy     :     0.058328
      f0      :     0.004947  f :     0.027680
      f+1     :     0.004343
      f-1     :     0.006196
      f+2     :     0.003179
      f-2     :     0.004286
      f+3     :     0.002502
      f-3     :     0.002227

  6 C s       :     3.152867  s :     3.152867
      pz      :     0.580749  p :     2.210508
      px      :     0.912248
      py      :     0.717511
      dz2     :     0.078508  d :     0.283628
      dxz     :     0.060824
      dyz     :     0.053563
      dx2y2   :     0.032882
      dxy     :     0.057851
      f0      :     0.006006  f :     0.027671
      f+1     :     0.003900
      f-1     :     0.004574
      f+2     :     0.004030
      f-2     :     0.005125
      f+3     :     0.002053
      f-3     :     0.001982

  7 C s       :     3.150987  s :     3.150987
      pz      :     0.589402  p :     2.221455
      px      :     0.923997
      py      :     0.708057
      dz2     :     0.072435  d :     0.283930
      dxz     :     0.060919
      dyz     :     0.059624
      dx2y2   :     0.032919
      dxy     :     0.058033
      f0      :     0.004787  f :     0.027673
      f+1     :     0.004329
      f-1     :     0.006515
      f+2     :     0.003046
      f-2     :     0.004209
      f+3     :     0.002580
      f-3     :     0.002207

  8 C s       :     3.130653  s :     3.130653
      pz      :     0.619664  p :     2.239355
      px      :     0.929011
      py      :     0.690681
      dz2     :     0.057618  d :     0.277333
      dxz     :     0.058959
      dyz     :     0.069830
      dx2y2   :     0.033989
      dxy     :     0.056937
      f0      :     0.003804  f :     0.027668
      f+1     :     0.004908
      f-1     :     0.008093
      f+2     :     0.002219
      f-2     :     0.002380
      f+3     :     0.003714
      f-3     :     0.002550

  9 C s       :     3.026814  s :     3.026814
      pz      :     0.650958  p :     2.113663
      px      :     0.800036
      py      :     0.662669
      dz2     :     0.064657  d :     0.342507
      dxz     :     0.067148
      dyz     :     0.083020
      dx2y2   :     0.061803
      dxy     :     0.065878
      f0      :     0.004872  f :     0.039886
      f+1     :     0.007790
      f-1     :     0.008751
      f+2     :     0.004371
      f-2     :     0.003096
      f+3     :     0.007273
      f-3     :     0.003733

 10 F s       :     3.923895  s :     3.923895
      pz      :     1.857783  p :     5.231866
      px      :     1.892331
      py      :     1.481752
      dz2     :     0.001968  d :     0.015277
      dxz     :     0.000292
      dyz     :     0.003735
      dx2y2   :     0.005451
      dxy     :     0.003831
      f0      :     0.000058  f :     0.000612
      f+1     :     0.000014
      f-1     :     0.000113
      f+2     :     0.000081
      f-2     :     0.000017
      f+3     :     0.000158
      f-3     :     0.000171

 11 F s       :     3.916417  s :     3.916417
      pz      :     1.812598  p :     5.247234
      px      :     1.908642
      py      :     1.525994
      dz2     :     0.001992  d :     0.015975
      dxz     :     0.000718
      dyz     :     0.005290
      dx2y2   :     0.004765
      dxy     :     0.003211
      f0      :     0.000079  f :     0.000688
      f+1     :     0.000003
      f-1     :     0.000118
      f+2     :     0.000188
      f-2     :     0.000060
      f+3     :     0.000105
      f-3     :     0.000134

 12 F s       :     3.919072  s :     3.919072
      pz      :     1.451406  p :     5.238840
      px      :     1.904748
      py      :     1.882685
      dz2     :     0.008311  d :     0.015953
      dxz     :     0.003635
      dyz     :     0.003443
      dx2y2   :     0.000265
      dxy     :     0.000299
      f0      :     0.000342  f :     0.000683
      f+1     :     0.000150
      f-1     :     0.000161
      f+2     :     0.000011
      f-2     :     0.000017
      f+3     :     0.000001
      f-3     :     0.000001

 13 F s       :     3.916721  s :     3.916721
      pz      :     1.707715  p :     5.237846
      px      :     1.906008
      py      :     1.624123
      dz2     :     0.002626  d :     0.016302
      dxz     :     0.001590
      dyz     :     0.006523
      dx2y2   :     0.003066
      dxy     :     0.002497
      f0      :     0.000078  f :     0.000697
      f+1     :     0.000013
      f-1     :     0.000187
      f+2     :     0.000196
      f-2     :     0.000103
      f+3     :     0.000058
      f-3     :     0.000062

 14 F s       :     3.917340  s :     3.917340
      pz      :     1.502138  p :     5.237694
      px      :     1.908701
      py      :     1.826856
      dz2     :     0.006770  d :     0.016271
      dxz     :     0.003225
      dyz     :     0.004884
      dx2y2   :     0.000618
      dxy     :     0.000774
      f0      :     0.000232  f :     0.000699
      f+1     :     0.000107
      f-1     :     0.000241
      f+2     :     0.000051
      f-2     :     0.000059
      f+3     :     0.000005
      f-3     :     0.000004

 15 F s       :     3.917546  s :     3.917546
      pz      :     1.592528  p :     5.233837
      px      :     1.904491
      py      :     1.736819
      dz2     :     0.004467  d :     0.016349
      dxz     :     0.002555
      dyz     :     0.006271
      dx2y2   :     0.001522
      dxy     :     0.001535
      f0      :     0.000117  f :     0.000698
      f+1     :     0.000054
      f-1     :     0.000262
      f+2     :     0.000126
      f-2     :     0.000100
      f+3     :     0.000021
      f-3     :     0.000018

 16 F s       :     3.917591  s :     3.917591
      pz      :     1.603517  p :     5.233705
      px      :     1.905477
      py      :     1.724710
      dz2     :     0.004239  d :     0.016389
      dxz     :     0.002460
      dyz     :     0.006391
      dx2y2   :     0.001663
      dxy     :     0.001636
      f0      :     0.000109  f :     0.000700
      f+1     :     0.000048
      f-1     :     0.000259
      f+2     :     0.000136
      f-2     :     0.000103
      f+3     :     0.000024
      f-3     :     0.000021

 17 F s       :     3.917878  s :     3.917878
      pz      :     1.718735  p :     5.233052
      px      :     1.906340
      py      :     1.607977
      dz2     :     0.002523  d :     0.016414
      dxz     :     0.001477
      dyz     :     0.006521
      dx2y2   :     0.003307
      dxy     :     0.002585
      f0      :     0.000078  f :     0.000700
      f+1     :     0.000010
      f-1     :     0.000179
      f+2     :     0.000203
      f-2     :     0.000098
      f+3     :     0.000063
      f-3     :     0.000069

 18 F s       :     3.918010  s :     3.918010
      pz      :     1.494742  p :     5.232619
      px      :     1.905185
      py      :     1.832692
      dz2     :     0.006986  d :     0.016389
      dxz     :     0.003379
      dyz     :     0.004760
      dx2y2   :     0.000572
      dxy     :     0.000691
      f0      :     0.000244  f :     0.000699
      f+1     :     0.000114
      f-1     :     0.000234
      f+2     :     0.000045
      f-2     :     0.000055
      f+3     :     0.000004
      f-3     :     0.000003

 19 F s       :     3.917424  s :     3.917424
      pz      :     1.821295  p :     5.231993
      px      :     1.902756
      py      :     1.507942
      dz2     :     0.002043  d :     0.016277
      dxz     :     0.000640
      dyz     :     0.005111
      dx2y2   :     0.005090
      dxy     :     0.003393
      f0      :     0.000079  f :     0.000696
      f+1     :     0.000004
      f-1     :     0.000119
      f+2     :     0.000181
      f-2     :     0.000054
      f+3     :     0.000114
      f-3     :     0.000146

 20 F s       :     3.915091  s :     3.915091
      pz      :     1.442740  p :     5.230454
      px      :     1.902437
      py      :     1.885278
      dz2     :     0.008711  d :     0.016458
      dxz     :     0.003894
[...]
      pz      :     0.000007  p :     0.000015
      px      :     0.000004
      py      :     0.000004
      dz2     :    -0.000000  d :    -0.000001
      dxz     :    -0.000001
      dyz     :    -0.000000
      dx2y2   :     0.000001
      dxy     :    -0.000000
      f0      :     0.000000  f :    -0.000000
      f+1     :    -0.000000
      f-1     :    -0.000000
      f+2     :    -0.000000
      f-2     :    -0.000000
      f+3     :    -0.000000
      f-3     :     0.000000

 16 F s       :     0.000013  s :     0.000013
      pz      :     0.000008  p :     0.000054
      px      :     0.000018
      py      :     0.000027
      dz2     :    -0.000000  d :     0.000002
      dxz     :     0.000002
      dyz     :    -0.000000
      dx2y2   :     0.000001
      dxy     :    -0.000000
      f0      :     0.000000  f :    -0.000000
      f+1     :    -0.000000
      f-1     :    -0.000000
      f+2     :    -0.000000
      f-2     :    -0.000000
      f+3     :     0.000000
      f-3     :     0.000000

 17 F s       :     0.000002  s :     0.000002
      pz      :    -0.000001  p :     0.000009
      px      :     0.000006
      py      :     0.000004
      dz2     :     0.000000  d :     0.000000
      dxz     :     0.000000
      dyz     :     0.000000
      dx2y2   :     0.000000
      dxy     :    -0.000000
      f0      :     0.000000  f :    -0.000000
      f+1     :     0.000000
      f-1     :    -0.000000
      f+2     :    -0.000000
      f-2     :    -0.000000
      f+3     :     0.000000
      f-3     :    -0.000000

 18 F s       :     0.000000  s :     0.000000
      pz      :     0.000001  p :     0.000009
      px      :     0.000008
      py      :    -0.000000
      dz2     :     0.000000  d :    -0.000000
      dxz     :    -0.000000
      dyz     :    -0.000000
      dx2y2   :     0.000000
      dxy     :    -0.000000
      f0      :    -0.000000  f :    -0.000000
      f+1     :    -0.000000
      f-1     :     0.000000
      f+2     :     0.000000
      f-2     :    -0.000000
      f+3     :     0.000000
      f-3     :    -0.000000

 19 F s       :     0.000000  s :     0.000000
      pz      :    -0.000000  p :     0.000001
      px      :     0.000001
      py      :     0.000000
      dz2     :     0.000000  d :     0.000000
      dxz     :     0.000000
      dyz     :    -0.000000
      dx2y2   :     0.000000
      dxy     :     0.000000
      f0      :    -0.000000  f :    -0.000000
      f+1     :     0.000000
      f-1     :    -0.000000
      f+2     :     0.000000
      f-2     :    -0.000000
      f+3     :    -0.000000
      f-3     :    -0.000000

 20 F s       :    -0.000000  s :    -0.000000
      pz      :     0.000000  p :     0.000001
      px      :     0.000000
      py      :     0.000000
      dz2     :    -0.000000  d :    -0.000000
      dxz     :    -0.000000
      dyz     :    -0.000000
      dx2y2   :     0.000000
      dxy     :     0.000000
      f0      :    -0.000000  f :    -0.000000
      f+1     :    -0.000000
      f-1     :    -0.000000
      f+2     :     0.000000
      f-2     :    -0.000000
      f+3     :     0.000000
      f-3     :     0.000000

 21 F s       :     0.000000  s :     0.000000
      pz      :    -0.000000  p :     0.000000
      px      :     0.000000
      py      :     0.000000
      dz2     :    -0.000000  d :    -0.000000
      dxz     :    -0.000000
      dyz     :     0.000000
      dx2y2   :     0.000000
      dxy     :    -0.000000
      f0      :    -0.000000  f :    -0.000000
      f+1     :    -0.000000
      f-1     :    -0.000000
      f+2     :    -0.000000
      f-2     :     0.000000
      f+3     :    -0.000000
      f-3     :    -0.000000

 22 F s       :    -0.000000  s :    -0.000000
      pz      :     0.000000  p :    -0.000001
      px      :    -0.000001
      py      :     0.000000
      dz2     :    -0.000000  d :    -0.000000
      dxz     :    -0.000000
      dyz     :     0.000000
      dx2y2   :    -0.000000
      dxy     :    -0.000000
      f0      :    -0.000000  f :    -0.000000
      f+1     :    -0.000000
      f-1     :    -0.000000
      f+2     :    -0.000000
      f-2     :     0.000000
      f+3     :    -0.000000
      f-3     :    -0.000000

 23 F s       :     0.000000  s :     0.000000
      pz      :     0.000000  p :     0.000000
      px      :     0.000000
      py      :    -0.000000
      dz2     :    -0.000000  d :    -0.000000
      dxz     :    -0.000000
      dyz     :    -0.000000
      dx2y2   :     0.000000
      dxy     :     0.000000
      f0      :    -0.000000  f :    -0.000000
      f+1     :    -0.000000
      f-1     :    -0.000000
      f+2     :     0.000000
      f-2     :    -0.000000
      f+3     :     0.000000
      f-3     :    -0.000000

 24 H s       :    -0.001333  s :    -0.001333
      pz      :     0.000547  p :     0.000592
      px      :     0.000006
      py      :     0.000038



                      *****************************
                      * MAYER POPULATION ANALYSIS *
                      *****************************

  NA   - Mulliken gross atomic population
  ZA   - Total nuclear charge
  QA   - Mulliken gross atomic charge
  VA   - Mayer's total valence
  BVA  - Mayer's bonded valence
  FA   - Mayer's free valence

  ATOM       NA         ZA         QA         VA         BVA        FA
  0 C      5.7398     6.0000     0.2602     4.4455     4.4414     0.0041
  1 O      8.3774     8.0000    -0.3774     2.1357     2.1354     0.0003
  2 O      8.3222     8.0000    -0.3222     2.1697     2.1461     0.0236
  3 C      5.8073     6.0000     0.1927     3.7488     3.2735     0.4753
  4 C      5.6228     6.0000     0.3772     4.1842     4.1820     0.0022
  5 C      5.6629     6.0000     0.3371     4.1417     4.1416     0.0000
  6 C      5.6641     6.0000     0.3359     4.1851     4.1851     0.0000
  7 C      5.6876     6.0000     0.3124     4.1289     4.1289     0.0000
  8 C      5.6757     6.0000     0.3243     4.1767     4.1767     0.0000
  9 C      5.5240     6.0000     0.4760     4.5135     4.5135     0.0000
 10 F      9.1410     9.0000    -0.1410     1.1962     1.1850     0.0111
 11 F      9.1723     9.0000    -0.1723     1.1351     1.1349     0.0002
 12 F      9.1810     9.0000    -0.1810     1.1215     1.1207     0.0008
 13 F      9.1711     9.0000    -0.1711     1.1465     1.1465     0.0000
 14 F      9.1704     9.0000    -0.1704     1.1480     1.1480     0.0000
 15 F      9.1668     9.0000    -0.1668     1.1521     1.1521     0.0000
 16 F      9.1657     9.0000    -0.1657     1.1546     1.1546     0.0000
 17 F      9.1673     9.0000    -0.1673     1.1542     1.1542     0.0000
 18 F      9.1666     9.0000    -0.1666     1.1529     1.1529    -0.0000
 19 F      9.1651     9.0000    -0.1651     1.1544     1.1544     0.0000
 20 F      9.1623     9.0000    -0.1623     1.1555     1.1555     0.0000
 21 F      9.1549     9.0000    -0.1549     1.1634     1.1634     0.0000
 22 F      9.1520     9.0000    -0.1520     1.1685     1.1685     0.0000
 23 F      9.1523     9.0000    -0.1523     1.1670     1.1670    -0.0000
 24 H      0.6273     1.0000     0.3727     0.8878     0.8878     0.0000

  Mayer bond orders larger than 0.100000
B(  0-C ,  1-O ) :   1.2825 B(  0-C ,  2-O ) :   1.9851 B(  0-C ,  3-C ) :   1.1161 
B(  1-O , 24-H ) :   0.8306 B(  3-C ,  4-C ) :   1.0134 B(  3-C , 10-F ) :   1.1118 
B(  4-C ,  5-C ) :   0.9433 B(  4-C , 11-F ) :   1.0620 B(  4-C , 12-F ) :   1.0595 
B(  5-C ,  6-C ) :   0.9460 B(  5-C , 13-F ) :   1.0669 B(  5-C , 14-F ) :   1.0799 
B(  6-C ,  7-C ) :   0.9321 B(  6-C , 15-F ) :   1.0870 B(  6-C , 16-F ) :   1.0874 
B(  7-C ,  8-C ) :   0.9256 B(  7-C , 17-F ) :   1.0828 B(  7-C , 18-F ) :   1.0876 
B(  8-C ,  9-C ) :   0.9695 B(  8-C , 19-F ) :   1.0875 B(  8-C , 20-F ) :   1.0980 
B(  9-C , 21-F ) :   1.1431 B(  9-C , 22-F ) :   1.1490 B(  9-C , 23-F ) :   1.1559 


-------
TIMINGS
-------

Total SCF time: 0 days 0 hours 0 min 37 sec 

Total time                  ....      37.401 sec
Sum of individual times     ....      36.303 sec  ( 97.1%)

SCF preparation             ....       1.388 sec  (  3.7%)
Fock matrix formation       ....      30.717 sec  ( 82.1%)
  Startup                   ....       0.153 sec  (  0.5% of F)
  Split-RI-J                ....       1.847 sec  (  6.0% of F)
  Chain of spheres X        ....      21.985 sec  ( 71.6% of F)
  XC integration            ....       4.758 sec  ( 15.5% of F)
    XC Preparation          ....       0.000 sec  (  0.0% of XC)
    Basis function eval.    ....       0.443 sec  (  9.3% of XC)
    Density eval.           ....       0.960 sec  ( 20.2% of XC)
    XC-Functional eval.     ....       0.041 sec  (  0.9% of XC)
    XC-Potential eval.      ....       1.091 sec  ( 22.9% of XC)
  CPCM terms                ....       1.580 sec  (  5.1% of F)
Diagonalization             ....       0.000 sec  (  0.0%)
Density matrix formation    ....       0.347 sec  (  0.9%)
Total Energy calculation    ....       0.222 sec  (  0.6%)
Population analysis         ....       0.427 sec  (  1.1%)
Orbital Transformation      ....       0.428 sec  (  1.1%)
Orbital Orthonormalization  ....       0.000 sec  (  0.0%)
DIIS solution               ....       0.561 sec  (  1.5%)
SOSCF solution              ....       2.213 sec  (  5.9%)
Finished LeanSCF after  37.8 sec

Maximum memory used throughout the entire LEANSCF-calculation: 107.8 MB


-------------------------------------------------------------------------------
                          DFT DISPERSION CORRECTION                            
                                                                               
                              DFTD3 V3.1  Rev 1                                
                          USING Becke-Johnson damping                          
-------------------------------------------------------------------------------
The B3LYP functional is recognized
Active option DFTDOPT                   ...         4   

molecular C6(AA) [au] = 6518.045416 


            DFT-D V3
 parameters
 s6 scaling factor         :     1.0000 
 a1 scaling factor         :     0.3981 
 s8 scaling factor         :     1.9889 
 a2 scaling factor         :     4.4211 
 ad hoc parameters k1-k3   :    16.0000     1.3333    -4.0000 

 Edisp/kcal,au: -26.962467285880  -0.042967422046 
 E6   /kcal   : -12.821435759 
 E8   /kcal   : -14.141031527 
 % E8         :  52.447097577 

-------------------------   ----------------
Dispersion correction           -0.042967422
-------------------------   ----------------


-------------------------   --------------------
FINAL SINGLE POINT ENERGY     -1853.743261527859
-------------------------   --------------------

                                *** OPTIMIZATION RUN DONE ***



           ************************************************************
           *        Program running with 20 parallel MPI-processes    *
           *              working on a common directory               *
           ************************************************************

------------------------------------------------------------------------------
                              ORCA PROPERTY CALCULATIONS
------------------------------------------------------------------------------

GBWName                                 ... rf_mecn_opt_B3L_C2_P_B.gbw
Number of atoms                         ...     25
Number of basis functions               ...    750
Max core memory                         ...   8000 MB

Electric properties:
Dipole moment                           ... YES
Quadrupole moment                       ...  NO
Static polarizability (Dipole/Dipole)   ...  NO
Static polarizability (Dipole/Quad.)    ...  NO
Static polarizability (Quad./Quad.)     ...  NO
Static polarizability (Velocity)        ...  NO

Atomic electric properties:
Dipole moment                           ...  NO
Quadrupole moment                       ...  NO
Static polarizability                   ...  NO

Choice of electric origin               ... Center of mass
Position of electric origin             ...    -0.468871    -0.129205    -0.227630

General magnetic properties:
Magnetizability                         ...  NO

EPR properties:
g-Tensor (aka g-matrix)                 ...  NO
Zero-Field splitting spin-orbit         ...  NO
Zero-field splitting spin-spin          ...  NO
Hyperfine couplings                     ...  NO (   0 nuclei)
Quadrupole couplings                    ...  NO (   0 nuclei)
Contact density                         ...  NO (   0 nuclei)

NMR properties:
Chemical shifts                         ...  NO (   0 nuclei)
Spin-rotation constants                 ...  NO (   0 nuclei)
Spin-spin couplings                     ...  NO (   0 nuclei,    0 pairs)

Choice of magnetic origin               ... GIAO
Position of magnetic origin             ...     0.000000     0.000000     0.000000

Properties with geometric perturbations:
SCF Hessian                             ...  NO
IR spectrum                             ...  NO
VCD spectrum                            ...  NO
X-ray spectroscopy properties:
SCF XES/XAS/RIXS spectra                ...  NO


-------------
DIPOLE MOMENT
-------------

Method             : SCF
Type of density    : Electron Density
Multiplicity       :   2
Irrep              :   0
Energy             : -1853.7002941058135548 Eh
Relativity type    : 
Basis              : AO
                                X                 Y                 Z
Electronic contribution:    -16.796090445      -0.115301515       0.440293436
Nuclear contribution   :     17.679756873      -0.637622485      -0.260066181
                        -----------------------------------------
Total Dipole Moment    :      0.883666427      -0.752924000       0.180227255
                        -----------------------------------------
Magnitude (a.u.)       :      1.174837337
Magnitude (Debye)      :      2.986199193



--------------------
Rotational spectrum 
--------------------
 
Rotational constants in cm-1:             0.023237             0.003944             0.003817 
Rotational constants in MHz :           696.619838           118.239461           114.445764 

Dipole components along the rotational axes: 
x,y,z [a.u.] :    -0.908746    -0.716365     0.203085 
x,y,z [Debye]:    -2.309850    -1.820856     0.516201 

 

Dipole moment calculation done in   0.1 sec 

Maximum memory used throughout the entire PROP-calculation: 55.4 MB

--------------------------------
SUGGESTED CITATIONS FOR THIS RUN
--------------------------------

Below you find a list of papers that are relevant to this ORCA run
We neither can nor want to force you to cite these papers, but we appreciate if you do
You receive ORCA, which is the product of decades of hard work by many enthusiastic individuals, for free
The only thing we kindly ask in return is that you cite our papers,
We deeply appreciate it, if you show your appreciation for ORCA by not just citing the generic ORCA reference.

Please note that relegating all ORCA citations to the supporting information does *not* help us.
SI sections are not indexed - citations you put there will not count into any citation statistics
But we need these citations in order to attract the funding resources that allow us to do what we are doing

Therefore, if you are a happy ORCA user, please consider citing a few of the papers listed below in the main body of your paper

In addition to the list printed below, the program has created the file rf_mecn_opt_B3L_C2_P_B.bibtex that contains the list in bibtex format
You can import this file easily into all common literature databanks and citation aid programs


List of essential papers. We consider these as the minimum necessary citations

  1. Neese,F.
     Software update: the ORCA program system, version 5.0
     WIRES Comput. Molec. Sci., 2022 12(1)e1606
     doi.org/10.1002/wcms.1606

List of papers to cite with high priority. The work reported in these papers was absolutely
necessary for this run to complete.
Our perspective: the developers of density functionals and basis sets usually get cited in chemistry papers
Good! But without the algorithms to do something with them, the functionals or basis sets would not do anything.
Hence, in our opinion, the algorithm design and method developments papers are equally worthy of getting cited

  1. Neese,F.
     An improvement of the resolution of the identity approximation for the formation of the Coulomb matrix
     J. Comp. Chem., 2003 24(14)1740-1747
     doi.org/10.1002/jcc.10318
  2. Neese,F.; Wennmohs,F.; Hansen,A.; Becker,U.
     Efficient, approximate and parallel Hartree-Fock and hybrid DFT calculations. A 'chain-of-spheres' algorithm for the Hartree-Fock exchange
     Chem. Phys., 2009 356(1-3)98-109
     doi.org/10.1016/j.chemphys.2008.10.036
  3. Garcia-Rates,M.; Neese,F.
     Effect of the Solute Cavity on the Solvation Energy and its Derivatives within the Framework of the Gaussian Charge Scheme
     J. Comput. Chem., 2020 41 922-939
     doi.org/10.1002/jcc.26139
  4. Helmich-Paris,B.; de Souza,B.; Neese,F.; Izsák,R.
     An improved chain of spheres for exchange algorithm
     J. Chem. Phys., 2021 155 104109
     doi.org/doi: 10.1063/5.0058766.
  5. Neese,F.
     The SHARK Integral Generation and Digestion System
     J. Comp. Chem., 2022  1-16
     doi.org/10.1002/jcc.26942
  6. Grimme,S.; Antony,J.; Ehrlich,S.; Krieg,H.
     A consistent and accurate ab initio parametrization of density functional dispersion correction (DFT-D) for the 94 elements H-Pu
     J. Chem. Phys., 2010 132 154104
     doi.org/10.1063/1.3382344
  7. Grimme,S.; Ehrlich,S.; Goerigk,L.
     Effect of the damping function in dispersion corrected density functional theory
     J. Comput. Chem., 2011 32(7)1456-1465
     doi.org/10.1002/jcc.21759

List of suggested additional citations. These are papers that are important in the 'surrounding' of 
of this run, or papers that preceded the highly important papers. If you like your results we are grateful for a citation.

  1. Izsak,R.; Neese,F.
     An overlap fitted chain of spheres exchange method
     J. Chem. Phys., 2011 135 144105
     doi.org/10.1063/1.3646921
  2. Izsak,R.; Hansen,A.; Neese,F.
     The resolution of identity and chain of spheres approximations for the LPNO-CCSD singles Fock term
     Molec. Phys., 2012 110 2413-2417
     doi.org/10.1080/00268976.2012.687466
  3. Neese,F.
     The ORCA program system
     WIRES Comput. Molec. Sci., 2012 2(1)73-78
     doi.org/10.1002/wcms.81
  4. Izsak,R.; Neese,F.; Klopper,W.
     Robust fitting techniques in the chain of spheres approximation to the Fock exchange: The role of the complementary space
     J. Chem. Phys., 2013 139 
     doi.org/10.1063/1.4819264
  5. Neese,F.
     Software update: the ORCA program system, version 4.0
     WIRES Comput. Molec. Sci., 2018 8(1)1-6
     doi.org/10.1002/wcms.1327
  6. Neese,F.; Wennmohs,F.; Becker,U.; Riplinger,C.
     The ORCA quantum chemistry program package
     J. Chem. Phys., 2020 152 Art. No. L224108
     doi.org/10.1063/5.0004608

List of optional additional citations

  1. Neese,F.
     Approximate second-order SCF convergence for spin unrestricted wavefunctions
     Chem. Phys. Lett., 2000 325(1-3)93-98
     doi.org/10.1016/s0009-2614(00)00662-x

Timings for individual modules:

Sum of individual times          ...     2672.671 sec (=  44.545 min)
Startup calculation              ...      124.867 sec (=   2.081 min)   4.7 %
SCF iterations                   ...     1899.424 sec (=  31.657 min)  71.1 %
Property calculations            ...        0.929 sec (=   0.015 min)   0.0 %
SCF Gradient evaluation          ...      646.814 sec (=  10.780 min)  24.2 %
Geometry relaxation              ...        0.637 sec (=   0.011 min)   0.0 %
                             ****ORCA TERMINATED NORMALLY****
TOTAL RUN TIME: 0 days 0 hours 44 minutes 55 seconds 184 msec
