
                                 *****************
                                 * O   R   C   A *
                                 *****************

                                            #,                                       
                                            ###                                      
                                            ####                                     
                                            #####                                    
                                            ######                                   
                                           ########,                                 
                                     ,,################,,,,,                         
                               ,,#################################,,                 
                          ,,##########################################,,             
                       ,#########################################, ''#####,          
                    ,#############################################,,   '####,        
                  ,##################################################,,,,####,       
                ,###########''''           ''''###############################       
              ,#####''   ,,,,##########,,,,          '''####'''          '####       
            ,##' ,,,,###########################,,,                        '##       
           ' ,,###''''                  '''############,,,                           
         ,,##''                                '''############,,,,        ,,,,,,###''
      ,#''                                            '''#######################'''  
     '                                                          ''''####''''         
             ,#######,   #######,   ,#######,      ##                                
            ,#'     '#,  ##    ##  ,#'     '#,    #''#        ######   ,####,        
            ##       ##  ##   ,#'  ##            #'  '#       #        #'  '#        
            ##       ##  #######   ##           ,######,      #####,   #    #        
            '#,     ,#'  ##    ##  '#,     ,#' ,#      #,         ##   #,  ,#        
             '#######'   ##     ##  '#######'  #'      '#     #####' # '####'        



                  #######################################################
                  #                        -***-                        #
                  #          Department of theory and spectroscopy      #
                  #    Directorship and core code : Frank Neese         #
                  #        Max Planck Institute fuer Kohlenforschung    #
                  #                Kaiser Wilhelm Platz 1               #
                  #                 D-45470 Muelheim/Ruhr               #
                  #                      Germany                        #
                  #                                                     #
                  #                  All rights reserved                #
                  #                        -***-                        #
                  #######################################################


                         Program Version 5.0.3 -  RELEASE  -


 With contributions from (in alphabetic order):
   Daniel Aravena         : Magnetic Suceptibility
   Michael Atanasov       : Ab Initio Ligand Field Theory (pilot matlab implementation)
   Alexander A. Auer      : GIAO ZORA, VPT2 properties, NMR spectrum
   Ute Becker             : Parallelization
   Giovanni Bistoni       : ED, misc. LED, open-shell LED, HFLD
   Martin Brehm           : Molecular dynamics
   Dmytro Bykov           : SCF Hessian
   Vijay G. Chilkuri      : MRCI spin determinant printing, contributions to CSF-ICE
   Dipayan Datta          : RHF DLPNO-CCSD density
   Achintya Kumar Dutta   : EOM-CC, STEOM-CC
   Dmitry Ganyushin       : Spin-Orbit,Spin-Spin,Magnetic field MRCI
   Miquel Garcia          : C-PCM and meta-GGA Hessian, CC/C-PCM, Gaussian charge scheme
   Yang Guo               : DLPNO-NEVPT2, F12-NEVPT2, CIM, IAO-localization
   Andreas Hansen         : Spin unrestricted coupled pair/coupled cluster methods
   Benjamin Helmich-Paris : MC-RPA, TRAH-SCF, COSX integrals
   Lee Huntington         : MR-EOM, pCC
   Robert Izsak           : Overlap fitted RIJCOSX, COSX-SCS-MP3, EOM
   Marcus Kettner         : VPT2
   Christian Kollmar      : KDIIS, OOCD, Brueckner-CCSD(T), CCSD density, CASPT2, CASPT2-K
   Simone Kossmann        : Meta GGA functionals, TD-DFT gradient, OOMP2, MP2 Hessian
   Martin Krupicka        : Initial AUTO-CI
   Lucas Lang             : DCDCAS
   Marvin Lechner         : AUTO-CI (C++ implementation), FIC-MRCC
   Dagmar Lenk            : GEPOL surface, SMD
   Dimitrios Liakos       : Extrapolation schemes; Compound Job, initial MDCI parallelization
   Dimitrios Manganas     : Further ROCIS development; embedding schemes
   Dimitrios Pantazis     : SARC Basis sets
   Anastasios Papadopoulos: AUTO-CI, single reference methods and gradients
   Taras Petrenko         : DFT Hessian,TD-DFT gradient, ASA, ECA, R-Raman, ABS, FL, XAS/XES, NRVS
   Peter Pinski           : DLPNO-MP2, DLPNO-MP2 Gradient
   Christoph Reimann      : Effective Core Potentials
   Marius Retegan         : Local ZFS, SOC
   Christoph Riplinger    : Optimizer, TS searches, QM/MM, DLPNO-CCSD(T), (RO)-DLPNO pert. Triples
   Tobias Risthaus        : Range-separated hybrids, TD-DFT gradient, RPA, STAB
   Michael Roemelt        : Original ROCIS implementation
   Masaaki Saitow         : Open-shell DLPNO-CCSD energy and density
   Barbara Sandhoefer     : DKH picture change effects
   Avijit Sen             : IP-ROCIS
   Kantharuban Sivalingam : CASSCF convergence, NEVPT2, FIC-MRCI
   Bernardo de Souza      : ESD, SOC TD-DFT
   Georgi Stoychev        : AutoAux, RI-MP2 NMR, DLPNO-MP2 response
   Willem Van den Heuvel  : Paramagnetic NMR
   Boris Wezisla          : Elementary symmetry handling
   Frank Wennmohs         : Technical directorship


 We gratefully acknowledge several colleagues who have allowed us to
 interface, adapt or use parts of their codes:
   Stefan Grimme, W. Hujo, H. Kruse, P. Pracht,  : VdW corrections, initial TS optimization,
                  C. Bannwarth, S. Ehlert          DFT functionals, gCP, sTDA/sTD-DF
   Ed Valeev, F. Pavosevic, A. Kumar             : LibInt (2-el integral package), F12 methods
   Garnet Chan, S. Sharma, J. Yang, R. Olivares  : DMRG
   Ulf Ekstrom                                   : XCFun DFT Library
   Mihaly Kallay                                 : mrcc  (arbitrary order and MRCC methods)
   Jiri Pittner, Ondrej Demel                    : Mk-CCSD
   Frank Weinhold                                : gennbo (NPA and NBO analysis)
   Christopher J. Cramer and Donald G. Truhlar   : smd solvation model
   Lars Goerigk                                  : TD-DFT with DH, B97 family of functionals
   V. Asgeirsson, H. Jonsson                     : NEB implementation
   FAccTs GmbH                                   : IRC, NEB, NEB-TS, DLPNO-Multilevel, CI-OPT
                                                   MM, QMMM, 2- and 3-layer-ONIOM, Crystal-QMMM,
                                                   LR-CPCM, SF, NACMEs, symmetry and pop. for TD-DFT,
                                                   nearIR, NL-DFT gradient (VV10), updates on ESD,
                                                   ML-optimized integration grids
   S Lehtola, MJT Oliveira, MAL Marques          : LibXC Library
   Liviu Ungur et al                             : ANISO software


 Your calculation uses the libint2 library for the computation of 2-el integrals
 For citations please refer to: http://libint.valeyev.net

 Your ORCA version has been built with support for libXC version: 5.1.0
 For citations please refer to: https://tddft.org/programs/libxc/

 This ORCA versions uses:
   CBLAS   interface :  Fast vector & matrix operations
   LAPACKE interface :  Fast linear algebra routines
   SCALAPACK package :  Parallel linear algebra routines
   Shared memory     :  Shared parallel matrices
   BLAS/LAPACK       :  OpenBLAS 0.3.15  USE64BITINT DYNAMIC_ARCH NO_AFFINITY SkylakeX SINGLE_THREADED
        Core in use  :  SkylakeX
   Copyright (c) 2011-2014, The OpenBLAS Project


Your calculation utilizes the atom-pairwise dispersion correction
with the Becke-Johnson damping scheme (D3BJ)
Cite in your paper:
S.Grimme, S.Ehrlich, L.Goerigk, J Comput Chem, (2011), 32, 1456–1465 
S.Grimme, J.Antony, S.Ehrlich and H.Krieg, J.Chem.Phys., 132, (2010), 154104 
   

Your calculation utilizes the SMD solvation module
Please cite in your paper:
A.V. Marenich, C.J. Cramer, D.G. Truhlar J. Phys. Chem. B, 113, (2009), 6378 

================================================================================

----- Orbital basis set information -----
Your calculation utilizes the basis: def2-TZVP
   F. Weigend and R. Ahlrichs, Phys. Chem. Chem. Phys. 7, 3297 (2005).

----- AuxJ basis set information -----
Your calculation utilizes the auxiliary basis: def2/J
   F. Weigend, Phys. Chem. Chem. Phys. 8, 1057 (2006).

================================================================================
                                        WARNINGS
                       Please study these warnings very carefully!
================================================================================


WARNING: your system is open-shell and RHF/RKS was chosen
  ===> : WILL SWITCH to UHF/UKS


WARNING: Geometry Optimization
  ===> : Switching off AutoStart
         For restart on a previous wavefunction, please use MOREAD

INFO   : the flag for use of the SHARK integral package has been found!

================================================================================
                                       INPUT FILE
================================================================================
NAME = rf_mecn_opt_B3L_C4_D_B.inp
|  1> !B3LYP def2-TZVP opt d3 TightSCF SlowConv defgrid2
|  2>  
|  3> %pal
|  4> nprocs 20
|  5> end
|  6>  
|  7> %scf
|  8> MaxIter 1500
|  9> end
| 10>  
| 11> %maxcore 8000
| 12>  
| 13> !CPCM
| 14> %cpcm smd true
| 15> SMDsolvent "ACETONITRILE"
| 16> end
| 17>  
| 18> * xyz -1 2
| 19> 6        4.790427000     -0.033865800     -0.529943200
| 20> 8        5.449345000     -1.206924000     -0.894594600
| 21> 8        4.978223000      1.323071000     -0.737377200
| 22> 6        3.506687600     -0.338741600      0.376153800
| 23> 6        2.222300000      0.400524800     -0.110681600
| 24> 6        0.900506800     -0.386389800      0.175703000
| 25> 6       -0.395261200      0.487294000      0.065549000
| 26> 6       -1.705693600     -0.364773800     -0.068373600
| 27> 6       -3.005136200      0.445344800      0.258164000
| 28> 6       -4.319880200     -0.214526000     -0.270540800
| 29> 9        3.211587400     -1.692050400      0.412735200
| 30> 9        3.741061800      0.055285800      1.689948800
| 31> 9        2.125696800      1.616867800      0.483236600
| 32> 9        2.314152400      0.589704000     -1.455769200
| 33> 9        0.958350600     -0.884509000      1.435093400
| 34> 9       -0.498373400      1.260265600      1.173340200
| 35> 9       -0.299075000      1.289512600     -1.020910800
| 36> 9       -1.641790400     -1.418189000      0.779523800
| 37> 9       -1.792381400     -0.831391600     -1.336863600
| 38> 9       -2.918792200      1.679227200     -0.295171200
| 39> 9       -3.119771000      0.573779800      1.598579800
| 40> 9       -4.383115600     -1.504377600      0.089127600
| 41> 9       -5.365669800      0.430528600      0.260394200
| 42> 9       -4.396020400     -0.128550600     -1.602941800
| 43> *
| 44> 
| 45>                          ****END OF INPUT****
================================================================================

                       *****************************
                       * Geometry Optimization Run *
                       *****************************

Geometry optimization settings:
Update method            Update   .... BFGS
Choice of coordinates    CoordSys .... Z-matrix Internals
Initial Hessian          InHess   .... Almoef's Model

Convergence Tolerances:
Energy Change            TolE     ....  5.0000e-06 Eh
Max. Gradient            TolMAXG  ....  3.0000e-04 Eh/bohr
RMS Gradient             TolRMSG  ....  1.0000e-04 Eh/bohr
Max. Displacement        TolMAXD  ....  4.0000e-03 bohr
RMS Displacement         TolRMSD  ....  2.0000e-03 bohr
Strict Convergence                ....  False
------------------------------------------------------------------------------
                        ORCA OPTIMIZATION COORDINATE SETUP
------------------------------------------------------------------------------

The optimization will be done in new redundant internal coordinates
Making redundant internal coordinates   ...  (new redundants) done
Evaluating the initial hessian          ...  (Almloef) done
Evaluating the coordinates              ...  done
Calculating the B-matrix                .... done
Calculating the G-matrix                .... done
Diagonalizing the G-matrix              .... done
Small eigenvalue found = 5.678e-03
Small eigenvalue found = 1.672e-02
The first mode is                       ....   53
The number of degrees of freedom        ....   66

    -----------------------------------------------------------------
                    Redundant Internal Coordinates


    -----------------------------------------------------------------
         Definition                    Initial Value    Approx d2E/dq
    -----------------------------------------------------------------
      1. B(O   1,C   0)                  1.3940         0.551454   
      2. B(O   2,C   0)                  1.3855         0.568952   
      3. B(C   3,C   0)                  1.6006         0.288221   
      4. B(C   4,C   3)                  1.5599         0.334759   
      5. B(C   5,C   4)                  1.5647         0.328824   
      6. B(C   6,C   5)                  1.5667         0.326486   
      7. B(C   7,C   6)                  1.5688         0.323927   
      8. B(C   8,C   7)                  1.5657         0.327637   
      9. B(C   9,C   8)                  1.5632         0.330714   
     10. B(F  10,C   3)                  1.3856         0.528443   
     11. B(F  11,C   3)                  1.3915         0.517117   
     12. B(F  12,C   4)                  1.3570         0.586881   
     13. B(F  13,C   4)                  1.3614         0.577499   
     14. B(F  14,C   5)                  1.3556         0.590092   
     15. B(F  15,C   6)                  1.3547         0.591865   
     16. B(F  16,C   6)                  1.3540         0.593567   
     17. B(F  17,C   7)                  1.3538         0.593973   
     18. B(F  18,C   7)                  1.3544         0.592672   
     19. B(F  19,C   8)                  1.3550         0.591238   
     20. B(F  20,C   8)                  1.3514         0.599114   
     21. B(F  21,C   9)                  1.3406         0.623533   
     22. B(F  22,C   9)                  1.3385         0.628179   
     23. B(F  23,C   9)                  1.3373         0.630929   
     24. A(O   1,C   0,C   3)          111.5249         0.369222   
     25. A(O   1,C   0,O   2)          136.1318         0.413163   
     26. A(O   2,C   0,C   3)          112.3347         0.371210   
     27. A(C   4,C   3,F  10)          107.2033         0.374492   
     28. A(C   0,C   3,C   4)          113.1687         0.341363   
     29. A(C   0,C   3,F  10)          111.8265         0.364982   
     30. A(C   4,C   3,F  11)          107.4072         0.373095   
     31. A(C   0,C   3,F  11)          110.2099         0.363632   
     32. A(F  10,C   3,F  11)          106.7094         0.399684   
     33. A(C   3,C   4,F  12)          110.2926         0.381351   
     34. A(C   3,C   4,C   5)          113.5839         0.349005   
     35. A(F  12,C   4,F  13)          108.2194         0.415201   
     36. A(C   3,C   4,F  13)          108.5818         0.380286   
     37. A(C   5,C   4,F  13)          107.9208         0.379109   
     38. A(C   5,C   4,F  12)          108.0911         0.380169   
     39. A(C   4,C   5,C   6)          113.9128         0.347536   
     40. A(C   4,C   5,F  14)          108.5900         0.380529   
     41. A(C   6,C   5,F  14)          107.7906         0.380059   
     42. A(C   5,C   6,C   7)          113.2023         0.346660   
     43. A(F  15,C   6,F  16)          108.8752         0.417862   
     44. A(C   7,C   6,F  16)          108.2186         0.379927   
     45. A(C   5,C   6,F  16)          109.1523         0.380446   
     46. A(C   7,C   6,F  15)          108.4284         0.379738   
     47. A(C   5,C   6,F  15)          108.8835         0.380256   
     48. A(C   8,C   7,F  18)          108.6915         0.380579   
     49. A(C   6,C   7,F  18)          108.6955         0.379828   
     50. A(C   8,C   7,F  17)          108.1296         0.380723   
     51. A(C   6,C   7,F  17)          109.2524         0.379972   
     52. A(C   6,C   7,C   8)          113.2298         0.346865   
     53. A(F  17,C   7,F  18)          108.7561         0.418014   
     54. A(F  19,C   8,F  20)          108.8987         0.418476   
     55. A(C   7,C   8,C   9)          114.1471         0.348078   
     56. A(C   9,C   8,F  20)          107.7127         0.381912   
     57. A(C   7,C   8,F  20)          109.0521         0.381293   
     58. A(C   9,C   8,F  19)          107.4499         0.381036   
     59. A(C   7,C   8,F  19)          109.4572         0.380419   
     60. A(F  22,C   9,F  23)          108.6464         0.426961   
     61. A(F  21,C   9,F  23)          109.0552         0.426394   
     62. A(C   8,C   9,F  23)          110.9604         0.385362   
     63. A(F  21,C   9,F  22)          108.6877         0.426061   
     64. A(C   8,C   9,F  22)          108.6349         0.385069   
     65. A(C   8,C   9,F  21)          110.7995         0.384572   
     66. D(F  11,C   3,C   0,O   1)    108.6317         0.006601   
     67. D(F  10,C   3,C   0,O   2)    171.0025         0.006601   
     68. D(C   4,C   3,C   0,O   1)   -131.0839         0.006601   
     69. D(F  11,C   3,C   0,O   2)    -70.4768         0.006601   
     70. D(C   4,C   3,C   0,O   2)     49.8076         0.006601   
     71. D(F  10,C   3,C   0,O   1)     -9.8890         0.006601   
     72. D(F  12,C   4,C   3,F  10)    146.3851         0.009100   
     73. D(F  12,C   4,C   3,F  11)     32.0233         0.009100   
     74. D(C   5,C   4,C   3,C   0)    148.6429         0.009100   
     75. D(F  12,C   4,C   3,C   0)    -89.8453         0.009100   
     76. D(F  13,C   4,C   3,C   0)     28.5784         0.009100   
     77. D(C   5,C   4,C   3,F  10)     24.8733         0.009100   
     78. D(F  13,C   4,C   3,F  10)    -95.1911         0.009100   
     79. D(F  13,C   4,C   3,F  11)    150.4470         0.009100   
     80. D(C   5,C   4,C   3,F  11)    -89.4885         0.009100   
     81. D(F  14,C   5,C   4,F  13)    164.2540         0.008276   
     82. D(F  14,C   5,C   4,F  12)    -78.9166         0.008276   
     83. D(F  14,C   5,C   4,C   3)     43.8158         0.008276   
     84. D(C   6,C   5,C   4,F  13)    -75.6292         0.008276   
     85. D(C   6,C   5,C   4,F  12)     41.2001         0.008276   
     86. D(C   6,C   5,C   4,C   3)    163.9326         0.008276   
     87. D(F  15,C   6,C   5,F  14)     44.2190         0.008172   
     88. D(F  15,C   6,C   5,C   4)    -76.3465         0.008172   
     89. D(F  16,C   6,C   5,C   4)     42.3872         0.008172   
     90. D(C   7,C   6,C   5,F  14)    -76.4529         0.008172   
     91. D(C   7,C   6,C   5,C   4)    162.9815         0.008172   
     92. D(F  16,C   6,C   5,F  14)    162.9527         0.008172   
     93. D(F  17,C   7,C   6,C   5)     41.7939         0.008578   
     94. D(C   8,C   7,C   6,F  16)    -76.5134         0.008578   
     95. D(C   8,C   7,C   6,F  15)     41.4341         0.008578   
     96. D(C   8,C   7,C   6,C   5)    162.3638         0.008578   
     97. D(F  18,C   7,C   6,F  16)     44.3783         0.008578   
     98. D(F  18,C   7,C   6,F  15)    162.3257         0.008578   
     99. D(F  18,C   7,C   6,C   5)    -76.7446         0.008578   
    100. D(F  17,C   7,C   6,F  16)    162.9167         0.008578   
    101. D(F  17,C   7,C   6,F  15)    -79.1358         0.008578   
    102. D(F  20,C   8,C   7,F  18)    162.0243         0.008755   
    103. D(F  20,C   8,C   7,F  17)     44.1231         0.008755   
    104. D(F  20,C   8,C   7,C   6)    -77.0818         0.008755   
    105. D(F  19,C   8,C   7,F  18)    -78.9355         0.008755   
    106. D(F  19,C   8,C   7,F  17)    163.1633         0.008755   
    107. D(F  19,C   8,C   7,C   6)     41.9584         0.008755   
    108. D(C   9,C   8,C   7,F  18)     41.5227         0.008755   
    109. D(C   9,C   8,C   7,F  17)    -76.3785         0.008755   
    110. D(C   9,C   8,C   7,C   6)    162.4166         0.008755   
    111. D(F  23,C   9,C   8,F  20)    167.4828         0.008903   
    112. D(F  23,C   9,C   8,F  19)     50.3013         0.008903   
    113. D(F  23,C   9,C   8,C   7)    -71.2711         0.008903   
    114. D(F  22,C   9,C   8,F  20)     48.1091         0.008903   
    115. D(F  22,C   9,C   8,F  19)    -69.0724         0.008903   
    116. D(F  22,C   9,C   8,C   7)    169.3552         0.008903   
    117. D(F  21,C   9,C   8,F  20)    -71.2185         0.008903   
    118. D(F  21,C   9,C   8,F  19)    171.5999         0.008903   
    119. D(F  21,C   9,C   8,C   7)     50.0276         0.008903   
    -----------------------------------------------------------------

Number of atoms                         .... 24
Number of degrees of freedom            .... 119

         *************************************************************
         *                GEOMETRY OPTIMIZATION CYCLE   1            *
         *************************************************************
---------------------------------
CARTESIAN COORDINATES (ANGSTROEM)
---------------------------------
  C      4.790427   -0.033866   -0.529943
  O      5.449345   -1.206924   -0.894595
  O      4.978223    1.323071   -0.737377
  C      3.506688   -0.338742    0.376154
  C      2.222300    0.400525   -0.110682
  C      0.900507   -0.386390    0.175703
  C     -0.395261    0.487294    0.065549
  C     -1.705694   -0.364774   -0.068374
  C     -3.005136    0.445345    0.258164
  C     -4.319880   -0.214526   -0.270541
  F      3.211587   -1.692050    0.412735
  F      3.741062    0.055286    1.689949
  F      2.125697    1.616868    0.483237
  F      2.314152    0.589704   -1.455769
  F      0.958351   -0.884509    1.435093
  F     -0.498373    1.260266    1.173340
  F     -0.299075    1.289513   -1.020911
  F     -1.641790   -1.418189    0.779524
  F     -1.792381   -0.831392   -1.336864
  F     -2.918792    1.679227   -0.295171
  F     -3.119771    0.573780    1.598580
  F     -4.383116   -1.504378    0.089128
  F     -5.365670    0.430529    0.260394
  F     -4.396020   -0.128551   -1.602942

----------------------------
CARTESIAN COORDINATES (A.U.)
----------------------------
  NO LB      ZA    FRAG     MASS         X           Y           Z
   0 C     6.0000    0    12.011    9.052595   -0.063997   -1.001448
   1 O     8.0000    0    15.999   10.297770   -2.280756   -1.690539
   2 O     8.0000    0    15.999    9.407478    2.500242   -1.393441
   3 C     6.0000    0    12.011    6.626679   -0.640129    0.710828
   4 C     6.0000    0    12.011    4.199538    0.756882   -0.209158
   5 C     6.0000    0    12.011    1.701711   -0.730171    0.332031
   6 C     6.0000    0    12.011   -0.746935    0.920852    0.123870
   7 C     6.0000    0    12.011   -3.223294   -0.689323   -0.129207
   8 C     6.0000    0    12.011   -5.678884    0.841580    0.487859
   9 C     6.0000    0    12.011   -8.163391   -0.405395   -0.511248
  10 F     9.0000    0    18.998    6.069021   -3.197512    0.779956
  11 F     9.0000    0    18.998    7.069582    0.104475    3.193540
  12 F     9.0000    0    18.998    4.016985    3.055437    0.913185
  13 F     9.0000    0    18.998    4.373114    1.114379   -2.751005
  14 F     9.0000    0    18.998    1.811020   -1.671480    2.711934
  15 F     9.0000    0    18.998   -0.941789    2.381557    2.217292
  16 F     9.0000    0    18.998   -0.565170    2.436826   -1.929242
  17 F     9.0000    0    18.998   -3.102534   -2.679989    1.473086
  18 F     9.0000    0    18.998   -3.387110   -1.571102   -2.526306
  19 F     9.0000    0    18.998   -5.515718    3.173280   -0.557793
  20 F     9.0000    0    18.998   -5.895513    1.084287    3.020878
  21 F     9.0000    0    18.998   -8.282888   -2.842862    0.168427
  22 F     9.0000    0    18.998  -10.139646    0.813581    0.492074
  23 F     9.0000    0    18.998   -8.307275   -0.242925   -3.029121

--------------------------------
INTERNAL COORDINATES (ANGSTROEM)
--------------------------------
 C      0   0   0     0.000000000000     0.00000000     0.00000000
 O      1   0   0     1.393990356793     0.00000000     0.00000000
 O      1   2   0     1.385486802956   136.13177198     0.00000000
 C      1   2   3     1.600608594862   111.52489317   181.18992567
 C      4   1   2     1.559863783763   113.16872737   228.91614990
 C      5   4   1     1.564732561934   113.58394786   148.64287440
 C      6   5   4     1.566675459667   113.91280616   163.93256239
 C      7   6   5     1.568817348692   113.20226571   162.98152714
 C      8   7   6     1.565717094808   113.22984595   162.36375422
 C      9   8   7     1.563173062643   114.14707705   162.41661495
 F      4   1   2     1.385592665621   111.82651119   350.11101305
 F      4   1   2     1.391490625050   110.20991618   108.63170802
 F      5   4   1     1.357041377479   110.29260564   270.15468021
 F      5   4   1     1.361428031433   108.58179722    28.57841973
 F      6   5   4     1.355556277776   108.59004089    43.81583148
 F      7   6   5     1.354739297058   108.88346185   283.65347401
 F      7   6   5     1.353957667090   109.15230848    42.38718856
 F      8   7   6     1.353771473879   109.25240264    41.79387651
 F      8   7   6     1.354368423305   108.69554158   283.25540020
 F      9   8   7     1.355028009646   109.45719767    41.95842364
 F      9   8   7     1.351425618925   109.05210362   282.91820052
 F     10   9   8     1.340551089588   110.79953142    50.02756898
 F     10   9   8     1.338530275591   108.63493714   169.35523750
 F     10   9   8     1.337341214598   110.96044107   288.72891896

---------------------------
INTERNAL COORDINATES (A.U.)
---------------------------
 C      0   0   0     0.000000000000     0.00000000     0.00000000
 O      1   0   0     2.634260007667     0.00000000     0.00000000
 O      1   2   0     2.618190619750   136.13177198     0.00000000
 C      1   2   3     3.024711891890   111.52489317   181.18992567
 C      4   1   2     2.947715357535   113.16872737   228.91614990
 C      5   4   1     2.956916014884   113.58394786   148.64287440
 C      6   5   4     2.960587559506   113.91280616   163.93256239
 C      7   6   5     2.964635143173   113.20226571   162.98152714
 C      8   7   6     2.958776512386   113.22984595   162.36375422
 C      9   8   7     2.953968988318   114.14707705   162.41661495
 F      4   1   2     2.618390671194   111.82651119   350.11101305
 F      4   1   2     2.629536199263   110.20991618   108.63170802
 F      5   4   1     2.564436555835   110.29260564   270.15468021
 F      5   4   1     2.572726130452   108.58179722    28.57841973
 F      6   5   4     2.561630124115   108.59004089    43.81583148
 F      7   6   5     2.560086254300   108.88346185   283.65347401
 F      7   6   5     2.558609187723   109.15230848    42.38718856
 F      8   7   6     2.558257333546   109.25240264    41.79387651
 F      8   7   6     2.559385404477   108.69554158   283.25540020
 F      9   8   7     2.560631842023   109.45719767    41.95842364
 F      9   8   7     2.553824310132   109.05210362   282.91820052
 F     10   9   8     2.533274427850   110.79953142    50.02756898
 F     10   9   8     2.529455642830   108.63493714   169.35523750
 F     10   9   8     2.527208643196   110.96044107   288.72891896

---------------------
BASIS SET INFORMATION
---------------------
There are 3 groups of distinct atoms

 Group   1 Type C   : 11s6p2d1f contracted to 5s3p2d1f pattern {62111/411/11/1}
 Group   2 Type O   : 11s6p2d1f contracted to 5s3p2d1f pattern {62111/411/11/1}
 Group   3 Type F   : 11s6p2d1f contracted to 5s3p2d1f pattern {62111/411/11/1}

Atom   0C    basis set group =>   1
Atom   1O    basis set group =>   2
Atom   2O    basis set group =>   2
Atom   3C    basis set group =>   1
Atom   4C    basis set group =>   1
Atom   5C    basis set group =>   1
Atom   6C    basis set group =>   1
Atom   7C    basis set group =>   1
Atom   8C    basis set group =>   1
Atom   9C    basis set group =>   1
Atom  10F    basis set group =>   3
Atom  11F    basis set group =>   3
Atom  12F    basis set group =>   3
Atom  13F    basis set group =>   3
Atom  14F    basis set group =>   3
Atom  15F    basis set group =>   3
Atom  16F    basis set group =>   3
Atom  17F    basis set group =>   3
Atom  18F    basis set group =>   3
Atom  19F    basis set group =>   3
Atom  20F    basis set group =>   3
Atom  21F    basis set group =>   3
Atom  22F    basis set group =>   3
Atom  23F    basis set group =>   3
---------------------------------
AUXILIARY/J BASIS SET INFORMATION
---------------------------------
There are 3 groups of distinct atoms

 Group   1 Type C   : 12s5p4d2f1g contracted to 6s4p3d1f1g pattern {711111/2111/211/2/1}
 Group   2 Type O   : 12s5p4d2f1g contracted to 6s4p3d1f1g pattern {711111/2111/211/2/1}
 Group   3 Type F   : 12s5p4d2f1g contracted to 6s4p3d1f1g pattern {711111/2111/211/2/1}

Atom   0C    basis set group =>   1
Atom   1O    basis set group =>   2
Atom   2O    basis set group =>   2
Atom   3C    basis set group =>   1
Atom   4C    basis set group =>   1
Atom   5C    basis set group =>   1
Atom   6C    basis set group =>   1
Atom   7C    basis set group =>   1
Atom   8C    basis set group =>   1
Atom   9C    basis set group =>   1
Atom  10F    basis set group =>   3
Atom  11F    basis set group =>   3
Atom  12F    basis set group =>   3
Atom  13F    basis set group =>   3
Atom  14F    basis set group =>   3
Atom  15F    basis set group =>   3
Atom  16F    basis set group =>   3
Atom  17F    basis set group =>   3
Atom  18F    basis set group =>   3
Atom  19F    basis set group =>   3
Atom  20F    basis set group =>   3
Atom  21F    basis set group =>   3
Atom  22F    basis set group =>   3
Atom  23F    basis set group =>   3


           ************************************************************
           *        Program running with 20 parallel MPI-processes    *
           *              working on a common directory               *
           ************************************************************
------------------------------------------------------------------------------
                           ORCA GTO INTEGRAL CALCULATION
                           -- RI-GTO INTEGRALS CHOSEN --
------------------------------------------------------------------------------
------------------------------------------------------------------------------
                   ___                                                        
                  /   \      - P O W E R E D   B Y -                         
                 /     \                                                     
                 |  |  |   _    _      __       _____    __    __             
                 |  |  |  | |  | |    /  \     |  _  \  |  |  /  |          
                  \  \/   | |  | |   /    \    | | | |  |  | /  /          
                 / \  \   | |__| |  /  /\  \   | |_| |  |  |/  /          
                |  |  |   |  __  | /  /__\  \  |    /   |      \           
                |  |  |   | |  | | |   __   |  |    \   |  |\   \          
                \     /   | |  | | |  |  |  |  | |\  \  |  | \   \       
                 \___/    |_|  |_| |__|  |__|  |_| \__\ |__|  \__/        
                                                                              
                      - O R C A' S   B I G   F R I E N D -                    
                                      &                                       
                       - I N T E G R A L  F E E D E R -                       
                                                                              
 v1 FN, 2020, v2 2021                                                         
------------------------------------------------------------------------------


Reading SHARK input file rf_mecn_opt_B3L_C4_D_B.SHARKINP.tmp ... ok
----------------------
SHARK INTEGRAL PACKAGE
----------------------

Number of atoms                             ...     24
Number of basis functions                   ...    744
Number of shells                            ...    264
Maximum angular momentum                    ...      3
Integral batch strategy                     ... SHARK/LIBINT Hybrid
RI-J (if used) integral strategy            ... SPLIT-RIJ (Revised 2003 algorithm where possible)
Printlevel                                  ...      1
Contraction scheme used                     ... SEGMENTED contraction
Coulomb Range Separation                    ... NOT USED
Exchange Range Separation                   ... NOT USED
Finite Nucleus Model                        ... NOT USED
Auxiliary Coulomb fitting basis             ... AVAILABLE
   # of basis functions in Aux-J            ...   1176
   # of shells in Aux-J                     ...    360
   Maximum angular momentum in Aux-J        ...      4
Auxiliary J/K fitting basis                 ... NOT available
Auxiliary Correlation fitting basis         ... NOT available
Auxiliary 'external' fitting basis          ... NOT available
Integral threshold                          ...     2.500000e-11
Primitive cut-off                           ...     2.500000e-12
Primitive pair pre-selection threshold      ...     2.500000e-12

Calculating pre-screening integrals         ... done (  0.0 sec) Dimension = 264
Organizing shell pair data                  ... done (  0.3 sec)
Shell pair information
Total number of shell pairs                 ...     34980
Shell pairs after pre-screening             ...     21379
Total number of primitive shell pairs       ...    115968
Primitive shell pairs kept                  ...     45535
          la=0 lb=0:   3992 shell pairs
          la=1 lb=0:   5808 shell pairs
          la=1 lb=1:   2038 shell pairs
          la=2 lb=0:   3180 shell pairs
          la=2 lb=1:   2358 shell pairs
          la=2 lb=2:    668 shell pairs
          la=3 lb=0:   1442 shell pairs
          la=3 lb=1:   1133 shell pairs
          la=3 lb=2:    613 shell pairs
          la=3 lb=3:    147 shell pairs

Calculating one electron integrals          ... done (  0.0 sec)
Calculating RI/J V-Matrix + Cholesky decomp.... done (  0.1 sec)
Calculating Nuclear repulsion               ... done (  0.0 sec) ENN=   2589.580242709824 Eh

SHARK setup successfully completed in   0.8 seconds

Maximum memory used throughout the entire GTOINT-calculation: 38.2 MB


           ************************************************************
           *        Program running with 20 parallel MPI-processes    *
           *              working on a common directory               *
           ************************************************************
-------------------------------------------------------------------------------
                                 ORCA SCF
-------------------------------------------------------------------------------

------------
SCF SETTINGS
------------
Hamiltonian:
 Density Functional     Method          .... DFT(GTOs)
 Exchange Functional    Exchange        .... B88
   X-Alpha parameter    XAlpha          ....  0.666667
   Becke's b parameter  XBeta           ....  0.004200
 Correlation Functional Correlation     .... LYP
 LDA part of GGA corr.  LDAOpt          .... VWN-5
 Gradients option       PostSCFGGA      .... off
 Hybrid DFT is turned on
   Fraction HF Exchange ScalHFX         ....  0.200000
   Scaling of DF-GGA-X  ScalDFX         ....  0.720000
   Scaling of DF-GGA-C  ScalDFC         ....  0.810000
   Scaling of DF-LDA-C  ScalLDAC        ....  1.000000
   Perturbative correction              ....  0.000000
   Density functional embedding theory  .... OFF
   NL short-range parameter             ....  4.800000
 RI-approximation to the Coulomb term is turned on
   Number of AuxJ basis functions       .... 1176
   RIJ-COSX (HFX calculated with COS-X)).... on


General Settings:
 Integral files         IntName         .... rf_mecn_opt_B3L_C4_D_B
 Hartree-Fock type      HFTyp           .... UHF
 Total Charge           Charge          ....   -1
 Multiplicity           Mult            ....    2
 Number of Electrons    NEL             ....  191
 Basis Dimension        Dim             ....  744
 Nuclear Repulsion      ENuc            ....   2589.5802427098 Eh

Convergence Acceleration:
 DIIS                   CNVDIIS         .... on
   Start iteration      DIISMaxIt       ....     0
   Startup error        DIISStart       ....  0.200000
   # of expansion vecs  DIISMaxEq       ....     5
   Bias factor          DIISBfac        ....   1.050
   Max. coefficient     DIISMaxC        ....  10.000
 Trust-Rad. Augm. Hess. CNVTRAH         .... auto
   Auto Start mean grad. ratio tolernc. ....  1.125000
   Auto Start start iteration           ....    20
   Auto Start num. interpolation iter.  ....    10
   Max. Number of Micro iterations      ....    16
   Max. Number of Macro iterations      .... Maxiter - #DIIS iter
   Number of Davidson start vectors     ....     2
   Converg. threshold I  (grad. norm)   ....   1.000e-05
   Converg. threshold II (energy diff.) ....   1.000e-08
   Grad. Scal. Fac. for Micro threshold ....   0.100
   Minimum threshold for Micro iter.    ....   0.010
   NR start threshold (gradient norm)   ....   0.001
   Initial trust radius                 ....   0.400
   Minimum AH scaling param. (alpha)    ....   1.000
   Maximum AH scaling param. (alpha)    .... 1000.000
   Orbital update algorithm             .... Taylor
   White noise on init. David. guess    .... on
   Maximum white noise                  ....   0.010
   Quad. conv. algorithm                .... NR
 SOSCF                  CNVSOSCF        .... off
 Level Shifting         CNVShift        .... on
   Level shift para.    LevelShift      ....    0.2500
   Turn off err/grad.   ShiftErr        ....    0.0000
 Zerner damping         CNVZerner       .... off
 Static damping         CNVDamp         .... on
   Fraction old density DampFac         ....    0.8500
   Max. Damping (<1)    DampMax         ....    0.9800
   Min. Damping (>=0)   DampMin         ....    0.0000
   Turn off err/grad.   DampErr         ....    0.0300
 Fernandez-Rico         CNVRico         .... off

SCF Procedure:
 Maximum # iterations   MaxIter         ....  1500
 SCF integral mode      SCFMode         .... Direct
   Integral package                     .... SHARK and LIBINT hybrid scheme
 Reset frequency        DirectResetFreq ....    20
 Integral Threshold     Thresh          ....  2.500e-11 Eh
 Primitive CutOff       TCut            ....  2.500e-12 Eh

Convergence Tolerance:
 Convergence Check Mode ConvCheckMode   .... Total+1el-Energy
 Convergence forced     ConvForced      .... 0
 Energy Change          TolE            ....  1.000e-08 Eh
 1-El. energy change                    ....  1.000e-05 Eh
 DIIS Error             TolErr          ....  5.000e-07


Diagonalization of the overlap matrix:
Smallest eigenvalue                        ... 6.676e-05
Time for diagonalization                   ...    0.120 sec
Threshold for overlap eigenvalues          ... 1.000e-08
Number of eigenvalues below threshold      ... 0
Time for construction of square roots      ...    0.053 sec
Total time needed                          ...    0.176 sec

Time for model grid setup =    0.153 sec

------------------------------
INITIAL GUESS: MODEL POTENTIAL
------------------------------
Loading Hartree-Fock densities                     ... done
Calculating cut-offs                               ... done
Initializing the effective Hamiltonian             ... done
Setting up the integral package (SHARK)            ... done
Starting the Coulomb interaction                   ... done (   0.2 sec)
Reading the grid                                   ... done
Mapping shells                                     ... done
Starting the XC term evaluation                    ... done (   0.1 sec)
  promolecular density results
     # of electrons  =    190.000210576
     EX              =   -198.089080640
     EC              =     -7.131086581
     EX+EC           =   -205.220167221
Transforming the Hamiltonian                       ... done (   0.1 sec)
Diagonalizing the Hamiltonian                      ... done (   0.1 sec)
Back transforming the eigenvectors                 ... done (   0.0 sec)
Now organizing SCF variables                       ... done
                      ------------------
                      INITIAL GUESS DONE (   0.7 sec)
                      ------------------
-------------------
DFT GRID GENERATION
-------------------

General Integration Accuracy     IntAcc      ... 4.388
Radial Grid Type                 RadialGrid  ... OptM3 with GC (2021)
Angular Grid (max. ang.)         AngularGrid ... 4 (Lebedev-302)
Angular grid pruning method      GridPruning ... 4 (adaptive)
Weight generation scheme         WeightScheme... Becke
Basis function cutoff            BFCut       ... 1.0000e-11
Integration weight cutoff        WCut        ... 1.0000e-14
Angular grids for H and He will be reduced by one unit
Partially contracted basis set               ... off
Rotationally invariant grid construction     ... off

Total number of grid points                  ...   145515
Total number of batches                      ...     2285
Average number of points per batch           ...       63
Average number of grid points per atom       ...     6063
Time for grid setup =    0.746 sec

--------------------
COSX GRID GENERATION
--------------------

GRIDX 1
-------
General Integration Accuracy     IntAcc      ... 3.816
Radial Grid Type                 RadialGrid  ... OptM3 with GC (2021)
Angular Grid (max. ang.)         AngularGrid ... 1 (Lebedev-50)
Angular grid pruning method      GridPruning ... 4 (adaptive)
Weight generation scheme         WeightScheme... Becke
Basis function cutoff            BFCut       ... 1.0000e-11
Integration weight cutoff        WCut        ... 1.0000e-14
Angular grids for H and He will be reduced by one unit
Partially contracted basis set               ... on
Rotationally invariant grid construction     ... off

Total number of grid points                  ...    18283
Total number of batches                      ...      300
Average number of points per batch           ...       60
Average number of grid points per atom       ...      762
UseSFitting                                  ... on

GRIDX 2
-------
General Integration Accuracy     IntAcc      ... 4.020
Radial Grid Type                 RadialGrid  ... OptM3 with GC (2021)
Angular Grid (max. ang.)         AngularGrid ... 2 (Lebedev-110)
Angular grid pruning method      GridPruning ... 4 (adaptive)
Weight generation scheme         WeightScheme... Becke
Basis function cutoff            BFCut       ... 1.0000e-11
Integration weight cutoff        WCut        ... 1.0000e-14
Angular grids for H and He will be reduced by one unit
Partially contracted basis set               ... on
Rotationally invariant grid construction     ... off

Total number of grid points                  ...    43391
Total number of batches                      ...      692
Average number of points per batch           ...       62
Average number of grid points per atom       ...     1808
UseSFitting                                  ... on

GRIDX 3
-------
General Integration Accuracy     IntAcc      ... 4.338
Radial Grid Type                 RadialGrid  ... OptM3 with GC (2021)
Angular Grid (max. ang.)         AngularGrid ... 3 (Lebedev-194)
Angular grid pruning method      GridPruning ... 4 (adaptive)
Weight generation scheme         WeightScheme... Becke
Basis function cutoff            BFCut       ... 1.0000e-11
Integration weight cutoff        WCut        ... 1.0000e-14
Angular grids for H and He will be reduced by one unit
Partially contracted basis set               ... on
Rotationally invariant grid construction     ... off

Total number of grid points                  ...    96141
Total number of batches                      ...     1512
Average number of points per batch           ...       63
Average number of grid points per atom       ...     4006
UseSFitting                                  ... on

Time for X-Grid setup             =    1.382 sec


--------------------
CPCM SOLVATION MODEL
--------------------
CPCM parameters:
  Epsilon                                         ...      35.6880
  Refrac                                          ...       1.3442
  Rsolv                                           ...       1.3000
  Surface type                                    ... GAUSSIAN VDW
  Epsilon function type                           ...         CPCM
Solvent:                                     ... ACETONITRILE
SMD-CDS solvent descriptors:
  Soln                                       ...    1.3442
  Soln25                                     ...    1.3416
  Sola                                       ...    0.0700
  Solb                                       ...    0.3200
  Solg                                       ...   41.2500
  Solc                                       ...    0.0000
  Solh                                       ...    0.0000
Radii:
 Radius for C  used is    3.4960 Bohr (=   1.8500 Ang.)
 Radius for O  used is    4.0969 Bohr (=   2.1680 Ang.)
 Radius for F  used is    3.2692 Bohr (=   1.7300 Ang.)
Calculating surface                               ...        done! (  0.0s)
GEPOL surface points                              ...         1273
GEPOL Volume                                      ...    2153.0148
GEPOL Surface-area                                ...    1121.9146
Calculating surface distance matrix               ...        done! (  0.0s)
Performing Cholesky decomposition & store         ...        done! (  0.1s)
Overall time for CPCM initialization              ...                 0.1s
--------------
SCF ITERATIONS
--------------
ITER       Energy         Delta-E        Max-DP      RMS-DP      [F,P]     Damp
               ***  Starting incremental Fock matrix formation  ***
  0  -1852.6168766642   0.000000000000 0.03994222  0.00019941  0.1694296 0.8500
  1  -1852.7996630742  -0.182786410000 0.06278995  0.00022612  0.1124610 0.8500
                               ***Turning on DIIS***
  2  -1852.8941420495  -0.094478975298 0.04863291  0.00016680  0.0650010 0.8500
  3  -1852.9461017131  -0.051959663601 0.01979582  0.00007833  0.0345870 0.8500
  4  -1852.9852033903  -0.039101677168 0.03458085  0.00026308  0.0242923 0.0000
  5  -1853.1820350668  -0.196831676536 0.03513116  0.00011534  0.0060541 0.0000
  6  -1853.1836209875  -0.001585920712 0.01415667  0.00004566  0.0050351 0.0000
  7  -1853.1840505591  -0.000429571558 0.00233825  0.00001109  0.0019009 0.0000
  8  -1853.1841066206  -0.000056061539 0.00161046  0.00000695  0.0006190 0.0000
               *** Restarting incremental Fock matrix formation ***
                                   *** Resetting DIIS ***
  9  -1853.1841327585  -0.000026137894 0.00046753  0.00000329  0.0004436 0.0000
 10  -1853.1841372492  -0.000004490615 0.00031779  0.00000195  0.0006565 0.0000
 11  -1853.1841421509  -0.000004901721 0.00017099  0.00000144  0.0001418 0.0000
 12  -1853.1841437633  -0.000001612415 0.00013495  0.00000093  0.0001099 0.0000
 13  -1853.1841446543  -0.000000890971 0.00008221  0.00000064  0.0000839 0.0000
 14  -1853.1841450682  -0.000000413923 0.00006708  0.00000047  0.0000632 0.0000
 15  -1853.1841452991  -0.000000230881 0.00005201  0.00000036  0.0000477 0.0000
 16  -1853.1841454190  -0.000000119981 0.00003869  0.00000028  0.0000361 0.0000
 17  -1853.1841454524  -0.000000033354 0.00002921  0.00000021  0.0000264 0.0000
 18  -1853.1841455221  -0.000000069741 0.00002484  0.00000016  0.0000194 0.0000
 19  -1853.1841454968   0.000000025385 0.00001655  0.00000011  0.0000141 0.0000
 20  -1853.1841455407  -0.000000043935 0.00001440  0.00000011  0.0000101 0.0000
 21  -1853.1841455392   0.000000001491 0.00000823  0.00000006  0.0000073 0.0000
 22  -1853.1841455098   0.000000029400 0.00001124  0.00000006  0.0000052 0.0000
 23  -1853.1841455197  -0.000000009928 0.00000577  0.00000005  0.0000037 0.0000
 24  -1853.1841454998   0.000000019936 0.00000515  0.00000003  0.0000026 0.0000
 25  -1853.1841455138  -0.000000013983 0.00000683  0.00000004  0.0000019 0.0000
 26  -1853.1841455276  -0.000000013780 0.00000504  0.00000003  0.0000014 0.0000
                            ***DIIS convergence achieved***

               *****************************************************
               *                     SUCCESS                       *
               *           SCF CONVERGED AFTER  27 CYCLES          *
               *****************************************************

Old exchange energy                            =    -39.730597110 Eh
New exchange energy                            =    -39.730621570 Eh
Exchange energy change after final integration =     -0.000024460 Eh
Total energy after final integration           =  -1853.184170017 Eh
Final COS-X integration done in                =     8.790 sec

SMD CDS free energy correction energy :                 3.60969     Kcal/mol
Total Energy after SMD CDS correction =             -1853.178417608 Eh

----------------
TOTAL SCF ENERGY
----------------

Total Energy       :        -1853.17841761 Eh          -50427.54843 eV

Components:
Nuclear Repulsion  :         2589.58024271 Eh           70466.06083 eV
Electronic Energy  :        -4442.75866032 Eh         -120893.60926 eV
One Electron Energy:        -7753.05570757 Eh         -210971.37138 eV
Two Electron Energy:         3310.29704725 Eh           90077.76212 eV
Max COSX asymmetry :            0.00000051 Eh               0.00001 eV
CPCM Dielectric    :           -0.08403157 Eh              -2.28662 eV
SMD CDS (Gcds)     :            0.00575241 Eh               0.15653 eV

Virial components:
Potential Energy   :        -3699.01833030 Eh         -100655.40599 eV
Kinetic Energy     :         1845.83991269 Eh           50227.85756 eV
Virial Ratio       :            2.00397570


DFT components:
N(Alpha)           :       95.999971943342 electrons
N(Beta)            :       94.999968927327 electrons
N(Total)           :      190.999940870669 electrons
E(X)               :     -158.391828068369 Eh       
E(C)               :       -8.363429115706 Eh       
E(XC)              :     -166.755257184076 Eh       
DFET-embed. en.    :        0.000000000000 Eh       
CPCM Solvation Model Properties:
Surface-charge          :            0.98919544
Charge-correction       :           -0.00109912 Eh              -0.02991 eV
Free-energy (cav+disp)  :            0.00575241 Eh               0.15653 eV

---------------
SCF CONVERGENCE
---------------

  Last Energy change         ...   -2.8767e-08  Tolerance :   1.0000e-08
  Last MAX-Density change    ...    0.0000e+00  Tolerance :   1.0000e-07
  Last RMS-Density change    ...    0.0000e+00  Tolerance :   5.0000e-09
  Last DIIS Error            ...    9.6952e-07  Tolerance :   5.0000e-07

             **** THE GBW FILE WAS UPDATED (rf_mecn_opt_B3L_C4_D_B.gbw) ****
             **** DENSITY rf_mecn_opt_B3L_C4_D_B.scfp WAS UPDATED ****
             **** ENERGY FILE WAS UPDATED (rf_mecn_opt_B3L_C4_D_B.en.tmp) ****
----------------------
UHF SPIN CONTAMINATION
----------------------

Warning: in a DFT calculation there is little theoretical justification to 
         calculate <S**2> as in Hartree-Fock theory. We will do it anyways
         but you should keep in mind that the values have only limited relevance

Expectation value of <S**2>     :     0.753048
Ideal value S*(S+1) for S=0.5   :     0.750000
Deviation                       :     0.003048

             **** THE GBW FILE WAS UPDATED (rf_mecn_opt_B3L_C4_D_B.gbw) ****
             **** DENSITY rf_mecn_opt_B3L_C4_D_B.scfp WAS UPDATED ****
----------------
ORBITAL ENERGIES
----------------
                 SPIN UP ORBITALS
  NO   OCC          E(Eh)            E(eV) 
   0   1.0000     -24.744596      -673.3347 
   1   1.0000     -24.743677      -673.3097 
   2   1.0000     -24.742926      -673.2892 
   3   1.0000     -24.742322      -673.2728 
   4   1.0000     -24.741531      -673.2513 
   5   1.0000     -24.741409      -673.2480 
   6   1.0000     -24.740608      -673.2262 
   7   1.0000     -24.738150      -673.1593 
   8   1.0000     -24.736678      -673.1192 
   9   1.0000     -24.734773      -673.0674 
  10   1.0000     -24.722396      -672.7306 
  11   1.0000     -24.714549      -672.5171 
  12   1.0000     -24.702152      -672.1797 
  13   1.0000     -24.699958      -672.1200 
  14   1.0000     -19.085450      -519.3415 
  15   1.0000     -19.083776      -519.2960 
  16   1.0000     -10.461791      -284.6798 
  17   1.0000     -10.406834      -283.1844 
  18   1.0000     -10.404929      -283.1325 
  19   1.0000     -10.402663      -283.0709 
  20   1.0000     -10.382824      -282.5310 
  21   1.0000     -10.359003      -281.8828 
  22   1.0000     -10.330850      -281.1167 
  23   1.0000     -10.293483      -280.0999 
  24   1.0000      -1.350305       -36.7437 
  25   1.0000      -1.321933       -35.9716 
  26   1.0000      -1.305651       -35.5286 
  27   1.0000      -1.301583       -35.4179 
  28   1.0000      -1.289385       -35.0860 
  29   1.0000      -1.271628       -34.6027 
  30   1.0000      -1.263977       -34.3946 
  31   1.0000      -1.258727       -34.2517 
  32   1.0000      -1.255321       -34.1590 
  33   1.0000      -1.254147       -34.1271 
  34   1.0000      -1.248141       -33.9637 
  35   1.0000      -1.244355       -33.8606 
  36   1.0000      -1.229292       -33.4507 
  37   1.0000      -1.202367       -32.7181 
  38   1.0000      -0.959279       -26.1033 
  39   1.0000      -0.900347       -24.4997 
  40   1.0000      -0.844584       -22.9823 
  41   1.0000      -0.823379       -22.4053 
  42   1.0000      -0.790520       -21.5111 
  43   1.0000      -0.754404       -20.5284 
  44   1.0000      -0.711144       -19.3512 
  45   1.0000      -0.685127       -18.6432 
  46   1.0000      -0.660138       -17.9633 
  47   1.0000      -0.644521       -17.5383 
  48   1.0000      -0.641967       -17.4688 
  49   1.0000      -0.635594       -17.2954 
  50   1.0000      -0.619583       -16.8597 
  51   1.0000      -0.616917       -16.7872 
  52   1.0000      -0.614177       -16.7126 
  53   1.0000      -0.603217       -16.4144 
  54   1.0000      -0.598009       -16.2727 
  55   1.0000      -0.591820       -16.1042 
  56   1.0000      -0.587217       -15.9790 
  57   1.0000      -0.578316       -15.7368 
  58   1.0000      -0.569376       -15.4935 
  59   1.0000      -0.558354       -15.1936 
  60   1.0000      -0.549081       -14.9413 
  61   1.0000      -0.517557       -14.0834 
  62   1.0000      -0.513696       -13.9784 
  63   1.0000      -0.507291       -13.8041 
  64   1.0000      -0.503760       -13.7080 
  65   1.0000      -0.498320       -13.5600 
  66   1.0000      -0.497650       -13.5417 
  67   1.0000      -0.489005       -13.3065 
  68   1.0000      -0.485372       -13.2077 
  69   1.0000      -0.478059       -13.0087 
  70   1.0000      -0.475827       -12.9479 
  71   1.0000      -0.468876       -12.7588 
  72   1.0000      -0.463888       -12.6230 
  73   1.0000      -0.462419       -12.5831 
  74   1.0000      -0.461430       -12.5561 
  75   1.0000      -0.456926       -12.4336 
  76   1.0000      -0.453082       -12.3290 
  77   1.0000      -0.451740       -12.2925 
  78   1.0000      -0.449613       -12.2346 
  79   1.0000      -0.445163       -12.1135 
  80   1.0000      -0.442267       -12.0347 
  81   1.0000      -0.441110       -12.0032 
  82   1.0000      -0.438213       -11.9244 
  83   1.0000      -0.430940       -11.7265 
  84   1.0000      -0.424434       -11.5494 
  85   1.0000      -0.414431       -11.2772 
  86   1.0000      -0.412830       -11.2337 
  87   1.0000      -0.397718       -10.8225 
  88   1.0000      -0.386768       -10.5245 
  89   1.0000      -0.370945       -10.0939 
  90   1.0000      -0.347092        -9.4449 
  91   1.0000      -0.343933        -9.3589 
  92   1.0000      -0.295083        -8.0296 
  93   1.0000      -0.248236        -6.7548 
  94   1.0000      -0.244122        -6.6429 
  95   1.0000      -0.241551        -6.5729 
  96   0.0000      -0.019490        -0.5303 
  97   0.0000       0.002252         0.0613 
  98   0.0000       0.014535         0.3955 
  99   0.0000       0.041372         1.1258 
 100   0.0000       0.063672         1.7326 
 101   0.0000       0.084467         2.2985 
 102   0.0000       0.097642         2.6570 
 103   0.0000       0.099725         2.7137 
 104   0.0000       0.104357         2.8397 
 105   0.0000       0.124775         3.3953 
 106   0.0000       0.132208         3.5976 
 107   0.0000       0.148241         4.0338 
 108   0.0000       0.148892         4.0516 
 109   0.0000       0.155441         4.2298 
 110   0.0000       0.165619         4.5067 
 111   0.0000       0.177740         4.8365 
 112   0.0000       0.189212         5.1487 
 113   0.0000       0.198894         5.4122 
 114   0.0000       0.200859         5.4657 
 115   0.0000       0.204966         5.5774 
 116   0.0000       0.207666         5.6509 
 117   0.0000       0.209700         5.7062 
 118   0.0000       0.214749         5.8436 
 119   0.0000       0.221837         6.0365 
 120   0.0000       0.224316         6.1040 
 121   0.0000       0.227759         6.1976 
 122   0.0000       0.230777         6.2798 
 123   0.0000       0.241942         6.5836 
 124   0.0000       0.245416         6.6781 
 125   0.0000       0.247352         6.7308 
 126   0.0000       0.255407         6.9500 
 127   0.0000       0.258752         7.0410 
 128   0.0000       0.267420         7.2769 
 129   0.0000       0.274370         7.4660 
 130   0.0000       0.284987         7.7549 
 131   0.0000       0.293344         7.9823 
 132   0.0000       0.294557         8.0153 
 133   0.0000       0.298409         8.1201 
 134   0.0000       0.305799         8.3212 
 135   0.0000       0.314832         8.5670 
 136   0.0000       0.316750         8.6192 
 137   0.0000       0.327176         8.9029 
 138   0.0000       0.333654         9.0792 
 139   0.0000       0.339620         9.2415 
 140   0.0000       0.340749         9.2722 
 141   0.0000       0.346565         9.4305 
 142   0.0000       0.374233        10.1834 
 143   0.0000       0.384186        10.4542 
 144   0.0000       0.397929        10.8282 
 145   0.0000       0.414655        11.2833 
 146   0.0000       0.418043        11.3755 
 147   0.0000       0.429811        11.6958 
 148   0.0000       0.432105        11.7582 
 149   0.0000       0.437098        11.8940 
 150   0.0000       0.444183        12.0868 
 151   0.0000       0.451535        12.2869 
 152   0.0000       0.460281        12.5249 
 153   0.0000       0.465676        12.6717 
 154   0.0000       0.468375        12.7451 
 155   0.0000       0.481191        13.0939 
 156   0.0000       0.491196        13.3661 
 157   0.0000       0.496758        13.5175 
 158   0.0000       0.503043        13.6885 
 159   0.0000       0.514037        13.9877 
 160   0.0000       0.522252        14.2112 
 161   0.0000       0.530517        14.4361 
 162   0.0000       0.534666        14.5490 
 163   0.0000       0.537884        14.6366 
 164   0.0000       0.545398        14.8410 
 165   0.0000       0.560987        15.2652 
 166   0.0000       0.576865        15.6973 
 167   0.0000       0.589103        16.0303 
 168   0.0000       0.596787        16.2394 
 169   0.0000       0.614501        16.7214 
 170   0.0000       0.621284        16.9060 
 171   0.0000       0.624160        16.9843 
 172   0.0000       0.645631        17.5685 
 173   0.0000       0.647266        17.6130 
 174   0.0000       0.658764        17.9259 
 175   0.0000       0.664897        18.0928 
 176   0.0000       0.670007        18.2318 
 177   0.0000       0.678258        18.4563 
 178   0.0000       0.689265        18.7558 
 179   0.0000       0.692270        18.8376 
 180   0.0000       0.707739        19.2585 
 181   0.0000       0.720318        19.6009 
 182   0.0000       0.723735        19.6938 
 183   0.0000       0.732622        19.9357 
 184   0.0000       0.736958        20.0537 
 185   0.0000       0.744170        20.2499 
 186   0.0000       0.751491        20.4491 
 187   0.0000       0.759520        20.6676 
 188   0.0000       0.760233        20.6870 
 189   0.0000       0.763841        20.7852 
 190   0.0000       0.771920        21.0050 
 191   0.0000       0.780248        21.2316 
 192   0.0000       0.783315        21.3151 
 193   0.0000       0.798054        21.7162 
 194   0.0000       0.806715        21.9518 
 195   0.0000       0.814235        22.1565 
 196   0.0000       0.824459        22.4347 
 197   0.0000       0.831061        22.6143 
 198   0.0000       0.840031        22.8584 
 199   0.0000       0.849379        23.1128 
 200   0.0000       0.855197        23.2711 
 201   0.0000       0.861275        23.4365 
 202   0.0000       0.868611        23.6361 
 203   0.0000       0.884448        24.0670 
 204   0.0000       0.893742        24.3200 
 205   0.0000       0.897541        24.4233 
 206   0.0000       0.908310        24.7164 
 207   0.0000       0.912571        24.8323 
 208   0.0000       0.925433        25.1823 
 209   0.0000       0.927830        25.2475 
 210   0.0000       0.942677        25.6515 
 211   0.0000       0.946095        25.7446 
 212   0.0000       0.956100        26.0168 
 213   0.0000       0.966260        26.2933 
 214   0.0000       0.973562        26.4920 
 215   0.0000       0.988261        26.8920 
 216   0.0000       0.995435        27.0872 
 217   0.0000       1.002808        27.2878 
 218   0.0000       1.010281        27.4911 
 219   0.0000       1.024134        27.8681 
 220   0.0000       1.034150        28.1406 
 221   0.0000       1.049012        28.5451 
 222   0.0000       1.063942        28.9513 
 223   0.0000       1.066861        29.0308 
 224   0.0000       1.083565        29.4853 
 225   0.0000       1.085873        29.5481 
 226   0.0000       1.101952        29.9856 
 227   0.0000       1.107385        30.1335 
 228   0.0000       1.115236        30.3471 
 229   0.0000       1.124931        30.6109 
 230   0.0000       1.131939        30.8016 
 231   0.0000       1.139934        31.0192 
 232   0.0000       1.154642        31.4194 
 233   0.0000       1.165724        31.7210 
 234   0.0000       1.173010        31.9192 
 235   0.0000       1.176614        32.0173 
 236   0.0000       1.186925        32.2979 
 237   0.0000       1.199556        32.6416 
 238   0.0000       1.206472        32.8298 
 239   0.0000       1.220775        33.2190 
 240   0.0000       1.231254        33.5041 
 241   0.0000       1.245855        33.9014 
 242   0.0000       1.247135        33.9363 
 243   0.0000       1.264119        34.3984 
 244   0.0000       1.273483        34.6532 
 245   0.0000       1.283065        34.9140 
 246   0.0000       1.296321        35.2747 
 247   0.0000       1.301423        35.4135 
 248   0.0000       1.310229        35.6531 
 249   0.0000       1.330351        36.2007 
 250   0.0000       1.348754        36.7015 
 251   0.0000       1.362276        37.0694 
 252   0.0000       1.377536        37.4847 
 253   0.0000       1.407444        38.2985 
 254   0.0000       1.413101        38.4524 
 255   0.0000       1.438379        39.1403 
 256   0.0000       1.462651        39.8008 
 257   0.0000       1.468050        39.9477 
 258   0.0000       1.488352        40.5001 
 259   0.0000       1.500866        40.8406 
 260   0.0000       1.550222        42.1837 
 261   0.0000       1.554915        42.3114 
 262   0.0000       1.570209        42.7276 
 263   0.0000       1.588349        43.2212 
 264   0.0000       1.612187        43.8698 
 265   0.0000       1.636559        44.5330 
 266   0.0000       1.653706        44.9996 
 267   0.0000       1.658899        45.1409 
 268   0.0000       1.678499        45.6743 
 269   0.0000       1.688815        45.9550 
 270   0.0000       1.710828        46.5540 
 271   0.0000       1.728077        47.0234 
 272   0.0000       1.754221        47.7348 
 273   0.0000       1.769139        48.1407 
 274   0.0000       1.782541        48.5054 
 275   0.0000       1.784944        48.5708 
 276   0.0000       1.794734        48.8372 
 277   0.0000       1.818204        49.4758 
 278   0.0000       1.820498        49.5383 
 279   0.0000       1.846454        50.2446 
 280   0.0000       1.852284        50.4032 
 281   0.0000       1.857102        50.5343 
 282   0.0000       1.883832        51.2617 
 283   0.0000       1.901257        51.7358 
 284   0.0000       1.902914        51.7809 
 285   0.0000       1.904639        51.8279 
 286   0.0000       1.910609        51.9903 
 287   0.0000       1.913490        52.0687 
 288   0.0000       1.917252        52.1711 
 289   0.0000       1.928407        52.4746 
 290   0.0000       1.937737        52.7285 
 291   0.0000       1.943971        52.8981 
 292   0.0000       1.948670        53.0260 
 293   0.0000       1.957108        53.2556 
 294   0.0000       1.965296        53.4784 
 295   0.0000       1.982328        53.9419 
 296   0.0000       1.997734        54.3611 
 297   0.0000       2.011619        54.7389 
 298   0.0000       2.024957        55.1019 
 299   0.0000       2.041881        55.5624 
 300   0.0000       2.052833        55.8604 
 301   0.0000       2.054938        55.9177 
 302   0.0000       2.062194        56.1151 
 303   0.0000       2.068768        56.2940 
 304   0.0000       2.072463        56.3946 
 305   0.0000       2.077155        56.5223 
 306   0.0000       2.085178        56.7406 
 307   0.0000       2.089318        56.8532 
 308   0.0000       2.094018        56.9811 
 309   0.0000       2.102012        57.1987 
 310   0.0000       2.112817        57.4927 
 311   0.0000       2.119702        57.6800 
 312   0.0000       2.121453        57.7277 
 313   0.0000       2.129779        57.9542 
 314   0.0000       2.137833        58.1734 
 315   0.0000       2.148649        58.4677 
 316   0.0000       2.159018        58.7499 
 317   0.0000       2.168667        59.0124 
 318   0.0000       2.178401        59.2773 
 319   0.0000       2.193383        59.6850 
 320   0.0000       2.196890        59.7804 
 321   0.0000       2.226172        60.5772 
 322   0.0000       2.242115        61.0111 
 323   0.0000       2.254249        61.3412 
 324   0.0000       2.267326        61.6971 
 325   0.0000       2.278136        61.9912 
 326   0.0000       2.283708        62.1428 
 327   0.0000       2.291632        62.3585 
 328   0.0000       2.317160        63.0531 
 329   0.0000       2.331664        63.4478 
 330   0.0000       2.339106        63.6503 
 331   0.0000       2.359017        64.1921 
 332   0.0000       2.367064        64.4111 
 333   0.0000       2.375237        64.6335 
 334   0.0000       2.380194        64.7684 
 335   0.0000       2.388896        65.0052 
 336   0.0000       2.409394        65.5629 
 337   0.0000       2.425527        66.0020 
 338   0.0000       2.434119        66.2357 
 339   0.0000       2.438188        66.3465 
 340   0.0000       2.447352        66.5958 
 341   0.0000       2.456773        66.8522 
 342   0.0000       2.461543        66.9820 
 343   0.0000       2.466672        67.1216 
 344   0.0000       2.470540        67.2268 
 345   0.0000       2.476128        67.3789 
 346   0.0000       2.486344        67.6569 
 347   0.0000       2.492816        67.8330 
 348   0.0000       2.503877        68.1340 
 349   0.0000       2.510492        68.3140 
 350   0.0000       2.533692        68.9453 
 351   0.0000       2.548325        69.3434 
 352   0.0000       2.561494        69.7018 
 353   0.0000       2.576963        70.1227 
 354   0.0000       2.589253        70.4572 
 355   0.0000       2.598527        70.7095 
 356   0.0000       2.606147        70.9169 
 357   0.0000       2.619479        71.2796 
 358   0.0000       2.628092        71.5140 
 359   0.0000       2.653671        72.2100 
 360   0.0000       2.671379        72.6919 
 361   0.0000       2.693279        73.2879 
 362   0.0000       2.716505        73.9198 
 363   0.0000       2.757403        75.0328 
 364   0.0000       2.764256        75.2192 
 365   0.0000       2.778873        75.6170 
 366   0.0000       2.801758        76.2397 
 367   0.0000       2.827441        76.9386 
 368   0.0000       2.838047        77.2272 
 369   0.0000       2.859771        77.8183 
 370   0.0000       2.868953        78.0682 
 371   0.0000       2.888435        78.5983 
 372   0.0000       2.892126        78.6987 
 373   0.0000       2.905457        79.0615 
 374   0.0000       2.910275        79.1926 
 375   0.0000       2.918622        79.4197 
 376   0.0000       2.930909        79.7541 
 377   0.0000       2.946472        80.1776 
 378   0.0000       2.956490        80.4502 
 379   0.0000       2.960173        80.5504 
 380   0.0000       2.975011        80.9542 
 381   0.0000       2.981380        81.1275 
 382   0.0000       2.991972        81.4157 
 383   0.0000       3.001425        81.6729 
 384   0.0000       3.009778        81.9002 
 385   0.0000       3.013629        82.0050 
 386   0.0000       3.022282        82.2405 
 387   0.0000       3.030077        82.4526 
 388   0.0000       3.042861        82.8005 
 389   0.0000       3.052252        83.0560 
 390   0.0000       3.055327        83.1397 
 391   0.0000       3.063462        83.3610 
 392   0.0000       3.072329        83.6023 
 393   0.0000       3.079964        83.8101 
 394   0.0000       3.091385        84.1209 
 395   0.0000       3.099849        84.3512 
 396   0.0000       3.110049        84.6287 
 397   0.0000       3.113736        84.7291 
 398   0.0000       3.119981        84.8990 
 399   0.0000       3.120484        84.9127 
 400   0.0000       3.130064        85.1734 
 401   0.0000       3.136499        85.3485 
 402   0.0000       3.140925        85.4689 
 403   0.0000       3.154874        85.8485 
 404   0.0000       3.157412        85.9176 
 405   0.0000       3.161887        86.0393 
 406   0.0000       3.165634        86.1413 
 407   0.0000       3.171807        86.3093 
 408   0.0000       3.181388        86.5700 
 409   0.0000       3.193328        86.8949 
 410   0.0000       3.201261        87.1108 
 411   0.0000       3.208290        87.3020 
 412   0.0000       3.211596        87.3920 
 413   0.0000       3.224846        87.7525 
 414   0.0000       3.228538        87.8530 
 415   0.0000       3.244974        88.3002 
 416   0.0000       3.246895        88.3525 
 417   0.0000       3.252632        88.5086 
 418   0.0000       3.266411        88.8836 
 419   0.0000       3.271680        89.0269 
 420   0.0000       3.275109        89.1202 
 421   0.0000       3.297705        89.7351 
 422   0.0000       3.300371        89.8077 
 423   0.0000       3.306838        89.9836 
 424   0.0000       3.318851        90.3105 
 425   0.0000       3.326709        90.5243 
 426   0.0000       3.339597        90.8751 
 427   0.0000       3.344129        90.9984 
 428   0.0000       3.365190        91.5715 
 429   0.0000       3.372757        91.7774 
 430   0.0000       3.376933        91.8910 
 431   0.0000       3.396359        92.4196 
 432   0.0000       3.414544        92.9145 
 433   0.0000       3.427655        93.2712 
 434   0.0000       3.433301        93.4249 
 435   0.0000       3.465829        94.3100 
 436   0.0000       3.471728        94.4705 
 437   0.0000       3.494055        95.0781 
 438   0.0000       3.503598        95.3377 
 439   0.0000       3.528589        96.0178 
 440   0.0000       3.538958        96.2999 
 441   0.0000       3.561391        96.9104 
 442   0.0000       3.568930        97.1155 
 443   0.0000       3.584282        97.5333 
 444   0.0000       3.609641        98.2233 
 445   0.0000       3.613230        98.3210 
 446   0.0000       3.629309        98.7585 
 447   0.0000       3.633642        98.8764 
 448   0.0000       3.673792        99.9690 
 449   0.0000       3.700026       100.6828 
 450   0.0000       3.712447       101.0208 
 451   0.0000       3.719840       101.2220 
 452   0.0000       3.725139       101.3662 
 453   0.0000       3.738353       101.7258 
 454   0.0000       3.754791       102.1731 
 455   0.0000       3.768335       102.5416 
 456   0.0000       3.781170       102.8909 
 457   0.0000       3.789040       103.1050 
 458   0.0000       3.818660       103.9110 
 459   0.0000       3.833632       104.3184 
 460   0.0000       3.834741       104.3486 
 461   0.0000       3.842769       104.5670 
 462   0.0000       3.863520       105.1317 
 463   0.0000       3.871246       105.3420 
 464   0.0000       3.875782       105.4654 
 465   0.0000       3.884660       105.7070 
 466   0.0000       3.893959       105.9600 
 467   0.0000       3.908065       106.3439 
 468   0.0000       3.914779       106.5265 
 469   0.0000       3.930233       106.9471 
 470   0.0000       3.938319       107.1671 
 471   0.0000       3.946222       107.3822 
 472   0.0000       3.959752       107.7503 
 473   0.0000       3.969976       108.0285 
 474   0.0000       3.977044       108.2209 
 475   0.0000       3.983243       108.3896 
 476   0.0000       3.989211       108.5519 
 477   0.0000       4.005532       108.9961 
 478   0.0000       4.019554       109.3776 
 479   0.0000       4.029274       109.6421 
 480   0.0000       4.041515       109.9752 
 481   0.0000       4.051410       110.2445 
 482   0.0000       4.062090       110.5351 
 483   0.0000       4.071273       110.7850 
 484   0.0000       4.088268       111.2474 
 485   0.0000       4.093425       111.3878 
 486   0.0000       4.105303       111.7110 
 487   0.0000       4.108049       111.7857 
 488   0.0000       4.113176       111.9252 
 489   0.0000       4.120646       112.1285 
 490   0.0000       4.137959       112.5996 
 491   0.0000       4.143733       112.7567 
 492   0.0000       4.153175       113.0136 
 493   0.0000       4.168362       113.4269 
 494   0.0000       4.172860       113.5493 
 495   0.0000       4.194045       114.1258 
 496   0.0000       4.199627       114.2777 
 497   0.0000       4.232904       115.1832 
 498   0.0000       4.238626       115.3389 
 499   0.0000       4.255765       115.8053 
 500   0.0000       4.271223       116.2259 
 501   0.0000       4.282578       116.5349 
 502   0.0000       4.328605       117.7873 
 503   0.0000       4.352956       118.4500 
 504   0.0000       4.406126       119.8968 
 505   0.0000       4.552292       123.8742 
 506   0.0000       4.580397       124.6389 
 507   0.0000       4.611333       125.4807 
 508   0.0000       4.658794       126.7722 
 509   0.0000       4.729779       128.7038 
 510   0.0000       4.760804       129.5481 
 511   0.0000       4.804557       130.7386 
 512   0.0000       4.922998       133.9616 
 513   0.0000       4.959190       134.9464 
 514   0.0000       4.992570       135.8547 
 515   0.0000       5.135301       139.7387 
 516   0.0000       5.154767       140.2683 
 517   0.0000       5.181312       140.9907 
 518   0.0000       5.199703       141.4911 
 519   0.0000       5.207328       141.6986 
 520   0.0000       5.208515       141.7309 
 521   0.0000       5.213686       141.8716 
 522   0.0000       5.233163       142.4016 
 523   0.0000       5.265727       143.2877 
 524   0.0000       5.291516       143.9895 
 525   0.0000       5.296708       144.1308 
 526   0.0000       5.322960       144.8451 
 527   0.0000       5.330548       145.0516 
 528   0.0000       5.343778       145.4116 
 529   0.0000       5.378907       146.3675 
 530   0.0000       5.418499       147.4449 
 531   0.0000       5.467267       148.7719 
 532   0.0000       5.470245       148.8529 
 533   0.0000       5.525407       150.3540 
 534   0.0000       5.542802       150.8273 
 535   0.0000       5.597417       152.3135 
 536   0.0000       5.708644       155.3401 
 537   0.0000       5.744507       156.3160 
 538   0.0000       5.851499       159.2274 
 539   0.0000       5.917647       161.0274 
 540   0.0000       6.165665       167.7763 
 541   0.0000       6.229277       169.5072 
 542   0.0000       6.339931       172.5183 
 543   0.0000       6.381645       173.6534 
 544   0.0000       6.415298       174.5691 
 545   0.0000       6.445739       175.3975 
 546   0.0000       6.729060       183.1070 
 547   0.0000       6.762787       184.0248 
 548   0.0000       6.781948       184.5462 
 549   0.0000       6.799894       185.0345 
 550   0.0000       6.803421       185.1305 
 551   0.0000       6.804298       185.1544 
 552   0.0000       6.805946       185.1992 
 553   0.0000       6.807829       185.2504 
 554   0.0000       6.808335       185.2642 
 555   0.0000       6.809268       185.2896 
 556   0.0000       6.811592       185.3529 
 557   0.0000       6.813614       185.4079 
 558   0.0000       6.814339       185.4276 
 559   0.0000       6.816042       185.4739 
 560   0.0000       6.816336       185.4819 
 561   0.0000       6.818423       185.5387 
 562   0.0000       6.819952       185.5803 
 563   0.0000       6.820321       185.5904 
 564   0.0000       6.823321       185.6720 
 565   0.0000       6.826325       185.7537 
 566   0.0000       6.827455       185.7845 
 567   0.0000       6.827826       185.7946 
 568   0.0000       6.830035       185.8547 
 569   0.0000       6.831259       185.8880 
 570   0.0000       6.833404       185.9464 
 571   0.0000       6.834785       185.9840 
 572   0.0000       6.835402       186.0007 
 573   0.0000       6.838067       186.0733 
 574   0.0000       6.839520       186.1128 
 575   0.0000       6.840974       186.1524 
 576   0.0000       6.842700       186.1993 
 577   0.0000       6.844323       186.2435 
 578   0.0000       6.847256       186.3233 
 579   0.0000       6.850398       186.4088 
 580   0.0000       6.852909       186.4771 
 581   0.0000       6.853913       186.5045 
 582   0.0000       6.858018       186.6162 
 583   0.0000       6.859771       186.6639 
 584   0.0000       6.862505       186.7382 
 585   0.0000       6.865098       186.8088 
 586   0.0000       6.866657       186.8512 
 587   0.0000       6.871172       186.9741 
 588   0.0000       6.882363       187.2786 
 589   0.0000       6.890953       187.5124 
 590   0.0000       6.903772       187.8612 
 591   0.0000       6.918787       188.2698 
 592   0.0000       6.925510       188.4527 
 593   0.0000       6.933218       188.6625 
 594   0.0000       6.943158       188.9329 
 595   0.0000       6.946760       189.0309 
 596   0.0000       6.950748       189.1395 
[...]
      dxy     :     0.000002
      f0      :     0.000000  f :     0.000001
      f+1     :     0.000000
      f-1     :     0.000000
      f+2     :    -0.000000
      f-2     :     0.000000
      f+3     :     0.000000
      f-3     :    -0.000000
  2 O s       :     0.000007  s :     0.000007
      pz      :    -0.000087  p :     0.000479
      px      :    -0.000025
      py      :     0.000591
      dz2     :    -0.000001  d :    -0.000006
      dxz     :    -0.000002
      dyz     :    -0.000002
      dx2y2   :    -0.000003
      dxy     :     0.000001
      f0      :    -0.000000  f :    -0.000001
      f+1     :    -0.000000
      f-1     :     0.000000
      f+2     :    -0.000000
      f-2     :    -0.000000
      f+3     :    -0.000000
      f-3     :    -0.000000
  3 C s       :     0.000281  s :     0.000281
      pz      :     0.000094  p :     0.004088
      px      :     0.002170
      py      :     0.001824
      dz2     :    -0.000040  d :    -0.000580
      dxz     :    -0.000228
      dyz     :    -0.000149
      dx2y2   :    -0.000054
      dxy     :    -0.000109
      f0      :    -0.000007  f :     0.000104
      f+1     :    -0.000007
      f-1     :     0.000023
      f+2     :     0.000017
      f-2     :    -0.000025
      f+3     :     0.000092
      f-3     :     0.000012
  4 C s       :    -0.002661  s :    -0.002661
      pz      :    -0.001439  p :     0.000916
      px      :    -0.006507
      py      :     0.008861
      dz2     :     0.007347  d :     0.048059
      dxz     :     0.003091
      dyz     :     0.006294
      dx2y2   :     0.001051
      dxy     :     0.030276
      f0      :     0.000422  f :     0.010390
      f+1     :     0.001682
      f-1     :     0.000275
      f+2     :     0.000356
      f-2     :     0.004434
      f+3     :     0.000285
      f-3     :     0.002937
  5 C s       :     0.022033  s :     0.022033
      pz      :     0.082985  p :     0.629073
      px      :     0.039770
      py      :     0.506319
      dz2     :     0.002618  d :     0.003698
      dxz     :    -0.000833
      dyz     :     0.004305
      dx2y2   :    -0.002134
      dxy     :    -0.000259
      f0      :     0.001059  f :     0.000837
      f+1     :    -0.000055
      f-1     :     0.000042
      f+2     :     0.000720
      f-2     :    -0.000163
      f+3     :    -0.000376
      f-3     :    -0.000390
  6 C s       :    -0.001984  s :    -0.001984
      pz      :    -0.001065  p :    -0.006161
      px      :    -0.011122
      py      :     0.006027
      dz2     :     0.001876  d :     0.065317
      dxz     :     0.012853
      dyz     :     0.000404
      dx2y2   :     0.017039
      dxy     :     0.033144
      f0      :     0.000570  f :     0.008446
      f+1     :     0.000485
      f-1     :     0.001172
      f+2     :     0.000564
      f-2     :     0.000084
      f+3     :     0.004217
      f-3     :     0.001355
  7 C s       :     0.002713  s :     0.002713
      pz      :     0.001856  p :     0.017072
      px      :     0.006468
      py      :     0.008748
      dz2     :     0.000380  d :     0.004034
      dxz     :    -0.000045
      dyz     :    -0.000029
      dx2y2   :     0.004101
      dxy     :    -0.000373
      f0      :    -0.000012  f :    -0.000091
      f+1     :    -0.000018
      f-1     :    -0.000016
      f+2     :    -0.000017
      f-2     :    -0.000029
      f+3     :     0.000054
      f-3     :    -0.000053
  8 C s       :     0.000279  s :     0.000279
      pz      :     0.000026  p :     0.003027
      px      :     0.002435
      py      :     0.000566
      dz2     :     0.000041  d :     0.001915
      dxz     :     0.000381
      dyz     :     0.000009
      dx2y2   :     0.000567
      dxy     :     0.000917
      f0      :    -0.000005  f :     0.000142
      f+1     :     0.000005
      f-1     :     0.000011
      f+2     :     0.000002
      f-2     :     0.000023
      f+3     :     0.000063
      f-3     :     0.000044
  9 C s       :     0.000259  s :     0.000259
      pz      :     0.000339  p :     0.000913
      px      :     0.000138
      py      :     0.000437
      dz2     :     0.000029  d :     0.000265
      dxz     :    -0.000001
      dyz     :     0.000033
      dx2y2   :     0.000210
      dxy     :    -0.000007
      f0      :     0.000009  f :     0.000075
      f+1     :    -0.000000
      f-1     :    -0.000001
      f+2     :     0.000028
      f-2     :     0.000006
      f+3     :     0.000006
      f-3     :     0.000028
 10 F s       :     0.000226  s :     0.000226
      pz      :    -0.000009  p :     0.001605
      px      :     0.001016
      py      :     0.000598
      dz2     :     0.000030  d :     0.000087
      dxz     :    -0.000002
      dyz     :     0.000001
      dx2y2   :     0.000049
      dxy     :     0.000009
      f0      :     0.000000  f :     0.000003
      f+1     :     0.000000
      f-1     :     0.000000
      f+2     :     0.000000
      f-2     :     0.000000
      f+3     :    -0.000000
      f-3     :     0.000003
 11 F s       :     0.000043  s :     0.000043
      pz      :    -0.000064  p :     0.001936
      px      :     0.000904
      py      :     0.001095
      dz2     :     0.000002  d :     0.000084
      dxz     :     0.000036
      dyz     :     0.000028
      dx2y2   :     0.000016
      dxy     :     0.000001
      f0      :     0.000000  f :     0.000004
      f+1     :     0.000001
      f-1     :     0.000001
      f+2     :     0.000001
      f-2     :     0.000000
      f+3     :     0.000000
      f-3     :    -0.000000
 12 F s       :     0.002340  s :     0.002340
      pz      :     0.006304  p :     0.031928
      px      :     0.016364
      py      :     0.009259
      dz2     :     0.000060  d :     0.000119
      dxz     :     0.000090
      dyz     :    -0.000002
      dx2y2   :    -0.000050
      dxy     :     0.000020
      f0      :     0.000001  f :     0.000001
      f+1     :     0.000000
      f-1     :     0.000002
      f+2     :    -0.000001
      f-2     :    -0.000000
      f+3     :     0.000002
      f-3     :    -0.000004
 13 F s       :     0.000443  s :     0.000443
      pz      :     0.004971  p :     0.011027
      px      :     0.002180
      py      :     0.003876
      dz2     :    -0.000061  d :    -0.000071
      dxz     :    -0.000048
      dyz     :     0.000036
      dx2y2   :    -0.000006
      dxy     :     0.000009
      f0      :    -0.000004  f :    -0.000007
      f+1     :    -0.000003
      f-1     :     0.000001
      f+2     :    -0.000001
      f-2     :    -0.000000
      f+3     :     0.000000
      f-3     :     0.000000
 14 F s       :     0.002068  s :     0.002068
      pz      :     0.005108  p :     0.097613
      px      :     0.006791
      py      :     0.085714
      dz2     :     0.003286  d :     0.010286
      dxz     :     0.000709
      dyz     :     0.004935
      dx2y2   :     0.001323
      dxy     :     0.000033
      f0      :     0.000250  f :     0.000545
      f+1     :     0.000048
      f-1     :     0.000097
      f+2     :     0.000135
      f-2     :     0.000002
      f+3     :     0.000002
      f-3     :     0.000010
 15 F s       :     0.001243  s :     0.001243
      pz      :     0.005762  p :     0.012864
      px      :     0.006519
      py      :     0.000583
      dz2     :    -0.000066  d :    -0.000077
      dxz     :    -0.000016
      dyz     :     0.000027
      dx2y2   :     0.000024
      dxy     :    -0.000046
      f0      :    -0.000003  f :    -0.000005
      f+1     :    -0.000000
      f-1     :     0.000000
      f+2     :    -0.000001
      f-2     :    -0.000001
      f+3     :     0.000001
      f-3     :    -0.000001
 16 F s       :     0.000848  s :     0.000848
      pz      :     0.006975  p :     0.007033
      px      :    -0.000105
      py      :     0.000163
      dz2     :    -0.000027  d :    -0.000160
      dxz     :    -0.000043
      dyz     :     0.000018
      dx2y2   :    -0.000011
      dxy     :    -0.000097
      f0      :    -0.000002  f :    -0.000009
      f+1     :     0.000001
      f-1     :     0.000000
      f+2     :    -0.000001
      f-2     :    -0.000006
      f+3     :    -0.000002
      f-3     :    -0.000000
 17 F s       :     0.000214  s :     0.000214
      pz      :     0.000784  p :     0.000915
      px      :     0.000539
      py      :    -0.000409
      dz2     :     0.000002  d :     0.000215
      dxz     :     0.000012
      dyz     :     0.000013
      dx2y2   :     0.000197
      dxy     :    -0.000009
      f0      :     0.000000  f :     0.000013
      f+1     :     0.000001
      f-1     :     0.000002
      f+2     :     0.000002
      f-2     :     0.000002
      f+3     :     0.000001
      f-3     :     0.000006
 18 F s       :     0.000089  s :     0.000089
      pz      :    -0.000401  p :     0.000646
      px      :    -0.000057
      py      :     0.001104
      dz2     :     0.000020  d :     0.000199
      dxz     :     0.000016
      dyz     :     0.000075
      dx2y2   :     0.000090
      dxy     :    -0.000002
      f0      :     0.000001  f :     0.000012
      f+1     :     0.000002
      f-1     :     0.000003
      f+2     :     0.000005
      f-2     :    -0.000000
      f+3     :     0.000000
      f-3     :     0.000000
 19 F s       :     0.000037  s :     0.000037
      pz      :     0.000030  p :    -0.000088
      px      :    -0.000055
      py      :    -0.000062
      dz2     :     0.000001  d :     0.000019
      dxz     :    -0.000001
      dyz     :     0.000000
      dx2y2   :     0.000003
      dxy     :     0.000016
      f0      :    -0.000000  f :     0.000001
      f+1     :     0.000000
      f-1     :     0.000000
      f+2     :     0.000000
      f-2     :    -0.000000
      f+3     :     0.000001
      f-3     :     0.000000
 20 F s       :     0.000002  s :     0.000002
      pz      :    -0.000061  p :     0.000247
      px      :     0.000064
      py      :     0.000243
      dz2     :     0.000006  d :     0.000041
      dxz     :     0.000031
      dyz     :     0.000002
      dx2y2   :    -0.000001
      dxy     :     0.000004
      f0      :     0.000001  f :     0.000002
      f+1     :     0.000001
      f-1     :     0.000000
      f+2     :     0.000000
      f-2     :     0.000000
      f+3     :    -0.000000
      f-3     :     0.000000
 21 F s       :    -0.000004  s :    -0.000004
      pz      :     0.000011  p :    -0.000036
      px      :     0.000006
      py      :    -0.000052
      dz2     :     0.000000  d :     0.000006
      dxz     :     0.000002
      dyz     :     0.000002
      dx2y2   :     0.000003
      dxy     :    -0.000001
      f0      :     0.000000  f :     0.000001
      f+1     :     0.000000
      f-1     :     0.000000
      f+2     :     0.000000
      f-2     :     0.000000
      f+3     :    -0.000000
      f-3     :     0.000000
 22 F s       :     0.000041  s :     0.000041
      pz      :     0.000064  p :     0.000632
      px      :     0.000454
      py      :     0.000114
      dz2     :     0.000005  d :     0.000026
      dxz     :     0.000003
      dyz     :     0.000001
      dx2y2   :     0.000012
      dxy     :     0.000005
      f0      :     0.000000  f :     0.000001
      f+1     :     0.000000
      f-1     :    -0.000000
      f+2     :    -0.000000
      f-2     :     0.000000
      f+3     :     0.000001
      f-3     :     0.000000
 23 F s       :     0.000000  s :     0.000000
      pz      :    -0.000006  p :     0.000043
      px      :    -0.000016
      py      :     0.000064
      dz2     :     0.000006  d :     0.000010
      dxz     :    -0.000001
      dyz     :     0.000005
      dx2y2   :     0.000000
      dxy     :     0.000001
      f0      :     0.000000  f :     0.000001
      f+1     :     0.000000
      f-1     :     0.000000
      f+2     :     0.000000
      f-2     :     0.000000
      f+3     :    -0.000000
      f-3     :     0.000000


                      *****************************
                      * MAYER POPULATION ANALYSIS *
                      *****************************

  NA   - Mulliken gross atomic population
  ZA   - Total nuclear charge
  QA   - Mulliken gross atomic charge
  VA   - Mayer's total valence
  BVA  - Mayer's bonded valence
  FA   - Mayer's free valence

  ATOM       NA         ZA         QA         VA         BVA        FA
  0 C      5.8583     6.0000     0.1417     4.6800     4.6800     0.0000
  1 O      8.4784     8.0000    -0.4784     1.9723     1.9723     0.0000
  2 O      8.4857     8.0000    -0.4857     1.9620     1.9620     0.0000
  3 C      5.6361     6.0000     0.3639     3.8057     3.8057     0.0000
  4 C      5.6629     6.0000     0.3371     4.0757     4.0730     0.0026
  5 C      5.8792     6.0000     0.1208     3.8791     3.2985     0.5805
  6 C      5.6157     6.0000     0.3843     4.2242     4.2213     0.0029
  7 C      5.7038     6.0000     0.2962     4.0709     4.0701     0.0008
  8 C      5.6750     6.0000     0.3250     4.1626     4.1626     0.0000
  9 C      5.5234     6.0000     0.4766     4.5069     4.5069     0.0000
 10 F      9.2185     9.0000    -0.2185     1.0672     1.0672     0.0000
 11 F      9.2198     9.0000    -0.2198     1.0605     1.0605     0.0000
 12 F      9.1969     9.0000    -0.1969     1.0967     1.0956     0.0011
 13 F      9.1991     9.0000    -0.1991     1.0996     1.0995     0.0001
 14 F      9.1496     9.0000    -0.1496     1.1853     1.1739     0.0113
 15 F      9.1791     9.0000    -0.1791     1.1298     1.1295     0.0002
 16 F      9.1741     9.0000    -0.1741     1.1364     1.1363     0.0001
 17 F      9.1753     9.0000    -0.1753     1.1432     1.1432     0.0000
 18 F      9.1736     9.0000    -0.1736     1.1474     1.1474     0.0000
 19 F      9.1674     9.0000    -0.1674     1.1505     1.1505     0.0000
 20 F      9.1651     9.0000    -0.1651     1.1503     1.1503     0.0000
 21 F      9.1559     9.0000    -0.1559     1.1618     1.1618     0.0000
 22 F      9.1540     9.0000    -0.1540     1.1654     1.1654     0.0000
 23 F      9.1531     9.0000    -0.1531     1.1652     1.1652     0.0000

  Mayer bond orders larger than 0.100000
B(  0-C ,  1-O ) :   1.8976 B(  0-C ,  2-O ) :   1.8833 B(  0-C ,  3-C ) :   0.8355 
B(  3-C ,  4-C ) :   0.9113 B(  3-C , 10-F ) :   1.0377 B(  3-C , 11-F ) :   1.0227 
B(  4-C ,  5-C ) :   1.0101 B(  4-C , 12-F ) :   1.0619 B(  4-C , 13-F ) :   1.0430 
B(  5-C ,  6-C ) :   1.0433 B(  5-C , 14-F ) :   1.1204 B(  6-C ,  7-C ) :   0.9141 
B(  6-C , 15-F ) :   1.0684 B(  6-C , 16-F ) :   1.0917 B(  7-C ,  8-C ) :   0.9159 
B(  7-C , 17-F ) :   1.0745 B(  7-C , 18-F ) :   1.0886 B(  8-C ,  9-C ) :   0.9653 
B(  8-C , 19-F ) :   1.0867 B(  8-C , 20-F ) :   1.0961 B(  9-C , 21-F ) :   1.1434 
B(  9-C , 22-F ) :   1.1465 B(  9-C , 23-F ) :   1.1546 

-------
TIMINGS
-------

Total SCF time: 0 days 0 hours 1 min 13 sec 

Total time                  ....      73.703 sec
Sum of individual times     ....      71.188 sec  ( 96.6%)

Fock matrix formation       ....      62.241 sec  ( 84.4%)
  Split-RI-J                ....       4.181 sec  (  6.7% of F)
  Chain of spheres X        ....      44.051 sec  ( 70.8% of F)
  XC integration            ....       8.058 sec  ( 12.9% of F)
    Basis function eval.    ....       0.762 sec  (  9.5% of XC)
    Density eval.           ....       2.420 sec  ( 30.0% of XC)
    XC-Functional eval.     ....       0.300 sec  (  3.7% of XC)
    XC-Potential eval.      ....       1.521 sec  ( 18.9% of XC)
Diagonalization             ....       3.904 sec  (  5.3%)
Density matrix formation    ....       0.146 sec  (  0.2%)
Population analysis         ....       0.320 sec  (  0.4%)
Initial guess               ....       0.530 sec  (  0.7%)
Orbital Transformation      ....       0.000 sec  (  0.0%)
Orbital Orthonormalization  ....       0.457 sec  (  0.6%)
DIIS solution               ....       1.588 sec  (  2.2%)
Grid generation             ....       2.459 sec  (  3.3%)

Maximum memory used throughout the entire SCF-calculation: 160.6 MB


-------------------------------------------------------------------------------
                          DFT DISPERSION CORRECTION                            
                                                                               
                              DFTD3 V3.1  Rev 1                                
                          USING Becke-Johnson damping                          
-------------------------------------------------------------------------------
The B3LYP functional is recognized
Active option DFTDOPT                   ...         4   

molecular C6(AA) [au] = 6299.666246 


            DFT-D V3
 parameters
 s6 scaling factor         :     1.0000 
 a1 scaling factor         :     0.3981 
 s8 scaling factor         :     1.9889 
 a2 scaling factor         :     4.4211 
 ad hoc parameters k1-k3   :    16.0000     1.3333    -4.0000 

 Edisp/kcal,au: -26.401278018056  -0.042073110117 
 E6   /kcal   : -12.523979410 
 E8   /kcal   : -13.877298608 
 % E8         :  52.562980467 

-------------------------   ----------------
Dispersion correction           -0.042073110
-------------------------   ----------------


-------------------------   --------------------
FINAL SINGLE POINT ENERGY     -1853.284157295169
-------------------------   --------------------

                                *** OPTIMIZATION RUN DONE ***

                            ***************************************
                            *     ORCA property calculations      *
                            ***************************************

                                    ---------------------
                                    Active property flags
                                    ---------------------
   (+) Dipole Moment


------------------------------------------------------------------------------
                       ORCA ELECTRIC PROPERTIES CALCULATION
------------------------------------------------------------------------------

Dipole Moment Calculation                       ... on
Quadrupole Moment Calculation                   ... off
Polarizability Calculation                      ... off
GBWName                                         ... rf_mecn_opt_B3L_C4_D_B.gbw
Electron density                                ... rf_mecn_opt_B3L_C4_D_B.scfp
The origin for moment calculation is the CENTER OF MASS  = (-0.164219,  0.097554  0.061858)

-------------
DIPOLE MOMENT
-------------
                                X             Y             Z
Electronic contribution:    -17.08347       1.75441       3.84503
Nuclear contribution   :      9.04781      -0.82586      -1.89619
                        -----------------------------------------
Total Dipole Moment    :     -8.03566       0.92855       1.94884
                        -----------------------------------------
Magnitude (a.u.)       :      8.32058
Magnitude (Debye)      :     21.14923



--------------------
Rotational spectrum 
--------------------
 
Rotational constants in cm-1:     0.018114     0.004326     0.004135 
Rotational constants in MHz :   543.055323   129.683753   123.969688 

 Dipole components along the rotational axes: 
x,y,z [a.u.] :    -8.010479     2.117031     0.763166 
x,y,z [Debye]:   -20.361020     5.381066     1.939815 

 

Timings for individual modules:

Sum of individual times         ...     2998.135 sec (=  49.969 min)
GTO integral calculation        ...       28.560 sec (=   0.476 min)   1.0 %
SCF iterations                  ...     2428.458 sec (=  40.474 min)  81.0 %
SCF Gradient evaluation         ...      539.427 sec (=   8.990 min)  18.0 %
Geometry relaxation             ...        1.691 sec (=   0.028 min)   0.1 %
                             ****ORCA TERMINATED NORMALLY****
TOTAL RUN TIME: 0 days 0 hours 50 minutes 9 seconds 580 msec
