
                                 *****************
                                 * O   R   C   A *
                                 *****************

                                            #,                                       
                                            ###                                      
                                            ####                                     
                                            #####                                    
                                            ######                                   
                                           ########,                                 
                                     ,,################,,,,,                         
                               ,,#################################,,                 
                          ,,##########################################,,             
                       ,#########################################, ''#####,          
                    ,#############################################,,   '####,        
                  ,##################################################,,,,####,       
                ,###########''''           ''''###############################       
              ,#####''   ,,,,##########,,,,          '''####'''          '####       
            ,##' ,,,,###########################,,,                        '##       
           ' ,,###''''                  '''############,,,                           
         ,,##''                                '''############,,,,        ,,,,,,###''
      ,#''                                            '''#######################'''  
     '                                                          ''''####''''         
             ,#######,   #######,   ,#######,      ##                                
            ,#'     '#,  ##    ##  ,#'     '#,    #''#        ,####,   ,####,        
            ##       ##  ##   ,#'  ##            #'  '#       #'       #'  '#        
            ##       ##  #######   ##           ,######,      #####,   #    #        
            '#,     ,#'  ##    ##  '#,     ,#' ,#      #,     #,   #   #,  ,#        
             '#######'   ##     ##  '#######'  #'      '#     '####' # '####'        



                #########################################################
                #                        -***-                          #
                #          Department of theory and spectroscopy        #
                #                                                       #
                #                      Frank Neese                      #
                #                                                       #
                #     Directorship, Architecture, Infrastructure        #
                #                    SHARK, DRIVERS                     #
                #        Core code/Algorithms in most modules           #
                #                                                       #
                #        Max Planck Institute fuer Kohlenforschung      #
                #                Kaiser Wilhelm Platz 1                 #
                #                 D-45470 Muelheim/Ruhr                 #
                #                      Germany                          #
                #                                                       #
                #                  All rights reserved                  #
                #                        -***-                          #
                #########################################################


                         Program Version 6.0.1  -  RELEASE   -


 With contributions from (in alphabetic order):
[Max-Planck-Institut fuer Kohlenforschung]                               
  Daniel Aravena         : Magnetic Suceptibility                        
  Michael Atanasov       : Ab Initio Ligand Field Theory (pilot matlab implementation)
  Alexander A. Auer      : GIAO ZORA, VPT2 properties, NMR spectrum      
  Ute Becker             : All parallelization in ORCA, NUMFREQ, NUMCALC 
  Giovanni Bistoni       : ED, misc. LED, open-shell LED, HFLD           
  Martin Brehm           : Molecular dynamics                            
  Dmytro Bykov           : pre 5.0 version of the SCF Hessian            
  Marcos Casanova-Páez   : Triplet and SCS-CIS(D). UHF-(DLPNO)-IP/EA/STEOM-CCSD. UHF-CVS-IP/STEOM-CCSD   
  Vijay G. Chilkuri      : MRCI spin determinant printing, contributions to CSF-ICE 
  Pauline Colinet        : FMM embedding                                 
  Dipayan Datta          : RHF DLPNO-CCSD density                        
  Achintya Kumar Dutta   : EOM-CC, STEOM-CC                              
  Nicolas Foglia         : Exact transition moments, OPA infrastructure, MCD improvements    
  Dmitry Ganyushin       : Spin-Orbit,Spin-Spin,Magnetic field MRCI      
  Miquel Garcia-Rates    : C-PCM and meta-GGA Hessian, CCSD/C-PCM, Gaussian charge scheme 
  Tiago L. C. Gouveia    : GS-ROHF, GS-ROCIS                             
  Yang Guo               : DLPNO-NEVPT2, F12-NEVPT2, CIM, IAO-localization        
  Andreas Hansen         : Spin unrestricted coupled pair/coupled cluster methods 
  Ingolf Harden          : AUTO-CI MPn and infrastructure                
  Benjamin Helmich-Paris : MC-RPA, TRAH-(SCF,CASSCF), AVAS, COSX integrals, SCF dyn. polar. 
  Lee Huntington         : MR-EOM, pCC                                   
  Robert Izsak           : Overlap fitted RIJCOSX, COSX-SCS-MP3, EOM     
  Riya Kayal             : Wick's Theorem for AUTO-CI, AUTO-CI UHF-CCSDT 
  Emily Kempfer          : AUTO-CI, RHF CISDT and CCSDT                  
  Christian Kollmar      : KDIIS, OOCD, Brueckner-CCSD(T), CCSD density, CASPT2, CASPT2-K, improved NEVPT2 
  Axel Koslowski         : Symmetry handling                             
  Simone Kossmann        : meta-GGA functionals, TD-DFT gradient, OOMP2, (MP2 Hessian; deprecated post 5.0) 
  Lucas Lang             : DCDCAS                                        
  Marvin Lechner         : AUTO-CI (C++ implementation), FIC-MRCC        
  Spencer Leger          : CASSCF response                               
  Dagmar Lenk            : GEPOL surface, SMD, ORCA-2-JSON               
  Dimitrios Liakos       : Extrapolation schemes; Compound Job, initial MDCI parallelization 
  Dimitrios Manganas     : Further ROCIS development; embedding schemes. LFT, Crystal Embedding 
  Dimitrios Pantazis     : SARC Basis sets                               
  Anastasios Papadopoulos: AUTO-CI, single reference methods and gradients 
  Taras Petrenko         : pre 6.0 DFT Hessian and TD-DFT gradient, (ASA, deprecated), ECA, 1-Electron XAS/XES, NRVS 
  Peter Pinski           : DLPNO-MP2, DLPNO-MP2 Gradient                 
  Christoph Reimann      : Effective Core Potentials                     
  Marius Retegan         : Local ZFS, SOC                                
  Christoph Riplinger    : Optimizer, TS searches, QM/MM, DLPNO-CCSD(T), (RO)-DLPNO pert. Triples 
  Michael Roemelt        : Original ROCIS implementation                 
  Masaaki Saitow         : Open-shell DLPNO-CCSD energy and density      
  Barbara Sandhoefer     : DKH picture change effects                    
  Kantharuban Sivalingam : CASSCF convergence/infrastructure, NEVPT2 and variants, FIC-MRCI 
  Bernardo de Souza      : ESD, SOC TD-DFT                               
  Georgi L. Stoychev     : AutoAux, RI-MP2 NMR, DLPNO-MP2 response, X2C  
  Van Anh Tran           : RI-MP2 g-tensors                              
  Willem Van den Heuvel  : Paramagnetic NMR                              
  Zikuan Wang            : NOTCH, Electric field optimization            
  Frank Wennmohs         : Technical directorship and infrastructure     
  Hang Xu                : AUTO-CI-Response properties                   
                                                                         
[FACCTs GmbH]                                                            
  Markus Bursch, Miquel Garcia-Rates, Christoph Riplinger, Bernardo de Souza, Georgi L. Stoychev 
                                                                 
  APM, Basis sets (HGBS, AHGBS, def-TZVP (Ac-Lr), def2-XVPD (La-Lu)), CI-OPT, improved COSX, DLPNO-Multilevel,           
  DOCKER, DRACO, updates on ESD, GOAT, IRC, LR-CPCM, MBIS, meta-GGA TD-DFT gradient, ML-optimized integration grids, 
  MM, NACMEs, nearIR, NEB, NEB-TS, NL-DFT gradient (VV10), 2- and 3-layer-ONIOM, interface openCOSMO-RS, QMMM,   
  Crystal-QMMM, SF, symmetry and pop. for TD-DFT, r2SCAN hybrids, SOLVATOR                                   
                                                                         
[Other institutions]                                                     
  V. Asgeirsson          : NEB                                           
  Christoph Bannwarth    : sTDA-DFT, sTD-DFT, PBEh-3c, B97-3c, D3        
  Sebastian Ehlert       : rSCAN, r2SCAN, r2SCAN-3c, D4, dhf basis sets  
  Marvin Friede          : D4 for Fr, Ra, Ac-Lr                          
  Lars Goerigk           : TD-DFT with DH, B97 family of functionals     
  Stefan Grimme          : VdW corrections, initial TS optimization, DFT functionals, gCP, sTDA/sTD-DF 
  Waldemar Hujo          : DFT-NL                                        
  H. Jonsson             : NEB                                           
  Holger Kruse           : gCP                                           
  Marcel Mueller         : wB97X-3c, vDZP basis set                      
  Hagen Neugebauer       : wr2SCAN                                       
  Tobias Risthaus        : range-separated hybrid DFT                    
  Lukas Wittmann         : regularized MP2, r2SCAN double-hybrids, wr2SCAN        
                                                                         
We gratefully acknowledge several colleagues who have allowed us to      
interface, adapt or use parts of their codes:                            
  Ed Valeev, F. Pavosevic, A. Kumar             : LibInt (2-el integral package), F12 methods 
  Garnet Chan, S. Sharma, J. Yang, R. Olivares  : DMRG                   
  Ulf Ekstrom                                   : XCFun DFT Library      
  Mihaly Kallay                                 : mrcc  (arbitrary order and MRCC methods)
  Frank Weinhold                                : gennbo (NPA and NBO analysis)           
  Simon Mueller                                 : openCOSMO-RS                            
  Christopher J. Cramer and Donald G. Truhlar   : smd solvation model                     
  S Lehtola, MJT Oliveira, MAL Marques          : LibXC Library                           
  Liviu Ungur et al                             : ANISO software                          


 Your calculation uses the libint2 library for the computation of 2-el integrals
 For citations please refer to: http://libint.valeyev.net

 Your ORCA version has been built with support for libXC version: 6.2.2
 For citations please refer to: https://libxc.gitlab.io

 This ORCA versions uses:
   CBLAS   interface :  Fast vector & matrix operations
   LAPACKE interface :  Fast linear algebra routines
   SCALAPACK package :  Parallel linear algebra routines
   Shared memory     :  Shared parallel matrices
   BLAS/LAPACK       :  OpenBLAS 0.3.27  USE64BITINT DYNAMIC_ARCH NO_AFFINITY SkylakeX SINGLE_THREADED
        Core in use  :  SkylakeX
   Copyright (c) 2011-2014, The OpenBLAS Project


NOTE: MaxCore=8000 MB was set to SCF,MP2,MDCI,CIPSI,MRCI and CIS
      => If you want to overwrite this, your respective input block should be placed after the MaxCore statement
Your calculation utilizes the atom-pairwise dispersion correction
with the Becke-Johnson damping scheme (D3BJ)


Your calculation utilizes the SMD solvation module
Please cite in your paper:
A.V. Marenich, C.J. Cramer, D.G. Truhlar J. Phys. Chem. B, 113, (2009), 6378 

Warning: RI is on but no J-basis has been assigned. Assigning Def2/J (nothing to worry about!)
================================================================================

----- Orbital basis set information -----
Your calculation utilizes the basis: def2-TZVP
   F. Weigend and R. Ahlrichs, Phys. Chem. Chem. Phys. 7, 3297 (2005).

----- AuxJ basis set information -----
Your calculation utilizes the auxiliary basis: def2/J
   F. Weigend, Phys. Chem. Chem. Phys. 8, 1057 (2006).

================================================================================
                                        WARNINGS
                       Please study these warnings very carefully!
================================================================================


WARNING: your system is open-shell and RHF/RKS was chosen
  ===> : WILL SWITCH to UHF/UKS


================================================================================
                                       INPUT FILE
================================================================================
NAME = rf_mecn_freq_TP_C5_D_B.inp
|  1> !TPSSh def2-TZVP freq d3 TightSCF SlowConv defgrid2
|  2>  
|  3> %pal
|  4> nprocs 20
|  5> end
|  6>  
|  7> %scf
|  8> MaxIter 1500
|  9> end
| 10>  
| 11> %maxcore 8000
| 12>  
| 13> !CPCM
| 14> %cpcm smd true
| 15> SMDsolvent "ACETONITRILE"
| 16> end
| 17>  
| 18> * xyz -1 2
| 19> 6        3.957348000      0.542639000     -1.250478000
| 20> 8        4.443986000     -0.252664000     -2.069155000
| 21> 8        3.879459000      1.784970000     -1.239904000
| 22> 6        3.308008000     -0.122027000      0.031213000
| 23> 6        1.772591000      0.099396000      0.110083000
| 24> 6        0.959022000     -0.863241000      1.037281000
| 25> 6       -0.460066000     -0.425144000      1.275775000
| 26> 6       -1.686356000     -0.759671000      0.487756000
| 27> 6       -2.548277000      0.496505000      0.123186000
| 28> 6       -3.630746000      0.262935000     -0.975639000
| 29> 9        3.533259000     -1.470751000      0.085545000
| 30> 9        3.865154000      0.402091000      1.170529000
| 31> 9        1.516277000      1.360249000      0.544416000
| 32> 9        1.251766000     -0.026983000     -1.141404000
| 33> 9        0.960035000     -2.109215000      0.501797000
| 34> 9        1.587882000     -0.910904000      2.244708000
| 35> 9       -0.645865000      0.405551000      2.293893000
| 36> 9       -2.495213000     -1.602781000      1.201827000
| 37> 9       -1.341696000     -1.394004000     -0.656929000
| 38> 9       -1.726978000      1.474908000     -0.319646000
| 39> 9       -3.176893000      0.931969000      1.235869000
| 40> 9       -4.390684000     -0.797269000     -0.681383000
| 41> 9       -4.416485000      1.343580000     -1.045073000
| 42> 9       -3.065047000      0.073903000     -2.169816000
| 43> *
| 44> 
| 45>                          ****END OF INPUT****
================================================================================

                       ****************************
                       * Single Point Calculation *
                       ****************************

---------------------------------
CARTESIAN COORDINATES (ANGSTROEM)
---------------------------------
  C      3.957348    0.542639   -1.250478
  O      4.443986   -0.252664   -2.069155
  O      3.879459    1.784970   -1.239904
  C      3.308008   -0.122027    0.031213
  C      1.772591    0.099396    0.110083
  C      0.959022   -0.863241    1.037281
  C     -0.460066   -0.425144    1.275775
  C     -1.686356   -0.759671    0.487756
  C     -2.548277    0.496505    0.123186
  C     -3.630746    0.262935   -0.975639
  F      3.533259   -1.470751    0.085545
  F      3.865154    0.402091    1.170529
  F      1.516277    1.360249    0.544416
  F      1.251766   -0.026983   -1.141404
  F      0.960035   -2.109215    0.501797
  F      1.587882   -0.910904    2.244708
  F     -0.645865    0.405551    2.293893
  F     -2.495213   -1.602781    1.201827
  F     -1.341696   -1.394004   -0.656929
  F     -1.726978    1.474908   -0.319646
  F     -3.176893    0.931969    1.235869
  F     -4.390684   -0.797269   -0.681383
  F     -4.416485    1.343580   -1.045073
  F     -3.065047    0.073903   -2.169816

----------------------------
CARTESIAN COORDINATES (A.U.)
----------------------------
  NO LB      ZA    FRAG     MASS         X           Y           Z
   0 C     6.0000    0    12.011    7.478304    1.025439   -2.363061
   1 O     8.0000    0    15.999    8.397916   -0.477466   -3.910136
   2 O     8.0000    0    15.999    7.331115    3.373104   -2.343079
   3 C     6.0000    0    12.011    6.251229   -0.230598    0.058984
   4 C     6.0000    0    12.011    3.349712    0.187831    0.208027
   5 C     6.0000    0    12.011    1.812289   -1.631289    1.960177
   6 C     6.0000    0    12.011   -0.869399   -0.803406    2.410865
   7 C     6.0000    0    12.011   -3.186751   -1.435570    0.921725
   8 C     6.0000    0    12.011   -4.815546    0.938258    0.232788
   9 C     6.0000    0    12.011   -6.861116    0.496875   -1.843691
  10 F     9.0000    0    18.998    6.676892   -2.779317    0.161657
  11 F     9.0000    0    18.998    7.304083    0.759842    2.211979
  12 F     9.0000    0    18.998    2.865348    2.570498    1.028797
  13 F     9.0000    0    18.998    2.365495   -0.050990   -2.156941
  14 F     9.0000    0    18.998    1.814203   -3.985839    0.948259
  15 F     9.0000    0    18.998    3.000662   -1.721359    4.241883
  16 F     9.0000    0    18.998   -1.220508    0.766380    4.334830
  17 F     9.0000    0    18.998   -4.715269   -3.028817    2.271124
  18 F     9.0000    0    18.998   -2.535438   -2.634286   -1.241416
  19 F     9.0000    0    18.998   -3.263515    2.787172   -0.604043
  20 F     9.0000    0    18.998   -6.003458    1.761166    2.335454
  21 F     9.0000    0    18.998   -8.297190   -1.506620   -1.287627
  22 F     9.0000    0    18.998   -8.345947    2.538998   -1.974902
  23 F     9.0000    0    18.998   -5.792099    0.139656   -4.100358

--------------------------------
INTERNAL COORDINATES (ANGSTROEM)
--------------------------------
 C      0   0   0     0.000000000000     0.00000000     0.00000000
 O      1   0   0     1.240788231401     0.00000000     0.00000000
 O      1   2   0     1.244815174778   132.05408187     0.00000000
 C      1   2   3     1.583084061772   115.21054927   180.05393534
 C      4   1   2     1.553304215445   112.74989234   245.36146405
 C      5   4   1     1.564691868303   117.15218388   160.78506302
 C      6   5   4     1.504200492351   113.91020864   168.51810491
 C      7   6   5     1.495549872853   128.67292404    89.87625843
 C      8   7   6     1.566460097837   113.23015436   229.14632653
 C      9   8   7     1.560035403921   115.19236573   165.67840396
 F      4   1   2     1.368483250683   112.23599550     6.97986454
 F      4   1   2     1.372279960903   110.19923373   124.93952494
 F      5   4   1     1.357973603975   109.58279027   282.16373934
 F      5   4   1     1.361414721323   108.55698464    39.82595683
 F      6   5   4     1.356169365935   109.32144456   291.13397664
 F      6   5   4     1.362210197252   107.86252127    48.93970492
 F      7   6   5     1.327079392256   115.85100917   272.39764489
 F      8   7   6     1.369299642733   110.32269046   109.43576654
 F      8   7   6     1.353319112299   109.98036339   350.85601260
 F      9   8   7     1.352000243356   108.80237037    45.05500532
 F      9   8   7     1.350129782369   108.84631950   286.84598742
 F     10   9   8     1.337207866787   110.97990630    51.43417967
 F     10   9   8     1.337908992608   108.85218820   170.83253645
 F     10   9   8     1.334843497551   110.93298390   290.11226676

---------------------------
INTERNAL COORDINATES (A.U.)
---------------------------
 C      0   0   0     0.000000000000     0.00000000     0.00000000
 O      1   0   0     2.344749947539     0.00000000     0.00000000
 O      1   2   0     2.352359767680   132.05408187     0.00000000
 C      1   2   3     2.991595323725   115.21054927   180.05393534
 C      4   1   2     2.935319569856   112.74989234   245.36146405
 C      5   4   1     2.956839115067   117.15218388   160.78506302
 C      6   5   4     2.842526981053   113.91020864   168.51810491
 C      7   6   5     2.826179679313   128.67292404    89.87625843
 C      8   7   6     2.960180584628   113.23015436   229.14632653
 C      9   8   7     2.948039672631   115.19236573   165.67840396
 F      4   1   2     2.586058562650   112.23599550     6.97986454
 F      4   1   2     2.593233305175   110.19923373   124.93952494
 F      5   4   1     2.566198208608   109.58279027   282.16373934
 F      5   4   1     2.572700977989   108.55698464    39.82595683
 F      6   5   4     2.562788692831   109.32144456   291.13397664
 F      6   5   4     2.574204209642   107.86252127    48.93970492
 F      7   6   5     2.507816609334   115.85100917   272.39764489
 F      8   7   6     2.587601320042   110.32269046   109.43576654
 F      8   7   6     2.557402494047   109.98036339   350.85601260
 F      9   8   7     2.554910192937   108.80237037    45.05500532
 F      9   8   7     2.551375533929   108.84631950   286.84598742
 F     10   9   8     2.526956652352   110.97990630    51.43417967
 F     10   9   8     2.528281588140   108.85218820   170.83253645
 F     10   9   8     2.522488642017   110.93298390   290.11226676

---------------------
BASIS SET INFORMATION
---------------------
There are 3 groups of distinct atoms

 Group   1 Type C   : 11s6p2d1f contracted to 5s3p2d1f pattern {62111/411/11/1}
 Group   2 Type O   : 11s6p2d1f contracted to 5s3p2d1f pattern {62111/411/11/1}
 Group   3 Type F   : 11s6p2d1f contracted to 5s3p2d1f pattern {62111/411/11/1}

Atom   0C    basis set group =>   1
Atom   1O    basis set group =>   2
Atom   2O    basis set group =>   2
Atom   3C    basis set group =>   1
Atom   4C    basis set group =>   1
Atom   5C    basis set group =>   1
Atom   6C    basis set group =>   1
Atom   7C    basis set group =>   1
Atom   8C    basis set group =>   1
Atom   9C    basis set group =>   1
Atom  10F    basis set group =>   3
Atom  11F    basis set group =>   3
Atom  12F    basis set group =>   3
Atom  13F    basis set group =>   3
Atom  14F    basis set group =>   3
Atom  15F    basis set group =>   3
Atom  16F    basis set group =>   3
Atom  17F    basis set group =>   3
Atom  18F    basis set group =>   3
Atom  19F    basis set group =>   3
Atom  20F    basis set group =>   3
Atom  21F    basis set group =>   3
Atom  22F    basis set group =>   3
Atom  23F    basis set group =>   3
---------------------------------
AUXILIARY/J BASIS SET INFORMATION
---------------------------------
There are 3 groups of distinct atoms

 Group   1 Type C   : 12s5p4d2f1g contracted to 6s4p3d1f1g pattern {711111/2111/211/2/1}
 Group   2 Type O   : 12s5p4d2f1g contracted to 6s4p3d1f1g pattern {711111/2111/211/2/1}
 Group   3 Type F   : 12s5p4d2f1g contracted to 6s4p3d1f1g pattern {711111/2111/211/2/1}

Atom   0C    basis set group =>   1
Atom   1O    basis set group =>   2
Atom   2O    basis set group =>   2
Atom   3C    basis set group =>   1
Atom   4C    basis set group =>   1
Atom   5C    basis set group =>   1
Atom   6C    basis set group =>   1
Atom   7C    basis set group =>   1
Atom   8C    basis set group =>   1
Atom   9C    basis set group =>   1
Atom  10F    basis set group =>   3
Atom  11F    basis set group =>   3
Atom  12F    basis set group =>   3
Atom  13F    basis set group =>   3
Atom  14F    basis set group =>   3
Atom  15F    basis set group =>   3
Atom  16F    basis set group =>   3
Atom  17F    basis set group =>   3
Atom  18F    basis set group =>   3
Atom  19F    basis set group =>   3
Atom  20F    basis set group =>   3
Atom  21F    basis set group =>   3
Atom  22F    basis set group =>   3
Atom  23F    basis set group =>   3


           ************************************************************
           *        Program running with 20 parallel MPI-processes    *
           *              working on a common directory               *
           ************************************************************
------------------------------------------------------------------------------
                             ORCA STARTUP CALCULATIONS
                           -- RI-GTO INTEGRALS CHOSEN --
------------------------------------------------------------------------------
------------------------------------------------------------------------------
                   ___                                                        
                  /   \      - P O W E R E D   B Y -                         
                 /     \                                                     
                 |  |  |   _    _      __       _____    __    __             
                 |  |  |  | |  | |    /  \     |  _  \  |  |  /  |          
                  \  \/   | |  | |   /    \    | | | |  |  | /  /          
                 / \  \   | |__| |  /  /\  \   | |_| |  |  |/  /          
                |  |  |   |  __  | /  /__\  \  |    /   |      \           
                |  |  |   | |  | | |   __   |  |    \   |  |\   \          
                \     /   | |  | | |  |  |  |  | |\  \  |  | \   \       
                 \___/    |_|  |_| |__|  |__|  |_| \__\ |__|  \__/        
                                                                              
                      - O R C A' S   B I G   F R I E N D -                    
                                      &                                       
                       - I N T E G R A L  F E E D E R -                       
                                                                              
 v1 FN, 2020, v2 2021, v3 2022-2024                                           
------------------------------------------------------------------------------


----------------------
SHARK INTEGRAL PACKAGE
----------------------

Number of atoms                             ...     24
Number of basis functions                   ...    744
Number of shells                            ...    264
Maximum angular momentum                    ...      3
Integral batch strategy                     ... SHARK/LIBINT Hybrid
RI-J (if used) integral strategy            ... SPLIT-RIJ (Revised 2003 algorithm where possible)
Printlevel                                  ...      1
Contraction scheme used                     ... SEGMENTED contraction
Prescreening option                         ... SCHWARTZ
   Thresh                                   ... 2.500e-11
   Tcut                                     ... 2.500e-12
   Tpresel                                  ... 2.500e-12 
Coulomb Range Separation                    ... NOT USED
Exchange Range Separation                   ... NOT USED
Multipole approximations                    ... NOT USED
Finite Nucleus Model                        ... NOT USED
CABS basis                                  ... NOT available
Auxiliary Coulomb fitting basis             ... AVAILABLE
   # of basis functions in Aux-J            ...   1176
   # of shells in Aux-J                     ...    360
   Maximum angular momentum in Aux-J        ...      4
Auxiliary J/K fitting basis                 ... NOT available
Auxiliary Correlation fitting basis         ... NOT available
Auxiliary 'external' fitting basis          ... NOT available

Checking pre-screening integrals            ... done (  0.0 sec) Dimension = 264
Check shell pair data                       ... done (  0.0 sec)
Shell pair information
Shell pair cut-off parameter TPreSel        ...   2.5e-12
Total number of shell pairs                 ...     34980
Shell pairs after pre-screening             ...     22313
Total number of primitive shell pairs       ...    115968
Primitive shell pairs kept                  ...     47303
          la=0 lb=0:   4160 shell pairs
          la=1 lb=0:   6067 shell pairs
          la=1 lb=1:   2114 shell pairs
          la=2 lb=0:   3310 shell pairs
          la=2 lb=1:   2467 shell pairs
          la=2 lb=2:    699 shell pairs
          la=3 lb=0:   1517 shell pairs
          la=3 lb=1:   1192 shell pairs
          la=3 lb=2:    632 shell pairs
          la=3 lb=3:    155 shell pairs

Calculating one electron integrals          ... done (  0.0 sec)
Calculating RI/J V-Matrix + Cholesky decomp.... done (  0.1 sec)
Calculating Nuclear repulsion               ... done (  0.0 sec) ENN=   2649.668981885448 Eh

Diagonalization of the overlap matrix:
Smallest eigenvalue                        ... 7.197e-05
Time for diagonalization                   ...    0.157 sec
Threshold for overlap eigenvalues          ... 1.000e-07
Number of eigenvalues below threshold      ... 0
Time for construction of square roots      ...    0.062 sec
Total time needed                          ...    0.226 sec

-------------------
DFT GRID GENERATION
-------------------

General Integration Accuracy     IntAcc      ... 4.388
Radial Grid Type                 RadialGrid  ... OptM3 with GC (2021)
Angular Grid (max. ang.)         AngularGrid ... 4 (Lebedev-302)
Angular grid pruning method      GridPruning ... 4 (adaptive)
Weight generation scheme         WeightScheme... mBecke (2022)
Basis function cutoff            BFCut       ... 1.0000e-11
Integration weight cutoff        WCut        ... 1.0000e-14
Partially contracted basis set               ... off
Rotationally invariant grid construction     ... off
Angular grids for H and He will be reduced by one unit

Total number of grid points                  ...   145461
Total number of batches                      ...     2285
Average number of points per batch           ...       63
Average number of grid points per atom       ...     6061

--------------------
COSX GRID GENERATION
--------------------

GRIDX 1
-------
General Integration Accuracy     IntAcc      ... 3.816
Radial Grid Type                 RadialGrid  ... OptM3 with GC (2021)
Angular Grid (max. ang.)         AngularGrid ... 1 (Lebedev-50)
Angular grid pruning method      GridPruning ... 4 (adaptive)
Weight generation scheme         WeightScheme... mBecke (2022)
Basis function cutoff            BFCut       ... 1.0000e-11
Integration weight cutoff        WCut        ... 1.0000e-14
Partially contracted basis set               ... on
Rotationally invariant grid construction     ... off
Angular grids for H and He will be reduced by one unit

Total number of grid points                  ...    18265
Total number of batches                      ...      153
Average number of points per batch           ...      119
Average number of grid points per atom       ...      761
UseSFitting                                  ... on

GRIDX 2
-------
General Integration Accuracy     IntAcc      ... 4.020
Radial Grid Type                 RadialGrid  ... OptM3 with GC (2021)
Angular Grid (max. ang.)         AngularGrid ... 2 (Lebedev-110)
Angular grid pruning method      GridPruning ... 4 (adaptive)
Weight generation scheme         WeightScheme... mBecke (2022)
Basis function cutoff            BFCut       ... 1.0000e-11
Integration weight cutoff        WCut        ... 1.0000e-14
Partially contracted basis set               ... on
Rotationally invariant grid construction     ... off
Angular grids for H and He will be reduced by one unit

Total number of grid points                  ...    43279
Total number of batches                      ...      352
Average number of points per batch           ...      122
Average number of grid points per atom       ...     1803
UseSFitting                                  ... on

GRIDX 3
-------
General Integration Accuracy     IntAcc      ... 4.338
Radial Grid Type                 RadialGrid  ... OptM3 with GC (2021)
Angular Grid (max. ang.)         AngularGrid ... 3 (Lebedev-194)
Angular grid pruning method      GridPruning ... 4 (adaptive)
Weight generation scheme         WeightScheme... mBecke (2022)
Basis function cutoff            BFCut       ... 1.0000e-11
Integration weight cutoff        WCut        ... 1.0000e-14
Partially contracted basis set               ... on
Rotationally invariant grid construction     ... off
Angular grids for H and He will be reduced by one unit

Total number of grid points                  ...    95911
Total number of batches                      ...      760
Average number of points per batch           ...      126
Average number of grid points per atom       ...     3996
UseSFitting                                  ... on
Initializing property integral containers    ... done (  0.0 sec)

SHARK setup successfully completed in   3.5 seconds

Maximum memory used throughout the entire STARTUP-calculation: 57.5 MB


           ************************************************************
           *        Program running with 20 parallel MPI-processes    *
           *              working on a common directory               *
           ************************************************************
-------------------------------------------------------------------------------
                                 ORCA GUESS
                   Start orbitals & Density for SCF / CASSCF
-------------------------------------------------------------------------------

------------
SCF SETTINGS
------------
Hamiltonian:
 Density Functional     Method          .... DFT(GTOs)
 Exchange Functional    Exchange        .... TPSS
 Correlation Functional Correlation     .... TPSS
 LDA part of GGA corr.  LDAOpt          .... PW91-LDA
 Gradients option       PostSCFGGA      .... off
 Hybrid DFT is turned on
   Fraction HF Exchange ScalHFX         ....  0.100000
   Scaling of DF-GGA-X  ScalDFX         ....  0.900000
   Scaling of DF-GGA-C  ScalDFC         ....  1.000000
   Scaling of DF-LDA-C  ScalLDAC        ....  1.000000
   Perturbative correction              ....  0.000000
   NL short-range parameter             ....  5.200000
 RI-approximation to the Coulomb term is turned on
   Number of AuxJ basis functions       .... 1176
   RIJ-COSX (HFX calculated with COS-X)).... on


General Settings:
 Integral files         IntName         .... rf_mecn_freq_TP_C5_D_B
 Hartree-Fock type      HFTyp           .... UHF
 Total Charge           Charge          ....   -1
 Multiplicity           Mult            ....    2
 Number of Electrons    NEL             ....  191
 Basis Dimension        Dim             ....  744
 Nuclear Repulsion      ENuc            ....   2649.6689818854 Eh

Convergence Acceleration:
 AO-DIIS                CNVDIIS         .... on
   Start iteration      DIISMaxIt       ....     0
   Startup error        DIISStart       ....  0.200000
   # of expansion vecs  DIISMaxEq       ....     5
   Bias factor          DIISBfac        ....   1.050
   Max. coefficient     DIISMaxC        ....  10.000
 MO-DIIS                CNVKDIIS        .... off
 Trust-Rad. Augm. Hess. CNVTRAH         .... auto
   Auto Start mean grad. ratio tolernc. ....  1.125000
   Auto Start start iteration           ....    50
   Auto Start num. interpolation iter.  ....    10
   Max. Number of Micro iterations      ....    24
   Max. Number of Macro iterations      .... Maxiter - #DIIS iter
   Number of Davidson start vectors     ....     2
   Converg. threshold    (grad. norm)   ....   1.000e-05
   Grad. Scal. Fac. for Micro threshold ....   0.100
   Minimum threshold for Micro iter.    ....   1.000e-02
   NR start threshold (gradient norm)   ....   1.000e-04
   Initial trust radius                 ....   0.400
   Minimum AH scaling param. (alpha)    ....   1.000
   Maximum AH scaling param. (alpha)    .... 1000.000
   Quad. conv. algorithm                .... NR
   White noise on init. David. guess    .... on
   Maximum white noise                  ....   0.010
   Pseudo random numbers                .... off
   Inactive MOs                         .... canonical
   Orbital update algorithm             .... Taylor
   Preconditioner                       .... Diag
   Full preconditioner red. dimension   ....   250
 SOSCF                  CNVSOSCF        .... on
   Start iteration      SOSCFMaxIt      ....   150
   Startup grad/error   SOSCFStart      ....  0.001000
   Hessian update       SOSCFHessUp     .... L-BFGS
 Level Shifting         CNVShift        .... on
   Level shift para.    LevelShift      ....    0.2500
   Turn off err/grad.   ShiftErr        ....    0.0000
 Zerner damping         CNVZerner       .... off
 Static damping         CNVDamp         .... on
   Fraction old density DampFac         ....    0.8500
   Max. Damping (<1)    DampMax         ....    0.9800
   Min. Damping (>=0)   DampMin         ....    0.0000
   Turn off err/grad.   DampErr         ....    0.0300

SCF Procedure:
 Maximum # iterations   MaxIter         ....  1500
 SCF integral mode      SCFMode         .... Direct
   Integral package                     .... SHARK and LIBINT hybrid scheme
 Reset frequency        DirectResetFreq ....    20
 Integral Threshold     Thresh          ....  2.500e-11 Eh
 Primitive CutOff       TCut            ....  2.500e-12 Eh

Convergence Tolerance:
 Convergence Check Mode ConvCheckMode   .... Total+1el-Energy
 Convergence forced     ConvForced      .... 0
 Energy Change          TolE            ....  1.000e-08 Eh
 1-El. energy change                    ....  1.000e-05 Eh
 Orbital Gradient       TolG            ....  1.000e-05
 Orbital Rotation angle TolX            ....  1.000e-05
 DIIS Error             TolErr          ....  5.000e-07

------------------------------
INITIAL GUESS: MODEL POTENTIAL
------------------------------
Loading Hartree-Fock densities                     ... done
Calculating cut-offs                               ... done
Initializing the effective Hamiltonian             ... done
Setting up the integral package (SHARK)            ... done
Starting the Coulomb interaction                   ... done (   0.2 sec)
Making the grid                                    ... done (   0.6 sec)
Mapping shells                                     ... done
Starting the XC term evaluation                    ... done (   0.2 sec)
  promolecular density results
     # of electrons  =    190.001609526
     EX              =   -197.182073536
     EC              =     -6.668262646
     EX+EC           =   -203.850336183
Transforming the Hamiltonian                       ... done (   0.1 sec)
Diagonalizing the Hamiltonian                      ... done (   0.1 sec)
Back transforming the eigenvectors                 ... done (   0.0 sec)
Now organizing SCF variables                       ... done
                      ------------------
                      INITIAL GUESS DONE (   1.3 sec)
                      ------------------
             **** ENERGY FILE WAS UPDATED (rf_mecn_freq_TP_C5_D_B.en.tmp) ****
Finished Guess after   2.0 sec
Maximum memory used throughout the entire GUESS-calculation: 46.4 MB


           ************************************************************
           *        Program running with 20 parallel MPI-processes    *
           *              working on a common directory               *
           ************************************************************

-------------------------------------------------------------------------------------------
                                      ORCA LEAN-SCF
                              memory conserving SCF solver
-------------------------------------------------------------------------------------------

--------------------
CPCM SOLVATION MODEL
--------------------
CPCM parameters:
  Epsilon                                         ...      35.6880
  Refrac                                          ...       1.3442
  Rsolv                                           ...       1.3000
  Surface type                                    ... GAUSSIAN VDW
  Discretization scheme                           ... Constant charge density
    Threshold for H atoms                         ...       5.0000 (charges/Ang^2)
    Threshold for non-H atoms                     ...       5.0000 (charges/Ang^2)
  Epsilon function type                           ...         CPCM
Solvent:                                          ... ACETONITRILE
SMD-CDS solvent descriptors:
  Soln                                            ...       1.3442
  Soln25                                          ...       1.3416
  Sola                                            ...       0.0700
  Solb                                            ...       0.3200
  Solg                                            ...      41.2500
  Solc                                            ...       0.0000
  Solh                                            ...       0.0000
Radii:
  Scheme                                          ... Element-dependent radii
  Radius for C  used is    3.4960 Bohr (=   1.8500 Ang.)
  Radius for O  used is    4.0969 Bohr (=   2.1680 Ang.)
  Radius for F  used is    3.2692 Bohr (=   1.7300 Ang.)
Calculating surface                               ...        done! (  0.0s)
Cavity surface points                             ...         2170
Cavity Volume                                     ...    2116.8336
Cavity Surface-area                               ...    1110.6926
Calculating surface distance matrix               ...        done! (  0.0s)
Performing Cholesky decomposition & store         ...        done! (  0.1s)
Overall time for CPCM initialization              ...                 0.1s

----------------------------------------D-I-I-S--------------------------------------------
Iteration    Energy (Eh)           Delta-E    RMSDP     MaxDP     DIISErr   Damp  Time(sec)
-------------------------------------------------------------------------------------------
               ***  Starting incremental Fock matrix formation  ***
    1    -1853.4905734654957996     0.00e+00  2.55e-04  3.80e-02  1.57e-01  0.850   7.8
Warning: op=0 Small HOMO/LUMO gap (   0.044) - skipping pre-diagonalization
         Will do a full diagonalization
    2    -1853.6283123233761216    -1.38e-01  3.42e-04  7.71e-02  1.08e-01  0.850   5.3
                               ***Turning on AO-DIIS***
    3    -1853.7019410416314713    -7.36e-02  1.71e-04  3.62e-02  6.49e-02  0.850   4.7
    4    -1853.7456425388027128    -4.37e-02  8.98e-05  1.39e-02  4.80e-02  0.850   4.4
    5    -1853.7766198461813474    -3.10e-02  5.54e-05  3.90e-03  3.95e-02  0.850   4.4
    6    -1853.8011534529650817    -2.45e-02  4.25e-05  2.53e-03  3.40e-02  0.850   4.4
    7    -1853.8216144901743974    -2.05e-02  3.73e-05  3.04e-03  2.95e-02  0.850   4.2
    8    -1853.8390179309117229    -1.74e-02  2.22e-04  1.53e-02  2.50e-02  0.000   4.1
    9    -1853.9305217161463588    -9.15e-02  2.62e-05  1.93e-03  3.51e-03  0.000   4.5
   10    -1853.9307676290754898    -2.46e-04  1.32e-05  1.83e-03  1.76e-03  0.000   4.2
                              *** Initializing SOSCF ***
---------------------------------------S-O-S-C-F--------------------------------------
Iteration    Energy (Eh)           Delta-E    RMSDP     MaxDP     MaxGrad    Time(sec)
--------------------------------------------------------------------------------------
   11    -1853.9308391148424562    -7.15e-05  8.29e-06  8.48e-04  6.16e-04     4.5
               *** Restarting incremental Fock matrix formation ***
   12    -1853.9308696355410575    -3.05e-05  1.62e-05  1.36e-03  1.39e-03     7.5
   13    -1853.9308958715264453    -2.62e-05  1.27e-05  1.14e-03  3.93e-04     5.2
   14    -1853.9308924733950334     3.40e-06  5.90e-06  4.77e-04  4.94e-04     5.2
   15    -1853.9308999781324019    -7.50e-06  2.57e-06  1.93e-04  1.38e-04     4.9
   16    -1853.9308991115667595     8.67e-07  1.63e-06  1.71e-04  1.94e-04     4.5
   17    -1853.9309003456382925    -1.23e-06  4.08e-07  3.20e-05  1.24e-05     4.7
   18    -1853.9309003201706219     2.55e-08  2.00e-07  1.62e-05  1.53e-05     4.0
   19    -1853.9309003439175285    -2.37e-08  1.16e-07  1.06e-05  1.58e-06     3.5
                  *** Gradient check signals convergence ***

               *****************************************************
               *                     SUCCESS                       *
               *           SCF CONVERGED AFTER  19 CYCLES          *
               *****************************************************

Recomputing exchange energy using gridx3       ... done (    8.620 sec)
Old exchange energy                            :    -19.904027933 Eh
New exchange energy                            :    -19.904029590 Eh
Exchange energy change after final integration :     -0.000001657 Eh
Total energy after final integration           :  -1853.930902001 Eh

SMD CDS free energy correction energy :                 3.16712     Kcal/mol
Total Energy after SMD CDS correction =             -1853.925854872 Eh
             **** ENERGY FILE WAS UPDATED (rf_mecn_freq_TP_C5_D_B.en.tmp) ****

----------------
TOTAL SCF ENERGY
----------------

Total Energy       :      -1853.92585487151678 Eh          -50447.88723 eV

Components:
Nuclear Repulsion  :       2649.66898188544837 Eh           72101.15855 eV
Electronic Energy  :      -4503.51644986760220 Eh         -122546.91277 eV
One Electron Energy:      -7874.77316180066373 Eh         -214283.47169 eV
Two Electron Energy:       3371.25671193306152 Eh           91736.55893 eV
CPCM Dielectric    :         -0.08343236176409 Eh              -2.27031 eV
SMD CDS (Gcds)     :          0.00504712933330 Eh               0.13734 eV

Virial components:
Potential Energy   :      -3701.57082644721413 Eh         -100724.86294 eV
Kinetic Energy     :       1847.64497157569713 Eh           50276.97571 eV
Virial Ratio       :          2.00339939944765

DFT components:
N(Alpha)           :       96.000024934650 electrons
N(Beta)            :       95.000040409532 electrons
N(Total)           :      191.000065344182 electrons
E(X)               :     -180.882941552910 Eh       
E(C)               :       -6.715741628449 Eh       
E(XC)              :     -187.598683181359 Eh       

CPCM Solvation Model Properties:
Surface-charge          :          0.99020097063900
Corrected charge        :          1.00000000000000
Outlying charge corr.   :          0.00000533092268 Eh               0.00015 eV
Free-energy (cav+disp)  :          0.00504712933330 Eh               0.13734 eV

---------------
SCF CONVERGENCE
---------------

  Last Energy change         ...    2.3747e-08  Tolerance :   1.0000e-08
  Last MAX-Density change    ...    1.0617e-05  Tolerance :   1.0000e-07
  Last RMS-Density change    ...    1.1569e-07  Tolerance :   5.0000e-09
  Last DIIS Error            ...    6.1638e-04  Tolerance :   5.0000e-07
  Last Orbital Gradient      ...    1.5836e-06  Tolerance :   1.0000e-05
  Last Orbital Rotation      ...    1.0952e-05  Tolerance :   1.0000e-05


----------------------
UHF SPIN CONTAMINATION
----------------------

Warning: in a DFT calculation there is little theoretical justification to 
         calculate <S**2> as in Hartree-Fock theory. We will do it anyways
         but you should keep in mind that the values have only limited relevance

Expectation value of <S**2>     :     0.755583
Ideal value S*(S+1) for S=0.5   :     0.750000
Deviation                       :     0.005583

----------------
ORBITAL ENERGIES
----------------
                 SPIN UP ORBITALS
  NO   OCC          E(Eh)            E(eV) 
   0   1.0000     -24.668377      -671.2607 
   1   1.0000     -24.658741      -670.9984 
   2   1.0000     -24.658101      -670.9810 
   3   1.0000     -24.657242      -670.9577 
   4   1.0000     -24.656570      -670.9394 
   5   1.0000     -24.655771      -670.9176 
   6   1.0000     -24.654114      -670.8726 
   7   1.0000     -24.645139      -670.6283 
   8   1.0000     -24.642958      -670.5690 
   9   1.0000     -24.642793      -670.5645 
  10   1.0000     -24.637625      -670.4239 
  11   1.0000     -24.636574      -670.3953 
  12   1.0000     -24.612914      -669.7514 
  13   1.0000     -24.612389      -669.7371 
  14   1.0000     -18.988678      -516.7082 
  15   1.0000     -18.986612      -516.6520 
  16   1.0000     -10.393373      -282.8180 
  17   1.0000     -10.339928      -281.3638 
  18   1.0000     -10.338288      -281.3191 
  19   1.0000     -10.330108      -281.0965 
  20   1.0000     -10.312404      -280.6148 
  21   1.0000     -10.278252      -279.6854 
  22   1.0000     -10.261028      -279.2168 
  23   1.0000     -10.189425      -277.2683 
  24   1.0000      -1.319597       -35.9081 
  25   1.0000      -1.285478       -34.9796 
  26   1.0000      -1.275657       -34.7124 
  27   1.0000      -1.268827       -34.5265 
  28   1.0000      -1.260278       -34.2939 
  29   1.0000      -1.253959       -34.1219 
  30   1.0000      -1.233708       -33.5709 
  31   1.0000      -1.230155       -33.4742 
  32   1.0000      -1.228875       -33.4394 
  33   1.0000      -1.222128       -33.2558 
  34   1.0000      -1.212954       -33.0062 
  35   1.0000      -1.211048       -32.9543 
  36   1.0000      -1.200499       -32.6672 
  37   1.0000      -1.174055       -31.9477 
  38   1.0000      -0.996775       -27.1236 
  39   1.0000      -0.915639       -24.9158 
  40   1.0000      -0.830155       -22.5897 
  41   1.0000      -0.798204       -21.7202 
  42   1.0000      -0.768309       -20.9068 
  43   1.0000      -0.730168       -19.8689 
  44   1.0000      -0.684646       -18.6302 
  45   1.0000      -0.658748       -17.9254 
  46   1.0000      -0.634823       -17.2744 
  47   1.0000      -0.617051       -16.7908 
  48   1.0000      -0.610438       -16.6109 
  49   1.0000      -0.606416       -16.5014 
  50   1.0000      -0.591133       -16.0856 
  51   1.0000      -0.588117       -16.0035 
  52   1.0000      -0.585420       -15.9301 
  53   1.0000      -0.577657       -15.7188 
  54   1.0000      -0.576339       -15.6830 
  55   1.0000      -0.563814       -15.3422 
  56   1.0000      -0.555938       -15.1278 
  57   1.0000      -0.546856       -14.8807 
  58   1.0000      -0.544659       -14.8209 
  59   1.0000      -0.537216       -14.6184 
  60   1.0000      -0.519972       -14.1492 
  61   1.0000      -0.502406       -13.6712 
  62   1.0000      -0.479302       -13.0425 
  63   1.0000      -0.475373       -12.9356 
  64   1.0000      -0.469952       -12.7880 
  65   1.0000      -0.464239       -12.6326 
  66   1.0000      -0.459516       -12.5041 
  67   1.0000      -0.455132       -12.3848 
  68   1.0000      -0.451256       -12.2793 
  69   1.0000      -0.448963       -12.2169 
  70   1.0000      -0.443842       -12.0775 
  71   1.0000      -0.443246       -12.0613 
  72   1.0000      -0.435775       -11.8580 
  73   1.0000      -0.432760       -11.7760 
  74   1.0000      -0.431930       -11.7534 
  75   1.0000      -0.429091       -11.6762 
  76   1.0000      -0.425225       -11.5710 
  77   1.0000      -0.419796       -11.4232 
  78   1.0000      -0.416610       -11.3365 
  79   1.0000      -0.412572       -11.2267 
  80   1.0000      -0.412027       -11.2118 
  81   1.0000      -0.409247       -11.1362 
  82   1.0000      -0.403909       -10.9909 
  83   1.0000      -0.400839       -10.9074 
  84   1.0000      -0.398421       -10.8416 
  85   1.0000      -0.389439       -10.5972 
  86   1.0000      -0.381351       -10.3771 
  87   1.0000      -0.375739       -10.2244 
  88   1.0000      -0.373129       -10.1533 
  89   1.0000      -0.362745        -9.8708 
  90   1.0000      -0.349164        -9.5012 
  91   1.0000      -0.327106        -8.9010 
  92   1.0000      -0.254547        -6.9266 
  93   1.0000      -0.232164        -6.3175 
  94   1.0000      -0.216898        -5.9021 
  95   1.0000      -0.215368        -5.8605 
  96   0.0000      -0.014093        -0.3835 
  97   0.0000       0.011125         0.3027 
  98   0.0000       0.026640         0.7249 
  99   0.0000       0.038359         1.0438 
 100   0.0000       0.057673         1.5694 
 101   0.0000       0.080304         2.1852 
 102   0.0000       0.087941         2.3930 
 103   0.0000       0.106520         2.8985 
 104   0.0000       0.117730         3.2036 
 105   0.0000       0.120743         3.2856 
 106   0.0000       0.124084         3.3765 

                 SPIN DOWN ORBITALS
  NO   OCC          E(Eh)            E(eV) 
   0   1.0000     -24.664047      -671.1429 
   1   1.0000     -24.658744      -670.9985 
   2   1.0000     -24.658098      -670.9810 
   3   1.0000     -24.657188      -670.9562 
   4   1.0000     -24.656538      -670.9385 
   5   1.0000     -24.655675      -670.9150 
   6   1.0000     -24.654002      -670.8695 
   7   1.0000     -24.643725      -670.5899 
   8   1.0000     -24.642528      -670.5573 
   9   1.0000     -24.642359      -670.5527 
  10   1.0000     -24.637613      -670.4235 
  11   1.0000     -24.636564      -670.3950 
  12   1.0000     -24.612889      -669.7508 
  13   1.0000     -24.612395      -669.7373 
  14   1.0000     -18.988513      -516.7037 
  15   1.0000     -18.986579      -516.6511 
  16   1.0000     -10.393312      -282.8164 
  17   1.0000     -10.340782      -281.3870 
  18   1.0000     -10.337860      -281.3075 
  19   1.0000     -10.331097      -281.1234 
  20   1.0000     -10.311707      -280.5958 
  21   1.0000     -10.278077      -279.6807 
  22   1.0000     -10.245372      -278.7907 
  23   1.0000     -10.189390      -277.2674 
  24   1.0000      -1.319517       -35.9059 
  25   1.0000      -1.284303       -34.9477 
  26   1.0000      -1.274241       -34.6739 
  27   1.0000      -1.268032       -34.5049 
  28   1.0000      -1.256205       -34.1831 
  29   1.0000      -1.250536       -34.0288 
  30   1.0000      -1.233594       -33.5678 
  31   1.0000      -1.230094       -33.4726 
  32   1.0000      -1.228800       -33.4374 
  33   1.0000      -1.221803       -33.2470 
  34   1.0000      -1.211469       -32.9657 
  35   1.0000      -1.209906       -32.9232 
  36   1.0000      -1.200201       -32.6591 
  37   1.0000      -1.174033       -31.9471 
  38   1.0000      -0.996597       -27.1188 
  39   1.0000      -0.915433       -24.9102 
  40   1.0000      -0.818596       -22.2751 
  41   1.0000      -0.794733       -21.6258 
  42   1.0000      -0.762646       -20.7527 
  43   1.0000      -0.728672       -19.8282 
  44   1.0000      -0.680298       -18.5119 
  45   1.0000      -0.655863       -17.8469 
  46   1.0000      -0.631816       -17.1926 
  47   1.0000      -0.615968       -16.7613 
  48   1.0000      -0.608813       -16.5666 
  49   1.0000      -0.605982       -16.4896 
  50   1.0000      -0.589142       -16.0314 
  51   1.0000      -0.585555       -15.9337 
  52   1.0000      -0.581374       -15.8200 
  53   1.0000      -0.576790       -15.6953 
  54   1.0000      -0.575442       -15.6586 
  55   1.0000      -0.562487       -15.3061 
  56   1.0000      -0.554317       -15.0837 
  57   1.0000      -0.544837       -14.8258 
  58   1.0000      -0.543673       -14.7941 
  59   1.0000      -0.536183       -14.5903 
  60   1.0000      -0.519858       -14.1460 
  61   1.0000      -0.483752       -13.1636 
  62   1.0000      -0.475369       -12.9355 
  63   1.0000      -0.471396       -12.8273 
  64   1.0000      -0.468298       -12.7430 
  65   1.0000      -0.463177       -12.6037 
  66   1.0000      -0.457539       -12.4503 
  67   1.0000      -0.454656       -12.3718 
  68   1.0000      -0.450549       -12.2601 
  69   1.0000      -0.446472       -12.1491 
  70   1.0000      -0.443181       -12.0596 
  71   1.0000      -0.442361       -12.0372 
  72   1.0000      -0.434671       -11.8280 
  73   1.0000      -0.432268       -11.7626 
  74   1.0000      -0.431361       -11.7379 
  75   1.0000      -0.426128       -11.5955 
  76   1.0000      -0.424437       -11.5495 
  77   1.0000      -0.419632       -11.4188 
  78   1.0000      -0.415867       -11.3163 
  79   1.0000      -0.411933       -11.2093 
  80   1.0000      -0.411051       -11.1853 
  81   1.0000      -0.408793       -11.1238 
  82   1.0000      -0.403507       -10.9800 
  83   1.0000      -0.400509       -10.8984 
  84   1.0000      -0.397552       -10.8179 
  85   1.0000      -0.388756       -10.5786 
  86   1.0000      -0.381228       -10.3737 
  87   1.0000      -0.375011       -10.2046 
  88   1.0000      -0.372141       -10.1265 
  89   1.0000      -0.362569        -9.8660 
  90   1.0000      -0.346699        -9.4342 
  91   1.0000      -0.325199        -8.8491 
  92   1.0000      -0.232062        -6.3147 
  93   1.0000      -0.217438        -5.9168 
  94   1.0000      -0.215430        -5.8622 
  95   0.0000      -0.130028        -3.5382 
  96   0.0000      -0.008988        -0.2446 
  97   0.0000       0.013008         0.3540 
  98   0.0000       0.031347         0.8530 
  99   0.0000       0.040163         1.0929 
 100   0.0000       0.068804         1.8723 
 101   0.0000       0.088063         2.3963 
 102   0.0000       0.090979         2.4757 
 103   0.0000       0.112097         3.0503 
 104   0.0000       0.121004         3.2927 
 105   0.0000       0.122400         3.3307 
*Only the first 10 virtual orbitals were printed.

                    ********************************
                    * MULLIKEN POPULATION ANALYSIS *
                    ********************************

--------------------------------------------
MULLIKEN ATOMIC CHARGES AND SPIN POPULATIONS
--------------------------------------------
   0 C :    0.171486    0.001654
   1 O :   -0.478462    0.005778
   2 O :   -0.492382    0.001192
   3 C :    0.300632    0.006057
   4 C :    0.266968    0.029827
   5 C :    0.346421   -0.032685
   6 C :    0.118581    0.858143
   7 C :    0.298999   -0.005103
   8 C :    0.298963    0.006626
   9 C :    0.409138    0.002448
  10 F :   -0.196091   -0.000111
  11 F :   -0.202674    0.000615
  12 F :   -0.175021   -0.000657
  13 F :   -0.182446   -0.000401
  14 F :   -0.158854    0.006677
  15 F :   -0.164301    0.007481
  16 F :   -0.131863    0.082143
  17 F :   -0.162950    0.026539
  18 F :   -0.157778    0.000794
  19 F :   -0.152837    0.000068
  20 F :   -0.149135    0.001892
  21 F :   -0.136847   -0.000078
  22 F :   -0.135207    0.001036
  23 F :   -0.134343    0.000062
Sum of atomic charges         :   -1.0000000
Sum of atomic spin populations:    1.0000000

-----------------------------------------------------
MULLIKEN REDUCED ORBITAL CHARGES AND SPIN POPULATIONS
-----------------------------------------------------
CHARGE
  0 C s       :     3.034825  s :     3.034825
      pz      :     0.871574  p :     2.514102
      px      :     0.842401
      py      :     0.800127
      dz2     :     0.042816  d :     0.255454
      dxz     :     0.022469
      dyz     :     0.074818
      dx2y2   :     0.044113
      dxy     :     0.071238
      f0      :     0.003919  f :     0.024132
      f+1     :     0.001789
      f-1     :     0.003625
      f+2     :     0.005692
      f-2     :     0.001979
      f+3     :     0.004374
      f-3     :     0.002755

  1 O s       :     3.789070  s :     3.789070
      pz      :     1.531188  p :     4.660363
      px      :     1.511015
      py      :     1.618161
      dz2     :     0.006030  d :     0.027266
      dxz     :     0.004686
      dyz     :     0.007280
      dx2y2   :     0.004373
      dxy     :     0.004897
      f0      :     0.000211  f :     0.001763
      f+1     :     0.000118
      f-1     :     0.000417
      f+2     :     0.000334
      f-2     :     0.000365
      f+3     :     0.000141
      f-3     :     0.000177

  2 O s       :     3.789734  s :     3.789734
      pz      :     1.730150  p :     4.673823
      px      :     1.580197
      py      :     1.363476
      dz2     :     0.003048  d :     0.027083
      dxz     :     0.000205
      dyz     :     0.007239
      dx2y2   :     0.008191
      dxy     :     0.008401
      f0      :     0.000213  f :     0.001742
      f+1     :     0.000045
      f-1     :     0.000283
      f+2     :     0.000292
      f-2     :     0.000020
      f+3     :     0.000507
      f-3     :     0.000381

  3 C s       :     3.121060  s :     3.121060
      pz      :     0.796181  p :     2.290335
      px      :     0.866004
      py      :     0.628151
      dz2     :     0.054791  d :     0.261477
      dxz     :     0.036783
      dyz     :     0.068333
      dx2y2   :     0.048956
      dxy     :     0.052614
      f0      :     0.005316  f :     0.026497
      f+1     :     0.002860
      f-1     :     0.003188
      f+2     :     0.005505
      f-2     :     0.002372
      f+3     :     0.004462
      f-3     :     0.002795

  4 C s       :     3.145766  s :     3.145766
      pz      :     0.663815  p :     2.265041
      px      :     0.910051
      py      :     0.691174
      dz2     :     0.057421  d :     0.294198
      dxz     :     0.056380
      dyz     :     0.070443
      dx2y2   :     0.055258
      dxy     :     0.054696
      f0      :     0.004826  f :     0.028027
      f+1     :     0.003134
      f-1     :     0.005898
      f+2     :     0.003859
      f-2     :     0.003518
      f+3     :     0.003924
      f-3     :     0.002869

  5 C s       :     3.056062  s :     3.056062
      pz      :     0.690500  p :     2.264187
      px      :     0.858228
      py      :     0.715460
      dz2     :     0.065008  d :     0.305448
      dxz     :     0.057133
      dyz     :     0.069139
      dx2y2   :     0.048890
      dxy     :     0.065279
      f0      :     0.004640  f :     0.027881
      f+1     :     0.002448
      f-1     :     0.006224
      f+2     :     0.003806
      f-2     :     0.004003
      f+3     :     0.003974
      f-3     :     0.002786

  6 C s       :     3.219985  s :     3.219985
      pz      :     0.760255  p :     2.482966
      px      :     0.868966
      py      :     0.853745
      dz2     :     0.034525  d :     0.160491
      dxz     :     0.046756
      dyz     :     0.019727
      dx2y2   :     0.024960
      dxy     :     0.034523
      f0      :     0.003245  f :     0.017977
      f+1     :     0.002009
      f-1     :     0.002609
      f+2     :     0.003041
      f-2     :     0.003196
      f+3     :     0.002227
      f-3     :     0.001649

  7 C s       :     3.088847  s :     3.088847
      pz      :     0.671782  p :     2.276574
      px      :     0.828350
      py      :     0.776441
      dz2     :     0.070398  d :     0.307678
      dxz     :     0.070750
      dyz     :     0.053068
      dx2y2   :     0.051895
      dxy     :     0.061569
      f0      :     0.004590  f :     0.027902
      f+1     :     0.004090
      f-1     :     0.004358
      f+2     :     0.004985
      f-2     :     0.004109
      f+3     :     0.002829
      f-3     :     0.002942

  8 C s       :     3.109937  s :     3.109937
      pz      :     0.725519  p :     2.267223
      px      :     0.776046
      py      :     0.765657
      dz2     :     0.062154  d :     0.295363
      dxz     :     0.064568
      dyz     :     0.055900
      dx2y2   :     0.058803
      dxy     :     0.053939
      f0      :     0.004599  f :     0.028515
      f+1     :     0.003462
      f-1     :     0.004231
      f+2     :     0.004489
      f-2     :     0.004403
      f+3     :     0.003383
      f-3     :     0.003948

  9 C s       :     3.020557  s :     3.020557
      pz      :     0.764202  p :     2.168297
      px      :     0.761480
      py      :     0.642615
      dz2     :     0.060049  d :     0.361640
      dxz     :     0.068925
      dyz     :     0.083322
      dx2y2   :     0.084309
      dxy     :     0.065035
      f0      :     0.007362  f :     0.040369
      f+1     :     0.003620
      f-1     :     0.005636
      f+2     :     0.003167
      f-2     :     0.007315
      f+3     :     0.004182
      f-3     :     0.009087

 10 F s       :     3.911682  s :     3.911682
      pz      :     1.902784  p :     5.269047
      px      :     1.891946
      py      :     1.474317
      dz2     :     0.002108  d :     0.014704
      dxz     :     0.000303
      dyz     :     0.003070
      dx2y2   :     0.005673
      dxy     :     0.003549
      f0      :     0.000059  f :     0.000658
      f+1     :     0.000015
      f-1     :     0.000135
      f+2     :     0.000083
      f-2     :     0.000013
      f+3     :     0.000149
      f-3     :     0.000205

 11 F s       :     3.913064  s :     3.913064
      pz      :     1.597328  p :     5.274587
      px      :     1.834757
      py      :     1.842501
      dz2     :     0.004414  d :     0.014375
      dxz     :     0.003931
      dyz     :     0.003538
      dx2y2   :     0.001137
      dxy     :     0.001355
      f0      :     0.000117  f :     0.000648
      f+1     :     0.000151
      f-1     :     0.000145
      f+2     :     0.000079
      f-2     :     0.000121
      f+3     :     0.000016
      f-3     :     0.000019

 12 F s       :     3.917026  s :     3.917026
      pz      :     1.847241  p :     5.241854
      px      :     1.888321
      py      :     1.506292
      dz2     :     0.001903  d :     0.015450
      dxz     :     0.000598
      dyz     :     0.004172
      dx2y2   :     0.005172
      dxy     :     0.003604
      f0      :     0.000073  f :     0.000692
      f+1     :     0.000008
      f-1     :     0.000110
      f+2     :     0.000142
      f-2     :     0.000054
      f+3     :     0.000138
      f-3     :     0.000167

 13 F s       :     3.921467  s :     3.921467
      pz      :     1.515547  p :     5.245073
      px      :     1.839744
      py      :     1.889781
      dz2     :     0.006286  d :     0.015231
      dxz     :     0.004817
      dyz     :     0.002799
      dx2y2   :     0.000783
      dxy     :     0.000546
      f0      :     0.000212  f :     0.000677
      f+1     :     0.000233
      f-1     :     0.000109
      f+2     :     0.000065
      f-2     :     0.000048
      f+3     :     0.000006
      f-3     :     0.000004

 14 F s       :     3.917308  s :     3.917308
      pz      :     1.822454  p :     5.225386
      px      :     1.901541
      py      :     1.501391
      dz2     :     0.001961  d :     0.015465
      dxz     :     0.000656
      dyz     :     0.004821
      dx2y2   :     0.005050
      dxy     :     0.002977
      f0      :     0.000077  f :     0.000695
      f+1     :     0.000003
      f-1     :     0.000118
      f+2     :     0.000182
      f-2     :     0.000051
      f+3     :     0.000105
      f-3     :     0.000159

 15 F s       :     3.917218  s :     3.917218
      pz      :     1.541985  p :     5.231247
      px      :     1.801727
      py      :     1.887535
      dz2     :     0.005519  d :     0.015159
      dxz     :     0.005314
      dyz     :     0.002527
      dx2y2   :     0.001056
      dxy     :     0.000743
      f0      :     0.000164  f :     0.000678
      f+1     :     0.000259
      f-1     :     0.000084
      f+2     :     0.000092
      f-2     :     0.000062
      f+3     :     0.000010
      f-3     :     0.000007

 16 F s       :     3.919720  s :     3.919720
      pz      :     1.612223  p :     5.194007
      px      :     1.896011
      py      :     1.685773
      dz2     :     0.004819  d :     0.017387
      dxz     :     0.002647
      dyz     :     0.006032
      dx2y2   :     0.002263
      dxy     :     0.001626
      f0      :     0.000119  f :     0.000749
      f+1     :     0.000054
      f-1     :     0.000240
      f+2     :     0.000162
      f-2     :     0.000113
      f+3     :     0.000028
      f-3     :     0.000033

 17 F s       :     3.917317  s :     3.917317
      pz      :     1.775885  p :     5.230112
      px      :     1.739996
      py      :     1.714231
      dz2     :     0.001886  d :     0.014861
      dxz     :     0.003107
      dyz     :     0.003466
      dx2y2   :     0.002495
      dxy     :     0.003907
      f0      :     0.000072  f :     0.000660
      f+1     :     0.000067
      f-1     :     0.000065
      f+2     :     0.000075
      f-2     :     0.000198
      f+3     :     0.000089
      f-3     :     0.000093

 18 F s       :     3.922440  s :     3.922440
      pz      :     1.561444  p :     5.218786
      px      :     1.872465
      py      :     1.784876
      dz2     :     0.004930  d :     0.015853
      dxz     :     0.003276
      dyz     :     0.005042
      dx2y2   :     0.001113
      dxy     :     0.001492
      f0      :     0.000132  f :     0.000699
      f+1     :     0.000115
      f-1     :     0.000223
      f+2     :     0.000086
      f-2     :     0.000113
      f+3     :     0.000018
      f-3     :     0.000012

 19 F s       :     3.920462  s :     3.920462
      pz      :     1.845981  p :     5.215783
      px      :     1.722262
      py      :     1.647540
      dz2     :     0.002008  d :     0.015884
      dxz     :     0.002152
      dyz     :     0.002926
      dx2y2   :     0.003315
      dxy     :     0.005484
      f0      :     0.000076  f :     0.000708
      f+1     :     0.000054
      f-1     :     0.000068
      f+2     :     0.000044
      f-2     :     0.000162
      f+3     :     0.000160
      f-3     :     0.000143

 20 F s       :     3.915829  s :     3.915829
      pz      :     1.580812  p :     5.216614
      px      :     1.798076
      py      :     1.837727
      dz2     :     0.004770  d :     0.015975
      dxz     :     0.004921
      dyz     :     0.003520
      dx2y2   :     0.001138
      dxy     :     0.001625
      f0      :     0.000125  f :     0.000716
      f+1     :     0.000205
      f-1     :     0.000126
      f+2     :     0.000091
      f-2     :     0.000132
      f+3     :     0.000017
      f-3     :     0.000021

 21 F s       :     3.912257  s :     3.912257
      pz      :     1.867767  p :     5.207657
      px      :     1.739107
      py      :     1.600784
      dz2     :     0.002206  d :     0.016172
      dxz     :     0.001682
      dyz     :     0.002769
      dx2y2   :     0.003529
      dxy     :     0.005986
      f0      :     0.000076  f :     0.000760
      f+1     :     0.000054
      f-1     :     0.000092
      f+2     :     0.000034
      f-2     :     0.000135
      f+3     :     0.000220
      f-3     :     0.000150

 22 F s       :     3.911115  s :     3.911115
      pz      :     1.886367  p :     5.207170
      px      :     1.724286
      py      :     1.596517
      dz2     :     0.002352  d :     0.016157
      dxz     :     0.001419
      dyz     :     0.002251
      dx2y2   :     0.003739
      dxy     :     0.006396
      f0      :     0.000065  f :     0.000765
      f+1     :     0.000061
      f-1     :     0.000107
      f+2     :     0.000015
      f-2     :     0.000102
      f+3     :     0.000249
      f-3     :     0.000166

 23 F s       :     3.911280  s :     3.911280
      pz      :     1.519521  p :     5.205995
      px      :     1.811854
      py      :     1.874619
      dz2     :     0.006206  d :     0.016297
      dxz     :     0.005457
      dyz     :     0.002915
      dx2y2   :     0.000800
      dxy     :     0.000919
      f0      :     0.000199  f :     0.000771
      f+1     :     0.000276
      f-1     :     0.000111
      f+2     :     0.000083
      f-2     :     0.000083
      f+3     :     0.000009
      f-3     :     0.000010


SPIN
  0 C s       :     0.001005  s :     0.001005
      pz      :     0.000591  p :     0.000442
      px      :     0.000066
      py      :    -0.000215
      dz2     :     0.000201  d :     0.000178
      dxz     :    -0.000052
      dyz     :     0.000113
      dx2y2   :    -0.000065
      dxy     :    -0.000020
      f0      :    -0.000000  f :     0.000030
      f+1     :     0.000002
      f-1     :     0.000015
      f+2     :     0.000007
      f-2     :     0.000001
      f+3     :     0.000008
      f-3     :    -0.000002

  1 O s       :     0.000145  s :     0.000145
      pz      :     0.004425  p :     0.005645
      px      :    -0.000065
      py      :     0.001286
      dz2     :    -0.000008  d :    -0.000010
      dxz     :    -0.000002
      dyz     :     0.000002
      dx2y2   :     0.000000
      dxy     :    -0.000001
      f0      :    -0.000000  f :    -0.000002
      f+1     :     0.000000
      f-1     :    -0.000001
      f+2     :    -0.000000
      f-2     :    -0.000001
      f+3     :    -0.000000
      f-3     :     0.000000

  2 O s       :    -0.000073  s :    -0.000073
      pz      :     0.000927  p :     0.001268
      px      :    -0.000128
      py      :     0.000469
      dz2     :     0.000001  d :    -0.000004
      dxz     :    -0.000000
      dyz     :    -0.000004
      dx2y2   :    -0.000004
      dxy     :     0.000003
      f0      :    -0.000000  f :     0.000000
      f+1     :    -0.000000
      f-1     :     0.000000
      f+2     :    -0.000000
      f-2     :     0.000000
      f+3     :     0.000000
      f-3     :     0.000000

  3 C s       :    -0.000282  s :    -0.000282
      pz      :    -0.000132  p :     0.005751
      px      :     0.006207
      py      :    -0.000324
      dz2     :     0.000004  d :     0.000558
      dxz     :     0.000154
      dyz     :     0.000015
      dx2y2   :     0.000200
      dxy     :     0.000186
      f0      :     0.000000  f :     0.000032
      f+1     :     0.000003
      f-1     :     0.000003
      f+2     :     0.000003
      f-2     :     0.000003
      f+3     :     0.000002
      f-3     :     0.000017

  4 C s       :     0.000633  s :     0.000633
      pz      :     0.008031  p :     0.025451
      px      :     0.009155
      py      :     0.008265
      dz2     :     0.000412  d :     0.003711
      dxz     :     0.000433
      dyz     :     0.000224
      dx2y2   :     0.002599
      dxy     :     0.000043
      f0      :    -0.000002  f :     0.000032
      f+1     :    -0.000007
      f-1     :    -0.000005
      f+2     :     0.000013
      f-2     :     0.000016
      f+3     :     0.000024
      f-3     :    -0.000008

  5 C s       :    -0.009352  s :    -0.009352
      pz      :    -0.007712  p :    -0.043610
      px      :    -0.028913
      py      :    -0.006985
      dz2     :    -0.000202  d :     0.019067
      dxz     :     0.009659
      dyz     :     0.000193
      dx2y2   :     0.001954
      dxy     :     0.007464
      f0      :     0.000203  f :     0.001211
      f+1     :     0.000033
      f-1     :     0.000047
      f+2     :     0.000139
      f-2     :     0.000036
      f+3     :     0.000361
      f-3     :     0.000393

  6 C s       :     0.056307  s :     0.056307
      pz      :     0.271889  p :     0.800203
      px      :     0.049853
      py      :     0.478461
      dz2     :     0.002441  d :     0.003868
      dxz     :     0.000579
      dyz     :     0.000087
      dx2y2   :    -0.000629
      dxy     :     0.001389
      f0      :    -0.000284  f :    -0.002234
      f+1     :    -0.000039
      f-1     :    -0.000624
      f+2     :    -0.000524
      f-2     :    -0.000321
      f+3     :    -0.000328
      f-3     :    -0.000113

  7 C s       :    -0.011141  s :    -0.011141
      pz      :    -0.005213  p :    -0.013139
      px      :    -0.020153
      py      :     0.012227
      dz2     :     0.001948  d :     0.017906
      dxz     :     0.004305
      dyz     :    -0.000057
      dx2y2   :    -0.000273
      dxy     :     0.011983
      f0      :    -0.000007  f :     0.001271
      f+1     :     0.000692
      f-1     :     0.000014
      f+2     :     0.000087
      f-2     :     0.000199
      f+3     :    -0.000012
      f-3     :     0.000297

  8 C s       :    -0.001984  s :    -0.001984
      pz      :     0.002073  p :     0.007713
      px      :    -0.005624
      py      :     0.011263
      dz2     :    -0.000053  d :     0.000854
      dxz     :     0.000324
      dyz     :     0.000070
      dx2y2   :     0.000526
      dxy     :    -0.000012
      f0      :    -0.000002  f :     0.000043
      f+1     :     0.000006
      f-1     :    -0.000006
      f+2     :     0.000001
      f-2     :    -0.000004
      f+3     :     0.000019
      f-3     :     0.000030

  9 C s       :     0.000504  s :     0.000504
      pz      :     0.000754  p :     0.001693
      px      :     0.000487
      py      :     0.000452
      dz2     :    -0.000007  d :     0.000222
      dxz     :     0.000014
      dyz     :     0.000056
      dx2y2   :    -0.000003
      dxy     :     0.000162
      f0      :    -0.000001  f :     0.000029
      f+1     :    -0.000000
      f-1     :     0.000003
      f+2     :    -0.000001
      f-2     :     0.000017
      f+3     :     0.000003
      f-3     :     0.000008

 10 F s       :     0.000037  s :     0.000037
      pz      :    -0.000051  p :    -0.000166
      px      :    -0.000062
      py      :    -0.000053
      dz2     :     0.000001  d :     0.000017
      dxz     :     0.000000
      dyz     :     0.000002
      dx2y2   :     0.000000
      dxy     :     0.000014
      f0      :     0.000000  f :     0.000001
      f+1     :     0.000000
      f-1     :    -0.000000
      f+2     :     0.000000
      f-2     :     0.000000
      f+3     :     0.000001
      f-3     :     0.000000

 11 F s       :     0.000033  s :     0.000033
      pz      :     0.000022  p :     0.000564
      px      :     0.000509
      py      :     0.000034
      dz2     :     0.000006  d :     0.000017
      dxz     :     0.000012
      dyz     :    -0.000001
      dx2y2   :     0.000000
      dxy     :    -0.000000
      f0      :     0.000000  f :     0.000000
      f+1     :     0.000000
      f-1     :     0.000000
      f+2     :     0.000000
      f-2     :     0.000000
      f+3     :    -0.000000
      f-3     :    -0.000000

 12 F s       :     0.000243  s :     0.000243
      pz      :     0.000518  p :    -0.000974
      px      :    -0.000854
      py      :    -0.000638
      dz2     :     0.000001  d :     0.000071
      dxz     :     0.000016
      dyz     :     0.000008
      dx2y2   :     0.000051
      dxy     :    -0.000005
      f0      :     0.000000  f :     0.000004
      f+1     :     0.000000
      f-1     :     0.000000
      f+2     :    -0.000000
      f-2     :     0.000001
      f+3     :     0.000000
      f-3     :     0.000003

 13 F s       :    -0.000029  s :    -0.000029
      pz      :    -0.000821  p :    -0.000429
      px      :    -0.000657
      py      :     0.001049
      dz2     :     0.000016  d :     0.000054
      dxz     :    -0.000001
      dyz     :     0.000012
      dx2y2   :     0.000024
      dxy     :     0.000004
      f0      :     0.000001  f :     0.000002
      f+1     :    -0.000000
      f-1     :     0.000000
      f+2     :     0.000001
      f-2     :     0.000000
      f+3     :    -0.000000
      f-3     :    -0.000000

 14 F s       :    -0.000430  s :    -0.000430
      pz      :     0.003899  p :     0.007073
      px      :    -0.000743
      py      :     0.003917
      dz2     :     0.000007  d :     0.000031
      dxz     :     0.000037
      dyz     :    -0.000017
      dx2y2   :     0.000023
      dxy     :    -0.000019
      f0      :     0.000000  f :     0.000004
      f+1     :     0.000000
      f-1     :     0.000000
      f+2     :     0.000001
      f-2     :     0.000001
      f+3     :     0.000000
      f-3     :     0.000001

 15 F s       :    -0.000301  s :    -0.000301
      pz      :     0.005298  p :     0.007798
      px      :     0.002774
      py      :    -0.000274
      dz2     :    -0.000025  d :    -0.000020
      dxz     :    -0.000015
      dyz     :    -0.000003
      dx2y2   :     0.000014
      dxy     :     0.000009
      f0      :    -0.000001  f :     0.000004
      f+1     :     0.000003
      f-1     :     0.000000
[...]
  6:     18.22   0.000417    2.11  0.007142  (-0.041083 -0.052503 -0.051941)
  7:     23.30   0.000531    2.68  0.007108  (-0.058730  0.058201 -0.016484)
  8:     26.46   0.000308    1.56  0.003634  ( 0.049999 -0.006250  0.033091)
  9:     39.27   0.000138    0.70  0.001094  (-0.026638  0.008447 -0.017694)
 10:     47.07   0.000376    1.90  0.002490  ( 0.019316  0.036120  0.028498)
 11:     54.24   0.000002    0.01  0.000009  (-0.002408 -0.001223  0.001185)
 12:     58.53   0.000066    0.34  0.000354  ( 0.013980  0.005095  0.011499)
 13:     79.35   0.000583    2.95  0.002294  ( 0.043778 -0.018781  0.004947)
 14:     99.90   0.000469    2.37  0.001464  (-0.031611 -0.013384 -0.016891)
 15:    118.12   0.000342    1.73  0.000902  (-0.024742  0.017034  0.000123)
 16:    163.30   0.000673    3.40  0.001287  (-0.033095 -0.011554 -0.007611)
 17:    167.73   0.000368    1.86  0.000684  ( 0.018955  0.006819 -0.016675)
 18:    185.88   0.001208    6.11  0.002028  ( 0.022681 -0.007531 -0.038172)
 19:    195.17   0.001595    8.06  0.002551  ( 0.038002  0.019467 -0.026971)
 20:    204.73   0.000371    1.87  0.000565  ( 0.009971  0.014984  0.015529)
 21:    215.85   0.000199    1.01  0.000288  ( 0.005878  0.006262  0.014630)
 22:    230.15   0.000102    0.52  0.000139  ( 0.004627 -0.005195 -0.009500)
 23:    233.34   0.000009    0.04  0.000012  ( 0.001915  0.002429 -0.001502)
 24:    247.43   0.000140    0.71  0.000177  ( 0.003833  0.004145  0.012040)
 25:    272.22   0.001061    5.36  0.001216  (-0.029577  0.009289 -0.015963)
 26:    278.32   0.000420    2.12  0.000471  (-0.010684  0.018875  0.000858)
 27:    305.03   0.000068    0.34  0.000069  (-0.003154  0.007362 -0.002281)
 28:    322.37   0.000383    1.94  0.000371  (-0.018509  0.001286 -0.005196)
 29:    332.26   0.000205    1.04  0.000193  ( 0.013778 -0.000457  0.001588)
 30:    345.79   0.000207    1.04  0.000187  ( 0.004631 -0.002309 -0.012641)
 31:    353.07   0.000369    1.86  0.000326  ( 0.017293  0.004610  0.002367)
 32:    359.73   0.000231    1.17  0.000201  ( 0.013567  0.003778 -0.001511)
 33:    363.07   0.000261    1.32  0.000224  (-0.014469 -0.000054  0.003889)
 34:    384.68   0.000249    1.26  0.000202  ( 0.011996  0.005781  0.005006)
 35:    418.23   0.000103    0.52  0.000077  (-0.001551  0.004268  0.007476)
 36:    453.28   0.000532    2.69  0.000366  ( 0.015711 -0.009908  0.004621)
 37:    494.34   0.000664    3.36  0.000419  (-0.007575 -0.017957  0.006279)
 38:    517.46   0.006660   33.66  0.004016  ( 0.054602 -0.031843  0.004575)
 39:    526.00   0.005425   27.42  0.003219  (-0.054383 -0.006387 -0.014849)
 40:    539.21   0.003630   18.34  0.002101  ( 0.043181 -0.010978  0.010755)
 41:    559.50   0.002952   14.92  0.001646  (-0.019147 -0.018155  0.030823)
 42:    578.45   0.004366   22.06  0.002355  (-0.039966 -0.023271 -0.014717)
 43:    594.91   0.000336    1.70  0.000176  ( 0.012477 -0.001307  0.004350)
 44:    608.22   0.004767   24.09  0.002446  ( 0.041987  0.025923  0.003319)
 45:    657.30   0.027465  138.80  0.013039  (-0.111039 -0.014173  0.022561)
 46:    676.93   0.009253   46.76  0.004265  ( 0.058815 -0.006426  0.027657)
 47:    685.16   0.005400   27.29  0.002460  ( 0.035128  0.014729 -0.031760)
 48:    716.78   0.016457   83.17  0.007165  (-0.044169  0.035693 -0.062771)
 49:    769.47   0.003942   19.92  0.001599  (-0.033199  0.018761 -0.012017)
 50:    781.11   0.021376  108.03  0.008540  (-0.032113 -0.033482  0.079924)
 51:    848.15   0.013327   67.35  0.004903  (-0.026791  0.035820 -0.053875)
 52:    981.65   0.018827   95.15  0.005985  ( 0.007612 -0.052068  0.056711)
 53:   1033.18   0.024047  121.52  0.007263  (-0.080564 -0.026638 -0.007941)
 54:   1067.52   0.052239  263.99  0.015271  (-0.065441 -0.102376  0.022522)
 55:   1072.67   0.038304  193.57  0.011144  (-0.015076 -0.074732 -0.073016)
 56:   1094.65   0.020141  101.78  0.005742  (-0.053093  0.038543 -0.037913)
 57:   1101.78   0.054893  277.40  0.015548  (-0.055994  0.041013 -0.103587)
 58:   1107.14   0.060209  304.27  0.016971  (-0.024940 -0.082809 -0.097425)
 59:   1123.53   0.003648   18.44  0.001013  ( 0.023435 -0.021543  0.000209)
 60:   1138.72   0.067865  342.96  0.018598  ( 0.043446  0.124273  0.035595)
 61:   1143.18   0.083654  422.75  0.022836  ( 0.074081  0.004944 -0.131618)
 62:   1151.14   0.114498  578.63  0.031039  (-0.052274  0.160468  0.050565)
 63:   1171.11   0.082795  418.41  0.022062  ( 0.093813  0.023930 -0.112645)
 64:   1204.40   0.001321    6.67  0.000342  ( 0.010287 -0.007720  0.013296)
 65:   1218.02   0.020036  101.26  0.005133  (-0.006431  0.070178  0.012929)
 66:   1225.22   0.007276   36.77  0.001853  (-0.006567  0.019069  0.038032)
 67:   1288.20   0.028349  143.26  0.006867  (-0.037120  0.017787 -0.071925)
 68:   1322.10   0.022893  115.69  0.005404  ( 0.027288 -0.012449  0.067111)
 69:   1343.24   0.071759  362.64  0.016671  ( 0.103622  0.034166 -0.069039)
 70:   1378.99   0.002218   11.21  0.000502  ( 0.008786 -0.017924 -0.010170)
 71:   1723.20   0.154501  780.78  0.027979  (-0.040062  0.150412  0.061242)

* The epsilon (eps) is given for a Dirac delta lineshape.
** The dipole moment derivative (T) already includes vibrational overlap.

The first frequency considered to be a vibration is 6
The total number of vibrations considered is 66


--------------------------
THERMOCHEMISTRY AT 298.15K
--------------------------

Temperature         ...   298.15 K
Pressure            ...     1.00 atm
Total Mass          ...   394.06 AMU
Quasi RRHO          ...     True
Cut-Off Frequency   ...     1.00 cm^-1

Throughout the following assumptions are being made:
  (1) The electronic state is orbitally nondegenerate
      but the spin degeneracy is treated
  (2) There are no thermally accessible electronically excited states
  (3) Hindered rotations indicated by low frequency modes are not
      treated as such but are treated as vibrations and this may
      cause some error
  (4) All equations used are the standard statistical mechanics
      equations for an ideal gas
  (5) All vibrations are strictly harmonic

freq.      18.22  E(vib)   ...       0.57 
freq.      23.30  E(vib)   ...       0.56 
freq.      26.46  E(vib)   ...       0.56 
freq.      39.27  E(vib)   ...       0.54 
freq.      47.07  E(vib)   ...       0.53 
freq.      54.24  E(vib)   ...       0.52 
freq.      58.53  E(vib)   ...       0.51 
freq.      79.35  E(vib)   ...       0.49 
freq.      99.90  E(vib)   ...       0.46 
freq.     118.12  E(vib)   ...       0.44 
freq.     163.30  E(vib)   ...       0.39 
freq.     167.73  E(vib)   ...       0.38 
freq.     185.88  E(vib)   ...       0.37 
freq.     195.17  E(vib)   ...       0.36 
freq.     204.73  E(vib)   ...       0.35 
freq.     215.85  E(vib)   ...       0.34 
freq.     230.15  E(vib)   ...       0.32 
freq.     233.34  E(vib)   ...       0.32 
freq.     247.43  E(vib)   ...       0.31 
freq.     272.22  E(vib)   ...       0.29 
freq.     278.32  E(vib)   ...       0.28 
freq.     305.03  E(vib)   ...       0.26 
freq.     322.37  E(vib)   ...       0.25 
freq.     332.26  E(vib)   ...       0.24 
freq.     345.79  E(vib)   ...       0.23 
freq.     353.07  E(vib)   ...       0.22 
freq.     359.73  E(vib)   ...       0.22 
freq.     363.07  E(vib)   ...       0.22 
freq.     384.68  E(vib)   ...       0.20 
freq.     418.23  E(vib)   ...       0.18 
freq.     453.28  E(vib)   ...       0.16 
freq.     494.34  E(vib)   ...       0.14 
freq.     517.46  E(vib)   ...       0.13 
freq.     526.00  E(vib)   ...       0.13 
freq.     539.21  E(vib)   ...       0.12 
freq.     559.50  E(vib)   ...       0.12 
freq.     578.45  E(vib)   ...       0.11 
freq.     594.91  E(vib)   ...       0.10 
freq.     608.22  E(vib)   ...       0.10 
freq.     657.30  E(vib)   ...       0.08 
freq.     676.93  E(vib)   ...       0.08 
freq.     685.16  E(vib)   ...       0.07 
freq.     716.78  E(vib)   ...       0.07 
freq.     769.47  E(vib)   ...       0.06 
freq.     781.11  E(vib)   ...       0.05 
freq.     848.15  E(vib)   ...       0.04 
freq.     981.65  E(vib)   ...       0.02 
freq.    1033.18  E(vib)   ...       0.02 
freq.    1067.52  E(vib)   ...       0.02 
freq.    1072.67  E(vib)   ...       0.02 
freq.    1094.65  E(vib)   ...       0.02 
freq.    1101.78  E(vib)   ...       0.02 
freq.    1107.14  E(vib)   ...       0.02 
freq.    1123.53  E(vib)   ...       0.01 
freq.    1138.72  E(vib)   ...       0.01 
freq.    1143.18  E(vib)   ...       0.01 
freq.    1151.14  E(vib)   ...       0.01 
freq.    1171.11  E(vib)   ...       0.01 
freq.    1204.40  E(vib)   ...       0.01 
freq.    1218.02  E(vib)   ...       0.01 
freq.    1225.22  E(vib)   ...       0.01 
freq.    1288.20  E(vib)   ...       0.01 
freq.    1322.10  E(vib)   ...       0.01 
freq.    1343.24  E(vib)   ...       0.01 
freq.    1378.99  E(vib)   ...       0.01 
freq.    1723.20  E(vib)   ...       0.00 

------------
INNER ENERGY
------------

The inner energy is: U= E(el) + E(ZPE) + E(vib) + E(rot) + E(trans)
    E(el)   - is the total energy from the electronic structure calculation
              = E(kin-el) + E(nuc-el) + E(el-el) + E(nuc-nuc)
    E(ZPE)  - the the zero temperature vibrational energy from the frequency calculation
    E(vib)  - the the finite temperature correction to E(ZPE) due to population
              of excited vibrational states
    E(rot)  - is the rotational thermal energy
    E(trans)- is the translational thermal energy

Summary of contributions to the inner energy U:
Electronic energy                ...  -1853.95523564 Eh
Zero point energy                ...      0.09121493 Eh      57.24 kcal/mol
Thermal vibrational correction   ...      0.02024208 Eh      12.70 kcal/mol
Thermal rotational correction    ...      0.00141627 Eh       0.89 kcal/mol
Thermal translational correction ...      0.00141627 Eh       0.89 kcal/mol
-----------------------------------------------------------------------
Total thermal energy                  -1853.84094609 Eh


Summary of corrections to the electronic energy:
(perhaps to be used in another calculation)
Total thermal correction                  0.02307462 Eh      14.48 kcal/mol
Non-thermal (ZPE) correction              0.09121493 Eh      57.24 kcal/mol
-----------------------------------------------------------------------
Total correction                          0.11428955 Eh      71.72 kcal/mol


--------
ENTHALPY
--------

The enthalpy is H = U + kB*T
                kB is Boltzmann's constant
Total thermal energy              ...  -1853.84094609 Eh 
Thermal Enthalpy correction       ...      0.00094421 Eh       0.59 kcal/mol
-----------------------------------------------------------------------
Total Enthalpy                    ...  -1853.84000188 Eh


Note: Only C1 symmetry has been detected, increase convergence thresholds 
      if your molecule has a higher symmetry. Symmetry factor of 1.0 is   
      used for the rotational entropy correction. 
 

Note: Rotational entropy computed according to Herzberg 
Infrared and Raman Spectra, Chapter V,1, Van Nostrand Reinhold, 1945 
Point Group:  C1, Symmetry Number:   1  
Rotational constants in cm-1:     0.016099     0.004709     0.004396 

Vibrational entropy computed according to the QRRHO of S. Grimme
Chem.Eur.J. 2012 18 9955 using a reference frequency of 100.0 cm-1


-------
ENTROPY
-------

The entropy contributions are T*S = T*(S(el)+S(vib)+S(rot)+S(trans))
     S(el)   - electronic entropy
     S(vib)  - vibrational entropy
     S(rot)  - rotational entropy
     S(trans)- translational entropy
The entropies will be listed as multiplied by the temperature to get
units of energy

Electronic entropy                ...      0.00065446 Eh      0.41 kcal/mol
Vibrational entropy               ...      0.03690825 Eh     23.16 kcal/mol
Rotational entropy                ...      0.01655171 Eh     10.39 kcal/mol
Translational entropy             ...      0.02081341 Eh     13.06 kcal/mol
-----------------------------------------------------------------------
Final entropy term                ...      0.07492783 Eh     47.02 kcal/mol

In case the symmetry of your molecule has not been determined correctly
or in case you have a reason to use a different symmetry number we print 
out the resulting rotational entropy values for sn=1,12:

 non-linear molecules -----------------------------------
|  sn= 1 | S(rot)=       0.01655171 Eh     10.39 kcal/mol|
|  sn= 2 | S(rot)=       0.01589726 Eh      9.98 kcal/mol|
|  sn= 3 | S(rot)=       0.01551442 Eh      9.74 kcal/mol|
|  sn= 4 | S(rot)=       0.01524280 Eh      9.56 kcal/mol|
|  sn= 5 | S(rot)=       0.01503211 Eh      9.43 kcal/mol|
|  sn= 6 | S(rot)=       0.01485997 Eh      9.32 kcal/mol|
|  sn= 7 | S(rot)=       0.01471442 Eh      9.23 kcal/mol|
|  sn= 8 | S(rot)=       0.01458834 Eh      9.15 kcal/mol|
|  sn= 9 | S(rot)=       0.01447713 Eh      9.08 kcal/mol|
|  sn=10 | S(rot)=       0.01437765 Eh      9.02 kcal/mol|
|  sn=11 | S(rot)=       0.01428766 Eh      8.97 kcal/mol|
|  sn=12 | S(rot)=       0.01420551 Eh      8.91 kcal/mol|
 linear molecules ---------------------------------------
|  Dinfh | S(rot)=       0.01045000 Eh      6.56 kcal/mol|
|  Cinfv | S(rot)=       0.01110445 Eh      6.97 kcal/mol|
 --------------------------------------------------------


-------------------
GIBBS FREE ENERGY
-------------------

The Gibbs free energy is G = H - T*S

Total enthalpy                    ...  -1853.84000188 Eh 
Total entropy correction          ...     -0.07492783 Eh    -47.02 kcal/mol
-----------------------------------------------------------------------
Final Gibbs free energy         ...  -1853.91492971 Eh

For completeness - the Gibbs free energy minus the electronic energy
G-E(el)                           ...      0.04030593 Eh     25.29 kcal/mol


Maximum memory used throughout the entire PROP-calculation: 524.3 MB

--------------------------------
SUGGESTED CITATIONS FOR THIS RUN
--------------------------------

Below you find a list of papers that are relevant to this ORCA run
We neither can nor want to force you to cite these papers, but we appreciate if you do
You receive ORCA, which is the product of decades of hard work by many enthusiastic individuals, for free
The only thing we kindly ask in return is that you cite our papers,
We deeply appreciate it, if you show your appreciation for ORCA by not just citing the generic ORCA reference.

Please note that relegating all ORCA citations to the supporting information does *not* help us.
SI sections are not indexed - citations you put there will not count into any citation statistics
But we need these citations in order to attract the funding resources that allow us to do what we are doing

Therefore, if you are a happy ORCA user, please consider citing a few of the papers listed below in the main body of your paper

In addition to the list printed below, the program has created the file rf_mecn_freq_TP_C5_D_B.bibtex that contains the list in bibtex format
You can import this file easily into all common literature databanks and citation aid programs


List of essential papers. We consider these as the minimum necessary citations

  1. Neese,F.
     Software update: the ORCA program system, version 5.0
     WIRES Comput. Molec. Sci., 2022 12(1)e1606
     doi.org/10.1002/wcms.1606

List of papers to cite with high priority. The work reported in these papers was absolutely
necessary for this run to complete.
Our perspective: the developers of density functionals and basis sets usually get cited in chemistry papers
Good! But without the algorithms to do something with them, the functionals or basis sets would not do anything.
Hence, in our opinion, the algorithm design and method developments papers are equally worthy of getting cited

  1. Neese,F.
     An improvement of the resolution of the identity approximation for the formation of the Coulomb matrix
     J. Comp. Chem., 2003 24(14)1740-1747
     doi.org/10.1002/jcc.10318
  2. Neese,F.; Wennmohs,F.; Hansen,A.; Becker,U.
     Efficient, approximate and parallel Hartree-Fock and hybrid DFT calculations. A 'chain-of-spheres' algorithm for the Hartree-Fock exchange
     Chem. Phys., 2009 356(1-3)98-109
     doi.org/10.1016/j.chemphys.2008.10.036
  3. Bykov,D.; Petrenko,T.; Izsak,R.; Kossmann,S.; Becker,U.; Valeev,E.; Neese,F.
     Efficient implementation of the analytic second derivatives of Hartree-Fock and hybrid DFT energies: a detailed analysis of different approximations
     Molec. Phys., 2015 113 1961-1977
     doi.org/10.1080/00268976.2015.1025114
  4. Garcia-Rates,M.; Neese,F.
     Efficient implementation of the analytical second derivatives of hartree-fock and hybrid DFT energies within the framework of the conductor-like polarizable continuum model
     J. Comput. Chem., 2019 40 1816-1828
     doi.org/10.1002/jcc.25833
  5. Garcia-Rates,M.; Neese,F.
     Effect of the Solute Cavity on the Solvation Energy and its Derivatives within the Framework of the Gaussian Charge Scheme
     J. Comput. Chem., 2020 41 922-939
     doi.org/10.1002/jcc.26139
  6. Helmich-Paris,B.; de Souza,B.; Neese,F.; Izsák,R.
     An improved chain of spheres for exchange algorithm
     J. Chem. Phys., 2021 155 104109
     doi.org/doi: 10.1063/5.0058766.
  7. Neese,F.
     The SHARK Integral Generation and Digestion System
     J. Comp. Chem., 2022  1-16
     doi.org/10.1002/jcc.26942
  8. Grimme,S.; Antony,J.; Ehrlich,S.; Krieg,H.
     A consistent and accurate ab initio parametrization of density functional dispersion correction (DFT-D) for the 94 elements H-Pu
     J. Chem. Phys., 2010 132 154104
     doi.org/10.1063/1.3382344
  9. Grimme,S.; Ehrlich,S.; Goerigk,L.
     Effect of the damping function in dispersion corrected density functional theory
     J. Comput. Chem., 2011 32(7)1456-1465
     doi.org/10.1002/jcc.21759

List of suggested additional citations. These are papers that are important in the 'surrounding' of 
of this run, or papers that preceded the highly important papers. If you like your results we are grateful for a citation.

  1. Izsak,R.; Neese,F.
     An overlap fitted chain of spheres exchange method
     J. Chem. Phys., 2011 135 144105
     doi.org/10.1063/1.3646921
  2. Izsak,R.; Hansen,A.; Neese,F.
     The resolution of identity and chain of spheres approximations for the LPNO-CCSD singles Fock term
     Molec. Phys., 2012 110 2413-2417
     doi.org/10.1080/00268976.2012.687466
  3. Neese,F.
     The ORCA program system
     WIRES Comput. Molec. Sci., 2012 2(1)73-78
     doi.org/10.1002/wcms.81
  4. Izsak,R.; Neese,F.; Klopper,W.
     Robust fitting techniques in the chain of spheres approximation to the Fock exchange: The role of the complementary space
     J. Chem. Phys., 2013 139 
     doi.org/10.1063/1.4819264
  5. Neese,F.
     Software update: the ORCA program system, version 4.0
     WIRES Comput. Molec. Sci., 2018 8(1)1-6
     doi.org/10.1002/wcms.1327
  6. Neese,F.; Wennmohs,F.; Becker,U.; Riplinger,C.
     The ORCA quantum chemistry program package
     J. Chem. Phys., 2020 152 Art. No. L224108
     doi.org/10.1063/5.0004608

List of optional additional citations

  1. Neese,F.
     Approximate second-order SCF convergence for spin unrestricted wavefunctions
     Chem. Phys. Lett., 2000 325(1-3)93-98
     doi.org/10.1016/s0009-2614(00)00662-x

Timings for individual modules:

Sum of individual times          ...     1449.297 sec (=  24.155 min)
Startup calculation              ...        4.050 sec (=   0.068 min)   0.3 %
SCF iterations                   ...      106.171 sec (=   1.770 min)   7.3 %
Property integrals               ...      425.707 sec (=   7.095 min)  29.4 %
SCF Response                     ...      655.086 sec (=  10.918 min)  45.2 %
Property calculations            ...      258.282 sec (=   4.305 min)  17.8 %
                             ****ORCA TERMINATED NORMALLY****
TOTAL RUN TIME: 0 days 0 hours 24 minutes 10 seconds 97 msec
