
                                 *****************
                                 * O   R   C   A *
                                 *****************

                                            #,                                       
                                            ###                                      
                                            ####                                     
                                            #####                                    
                                            ######                                   
                                           ########,                                 
                                     ,,################,,,,,                         
                               ,,#################################,,                 
                          ,,##########################################,,             
                       ,#########################################, ''#####,          
                    ,#############################################,,   '####,        
                  ,##################################################,,,,####,       
                ,###########''''           ''''###############################       
              ,#####''   ,,,,##########,,,,          '''####'''          '####       
            ,##' ,,,,###########################,,,                        '##       
           ' ,,###''''                  '''############,,,                           
         ,,##''                                '''############,,,,        ,,,,,,###''
      ,#''                                            '''#######################'''  
     '                                                          ''''####''''         
             ,#######,   #######,   ,#######,      ##                                
            ,#'     '#,  ##    ##  ,#'     '#,    #''#        ,####,   ,####,        
            ##       ##  ##   ,#'  ##            #'  '#       #'       #'  '#        
            ##       ##  #######   ##           ,######,      #####,   #    #        
            '#,     ,#'  ##    ##  '#,     ,#' ,#      #,     #,   #   #,  ,#        
             '#######'   ##     ##  '#######'  #'      '#     '####' # '####'        



                #########################################################
                #                        -***-                          #
                #          Department of theory and spectroscopy        #
                #                                                       #
                #                      Frank Neese                      #
                #                                                       #
                #     Directorship, Architecture, Infrastructure        #
                #                    SHARK, DRIVERS                     #
                #        Core code/Algorithms in most modules           #
                #                                                       #
                #        Max Planck Institute fuer Kohlenforschung      #
                #                Kaiser Wilhelm Platz 1                 #
                #                 D-45470 Muelheim/Ruhr                 #
                #                      Germany                          #
                #                                                       #
                #                  All rights reserved                  #
                #                        -***-                          #
                #########################################################


                         Program Version 6.0.1  -  RELEASE   -


 With contributions from (in alphabetic order):
[Max-Planck-Institut fuer Kohlenforschung]                               
  Daniel Aravena         : Magnetic Suceptibility                        
  Michael Atanasov       : Ab Initio Ligand Field Theory (pilot matlab implementation)
  Alexander A. Auer      : GIAO ZORA, VPT2 properties, NMR spectrum      
  Ute Becker             : All parallelization in ORCA, NUMFREQ, NUMCALC 
  Giovanni Bistoni       : ED, misc. LED, open-shell LED, HFLD           
  Martin Brehm           : Molecular dynamics                            
  Dmytro Bykov           : pre 5.0 version of the SCF Hessian            
  Marcos Casanova-Páez   : Triplet and SCS-CIS(D). UHF-(DLPNO)-IP/EA/STEOM-CCSD. UHF-CVS-IP/STEOM-CCSD   
  Vijay G. Chilkuri      : MRCI spin determinant printing, contributions to CSF-ICE 
  Pauline Colinet        : FMM embedding                                 
  Dipayan Datta          : RHF DLPNO-CCSD density                        
  Achintya Kumar Dutta   : EOM-CC, STEOM-CC                              
  Nicolas Foglia         : Exact transition moments, OPA infrastructure, MCD improvements    
  Dmitry Ganyushin       : Spin-Orbit,Spin-Spin,Magnetic field MRCI      
  Miquel Garcia-Rates    : C-PCM and meta-GGA Hessian, CCSD/C-PCM, Gaussian charge scheme 
  Tiago L. C. Gouveia    : GS-ROHF, GS-ROCIS                             
  Yang Guo               : DLPNO-NEVPT2, F12-NEVPT2, CIM, IAO-localization        
  Andreas Hansen         : Spin unrestricted coupled pair/coupled cluster methods 
  Ingolf Harden          : AUTO-CI MPn and infrastructure                
  Benjamin Helmich-Paris : MC-RPA, TRAH-(SCF,CASSCF), AVAS, COSX integrals, SCF dyn. polar. 
  Lee Huntington         : MR-EOM, pCC                                   
  Robert Izsak           : Overlap fitted RIJCOSX, COSX-SCS-MP3, EOM     
  Riya Kayal             : Wick's Theorem for AUTO-CI, AUTO-CI UHF-CCSDT 
  Emily Kempfer          : AUTO-CI, RHF CISDT and CCSDT                  
  Christian Kollmar      : KDIIS, OOCD, Brueckner-CCSD(T), CCSD density, CASPT2, CASPT2-K, improved NEVPT2 
  Axel Koslowski         : Symmetry handling                             
  Simone Kossmann        : meta-GGA functionals, TD-DFT gradient, OOMP2, (MP2 Hessian; deprecated post 5.0) 
  Lucas Lang             : DCDCAS                                        
  Marvin Lechner         : AUTO-CI (C++ implementation), FIC-MRCC        
  Spencer Leger          : CASSCF response                               
  Dagmar Lenk            : GEPOL surface, SMD, ORCA-2-JSON               
  Dimitrios Liakos       : Extrapolation schemes; Compound Job, initial MDCI parallelization 
  Dimitrios Manganas     : Further ROCIS development; embedding schemes. LFT, Crystal Embedding 
  Dimitrios Pantazis     : SARC Basis sets                               
  Anastasios Papadopoulos: AUTO-CI, single reference methods and gradients 
  Taras Petrenko         : pre 6.0 DFT Hessian and TD-DFT gradient, (ASA, deprecated), ECA, 1-Electron XAS/XES, NRVS 
  Peter Pinski           : DLPNO-MP2, DLPNO-MP2 Gradient                 
  Christoph Reimann      : Effective Core Potentials                     
  Marius Retegan         : Local ZFS, SOC                                
  Christoph Riplinger    : Optimizer, TS searches, QM/MM, DLPNO-CCSD(T), (RO)-DLPNO pert. Triples 
  Michael Roemelt        : Original ROCIS implementation                 
  Masaaki Saitow         : Open-shell DLPNO-CCSD energy and density      
  Barbara Sandhoefer     : DKH picture change effects                    
  Kantharuban Sivalingam : CASSCF convergence/infrastructure, NEVPT2 and variants, FIC-MRCI 
  Bernardo de Souza      : ESD, SOC TD-DFT                               
  Georgi L. Stoychev     : AutoAux, RI-MP2 NMR, DLPNO-MP2 response, X2C  
  Van Anh Tran           : RI-MP2 g-tensors                              
  Willem Van den Heuvel  : Paramagnetic NMR                              
  Zikuan Wang            : NOTCH, Electric field optimization            
  Frank Wennmohs         : Technical directorship and infrastructure     
  Hang Xu                : AUTO-CI-Response properties                   
                                                                         
[FACCTs GmbH]                                                            
  Markus Bursch, Miquel Garcia-Rates, Christoph Riplinger, Bernardo de Souza, Georgi L. Stoychev 
                                                                 
  APM, Basis sets (HGBS, AHGBS, def-TZVP (Ac-Lr), def2-XVPD (La-Lu)), CI-OPT, improved COSX, DLPNO-Multilevel,           
  DOCKER, DRACO, updates on ESD, GOAT, IRC, LR-CPCM, MBIS, meta-GGA TD-DFT gradient, ML-optimized integration grids, 
  MM, NACMEs, nearIR, NEB, NEB-TS, NL-DFT gradient (VV10), 2- and 3-layer-ONIOM, interface openCOSMO-RS, QMMM,   
  Crystal-QMMM, SF, symmetry and pop. for TD-DFT, r2SCAN hybrids, SOLVATOR                                   
                                                                         
[Other institutions]                                                     
  V. Asgeirsson          : NEB                                           
  Christoph Bannwarth    : sTDA-DFT, sTD-DFT, PBEh-3c, B97-3c, D3        
  Sebastian Ehlert       : rSCAN, r2SCAN, r2SCAN-3c, D4, dhf basis sets  
  Marvin Friede          : D4 for Fr, Ra, Ac-Lr                          
  Lars Goerigk           : TD-DFT with DH, B97 family of functionals     
  Stefan Grimme          : VdW corrections, initial TS optimization, DFT functionals, gCP, sTDA/sTD-DF 
  Waldemar Hujo          : DFT-NL                                        
  H. Jonsson             : NEB                                           
  Holger Kruse           : gCP                                           
  Marcel Mueller         : wB97X-3c, vDZP basis set                      
  Hagen Neugebauer       : wr2SCAN                                       
  Tobias Risthaus        : range-separated hybrid DFT                    
  Lukas Wittmann         : regularized MP2, r2SCAN double-hybrids, wr2SCAN        
                                                                         
We gratefully acknowledge several colleagues who have allowed us to      
interface, adapt or use parts of their codes:                            
  Ed Valeev, F. Pavosevic, A. Kumar             : LibInt (2-el integral package), F12 methods 
  Garnet Chan, S. Sharma, J. Yang, R. Olivares  : DMRG                   
  Ulf Ekstrom                                   : XCFun DFT Library      
  Mihaly Kallay                                 : mrcc  (arbitrary order and MRCC methods)
  Frank Weinhold                                : gennbo (NPA and NBO analysis)           
  Simon Mueller                                 : openCOSMO-RS                            
  Christopher J. Cramer and Donald G. Truhlar   : smd solvation model                     
  S Lehtola, MJT Oliveira, MAL Marques          : LibXC Library                           
  Liviu Ungur et al                             : ANISO software                          


 Your calculation uses the libint2 library for the computation of 2-el integrals
 For citations please refer to: http://libint.valeyev.net

 Your ORCA version has been built with support for libXC version: 6.2.2
 For citations please refer to: https://libxc.gitlab.io

 This ORCA versions uses:
   CBLAS   interface :  Fast vector & matrix operations
   LAPACKE interface :  Fast linear algebra routines
   SCALAPACK package :  Parallel linear algebra routines
   Shared memory     :  Shared parallel matrices
   BLAS/LAPACK       :  OpenBLAS 0.3.27  USE64BITINT DYNAMIC_ARCH NO_AFFINITY SkylakeX SINGLE_THREADED
        Core in use  :  SkylakeX
   Copyright (c) 2011-2014, The OpenBLAS Project


NOTE: MaxCore=8000 MB was set to SCF,MP2,MDCI,CIPSI,MRCI and CIS
      => If you want to overwrite this, your respective input block should be placed after the MaxCore statement
Your calculation utilizes the atom-pairwise dispersion correction
with the Becke-Johnson damping scheme (D3BJ)


Your calculation utilizes the SMD solvation module
Please cite in your paper:
A.V. Marenich, C.J. Cramer, D.G. Truhlar J. Phys. Chem. B, 113, (2009), 6378 

Warning: RI is on but no J-basis has been assigned. Assigning Def2/J (nothing to worry about!)
================================================================================

----- Orbital basis set information -----
Your calculation utilizes the basis: def2-TZVP
   F. Weigend and R. Ahlrichs, Phys. Chem. Chem. Phys. 7, 3297 (2005).

----- AuxJ basis set information -----
Your calculation utilizes the auxiliary basis: def2/J
   F. Weigend, Phys. Chem. Chem. Phys. 8, 1057 (2006).

================================================================================
                                        WARNINGS
                       Please study these warnings very carefully!
================================================================================


================================================================================
                                       INPUT FILE
================================================================================
NAME = rf_mecn_1H2O_freq_TP_sw_03.inp
|  1> !TPSSh def2-TZVP freq d3 TightSCF SlowConv defgrid2
|  2>  
|  3> %pal
|  4> nprocs 20
|  5> end
|  6>  
|  7> %scf
|  8> MaxIter 1500
|  9> end
| 10>  
| 11> %maxcore 8000
| 12>  
| 13> !CPCM
| 14> %cpcm smd true
| 15> SMDsolvent "ACETONITRILE"
| 16> end
| 17>  
| 18> * xyz -1 1
| 19> 6        6.897484000     27.977234000      2.960231000
| 20> 6        6.129566000     26.706462000      2.473279000
| 21> 6        7.052502000     25.496374000      2.107192000
| 22> 6        6.293324000     24.125172000      2.067052000
| 23> 6        7.063080000     23.010724000      1.277163000
| 24> 6        6.580481000     21.559390000      1.606022000
| 25> 6        6.996415000     20.471725000      0.575600000
| 26> 6        6.887710000     19.012743000      1.168325000
| 27> 9        7.882455000     28.291566000      2.112457000
| 28> 9        7.414877000     27.786462000      4.175542000
| 29> 9        6.040526000     29.001575000      3.019895000
| 30> 9        5.279129000     26.345586000      3.459045000
| 31> 9        5.412454000     27.051699000      1.385389000
| 32> 9        7.602872000     25.738540000      0.897818000
| 33> 9        8.043117000     25.413391000      3.021254000
| 34> 9        6.098803000     23.717114000      3.339613000
| 35> 9        5.088662000     24.313780000      1.484680000
| 36> 9        6.895490000     23.246796000     -0.043530000
| 37> 9        8.379991000     23.111387000      1.568715000
| 38> 9        7.098690000     21.217807000      2.814590000
| 39> 9        5.230629000     21.580368000      1.716990000
| 40> 9        6.197168000     20.606154000     -0.526829000
| 41> 9        8.269425000     20.758393000      0.170111000
| 42> 8        7.961795000     18.444779000      1.390575000
| 43> 8        5.707348000     18.633533000      1.346085000
| 44> 8        3.190536000     19.276419000      0.431646000
| 45> 1        2.845115000     18.379986000      0.328672000
| 46> 1        4.119111000     19.142161000      0.733035000
| 47> *
| 48> 
| 49>                          ****END OF INPUT****
================================================================================

                       ****************************
                       * Single Point Calculation *
                       ****************************

---------------------------------
CARTESIAN COORDINATES (ANGSTROEM)
---------------------------------
  C      6.897484   27.977234    2.960231
  C      6.129566   26.706462    2.473279
  C      7.052502   25.496374    2.107192
  C      6.293324   24.125172    2.067052
  C      7.063080   23.010724    1.277163
  C      6.580481   21.559390    1.606022
  C      6.996415   20.471725    0.575600
  C      6.887710   19.012743    1.168325
  F      7.882455   28.291566    2.112457
  F      7.414877   27.786462    4.175542
  F      6.040526   29.001575    3.019895
  F      5.279129   26.345586    3.459045
  F      5.412454   27.051699    1.385389
  F      7.602872   25.738540    0.897818
  F      8.043117   25.413391    3.021254
  F      6.098803   23.717114    3.339613
  F      5.088662   24.313780    1.484680
  F      6.895490   23.246796   -0.043530
  F      8.379991   23.111387    1.568715
  F      7.098690   21.217807    2.814590
  F      5.230629   21.580368    1.716990
  F      6.197168   20.606154   -0.526829
  F      8.269425   20.758393    0.170111
  O      7.961795   18.444779    1.390575
  O      5.707348   18.633533    1.346085
  O      3.190536   19.276419    0.431646
  H      2.845115   18.379986    0.328672
  H      4.119111   19.142161    0.733035

----------------------------
CARTESIAN COORDINATES (A.U.)
----------------------------
  NO LB      ZA    FRAG     MASS         X           Y           Z
   0 C     6.0000    0    12.011   13.034356   52.869310    5.594026
   1 C     6.0000    0    12.011   11.583201   50.467899    4.673820
   2 C     6.0000    0    12.011   13.327297   48.181164    3.982016
   3 C     6.0000    0    12.011   11.892659   45.589968    3.906162
   4 C     6.0000    0    12.011   13.347287   43.483967    2.413488
   5 C     6.0000    0    12.011   12.435307   40.741343    3.034942
   6 C     6.0000    0    12.011   13.221308   38.685954    1.087726
   7 C     6.0000    0    12.011   13.015886   35.928877    2.207814
   8 F     9.0000    0    18.998   14.895681   53.463312    3.991965
   9 F     9.0000    0    18.998   14.012087   52.508803    7.890631
  10 F     9.0000    0    18.998   11.414940   54.805034    5.706775
  11 F     9.0000    0    18.998    9.976108   49.785942    6.536648
  12 F     9.0000    0    18.998   10.228056   51.120303    2.618006
  13 F     9.0000    0    18.998   14.367346   48.638792    1.696630
  14 F     9.0000    0    18.998   15.199288   48.024349    5.709343
  15 F     9.0000    0    18.998   11.525067   44.818850    6.310954
  16 F     9.0000    0    18.998    9.616178   45.946385    2.805639
  17 F     9.0000    0    18.998   13.030588   43.930078   -0.082260
  18 F     9.0000    0    18.998   15.835888   43.674192    2.964442
  19 F     9.0000    0    18.998   13.414580   40.095844    5.318804
  20 F     9.0000    0    18.998    9.884456   40.780985    3.244641
  21 F     9.0000    0    18.998   11.710950   38.939988   -0.995563
  22 F     9.0000    0    18.998   15.626949   39.227678    0.321463
  23 O     8.0000    0    15.999   15.045612   34.855581    2.627806
  24 O     8.0000    0    15.999   10.785325   35.212274    2.543732
  25 O     8.0000    0    15.999    6.029239   36.427153    0.815693
  26 H     1.0000    0     1.008    5.376488   34.733140    0.621100
  27 H     1.0000    0     1.008    7.783992   36.173442    1.385235

--------------------------------
INTERNAL COORDINATES (ANGSTROEM)
--------------------------------
 C      0   0   0     0.000000000000     0.00000000     0.00000000
 C      1   0   0     1.562588167436     0.00000000     0.00000000
 C      2   1   0     1.565293429172   114.31919869     0.00000000
 C      3   2   1     1.567851198325   113.36535027   161.62010808
 C      4   3   2     1.567942370293   113.37838647   161.56680671
 C      5   4   3     1.564423349429   113.70619075   161.24203697
 C      6   5   4     1.554923066478   115.28435759   162.74213324
 C      7   6   5     1.578533553325   112.28834917   161.98709655
 F      1   2   3     1.337046458483   110.83191338    50.00813909
 F      1   2   3     1.334567457701   110.98095118   288.75557277
 F      1   2   3     1.336866220286   108.78493711   169.44771237
 F      2   1   3     1.351003029272   107.40975064   121.82545605
 F      2   1   3     1.347940228205   107.73822487   238.89417601
 F      3   2   1     1.350606152930   108.12425884   283.02188550
 F      3   2   1     1.350449405331   108.76689142    40.71949906
 F      4   3   2     1.350467048664   108.05219136   282.88422953
 F      4   3   2     1.351273717014   108.70171870    40.62860589
 F      5   4   3     1.352052660784   107.88664331   282.53214957
 F      5   4   3     1.352549514877   108.45181740    39.93345725
 F      6   5   4     1.358622877841   107.61235408   283.50687527
 F      6   5   4     1.354567973714   108.07508452    40.05616581
 F      7   6   5     1.368289670754   107.99601885   284.29071438
 F      7   6   5     1.366438557508   107.40396100    38.82825702
 O      8   7   6     1.235166691188   115.63793142   251.04863365
 O      8   7   6     1.252458898625   113.45539902    70.35825889
 O     25   8   7     2.753877945200   138.03016916    20.81205094
 H     26  25   8     0.966183955262    98.36796271   138.36868991
 H     26  25   8     0.985450186722     5.99592983   336.28510719

---------------------------
INTERNAL COORDINATES (A.U.)
---------------------------
 C      0   0   0     0.000000000000     0.00000000     0.00000000
 C      1   0   0     2.952863696561     0.00000000     0.00000000
 C      2   1   0     2.957975900362   114.31919869     0.00000000
 C      3   2   1     2.962809383574   113.36535027   161.62010808
 C      4   3   2     2.962981673626   113.37838647   161.56680671
 C      5   4   3     2.956331687932   113.70619075   161.24203697
 C      6   5   4     2.938378754960   115.28435759   162.74213324
 C      7   6   5     2.982996108991   112.28834917   161.98709655
 F      1   2   3     2.526651634862   110.83191338    50.00813909
 F      1   2   3     2.521967002298   110.98095118   288.75557277
 F      1   2   3     2.526311034030   108.78493711   169.44771237
 F      2   1   3     2.553025731421   107.40975064   121.82545605
 F      2   1   3     2.547237876203   107.73822487   238.89417601
 F      3   2   1     2.552275743826   108.12425884   283.02188550
 F      3   2   1     2.551979533792   108.76689142    40.71949906
 F      4   3   2     2.552012874859   108.05219136   282.88422953
 F      4   3   2     2.553537257122   108.70171870    40.62860589
 F      5   4   3     2.555009247521   107.88664331   282.53214957
 F      5   4   3     2.555948165686   108.45181740    39.93345725
 F      6   5   4     2.567425158400   107.61235408   283.50687527
 F      6   5   4     2.559762500100   108.07508452    40.05616581
 F      7   6   5     2.585692749598   107.99601885   284.29071438
 F      7   6   5     2.582194652521   107.40396100    38.82825702
 O      8   7   6     2.334126776088   115.63793142   251.04863365
 O      8   7   6     2.366804312393   113.45539902    70.35825889
 O     25   8   7     5.204075122674   138.03016916    20.81205094
 H     26  25   8     1.825823070434    98.36796271   138.36868991
 H     26  25   8     1.862230971526     5.99592983   336.28510719

---------------------
BASIS SET INFORMATION
---------------------
There are 4 groups of distinct atoms

 Group   1 Type C   : 11s6p2d1f contracted to 5s3p2d1f pattern {62111/411/11/1}
 Group   2 Type F   : 11s6p2d1f contracted to 5s3p2d1f pattern {62111/411/11/1}
 Group   3 Type O   : 11s6p2d1f contracted to 5s3p2d1f pattern {62111/411/11/1}
 Group   4 Type H   : 5s1p contracted to 3s1p pattern {311/1}

Atom   0C    basis set group =>   1
Atom   1C    basis set group =>   1
Atom   2C    basis set group =>   1
Atom   3C    basis set group =>   1
Atom   4C    basis set group =>   1
Atom   5C    basis set group =>   1
Atom   6C    basis set group =>   1
Atom   7C    basis set group =>   1
Atom   8F    basis set group =>   2
Atom   9F    basis set group =>   2
Atom  10F    basis set group =>   2
Atom  11F    basis set group =>   2
Atom  12F    basis set group =>   2
Atom  13F    basis set group =>   2
Atom  14F    basis set group =>   2
Atom  15F    basis set group =>   2
Atom  16F    basis set group =>   2
Atom  17F    basis set group =>   2
Atom  18F    basis set group =>   2
Atom  19F    basis set group =>   2
Atom  20F    basis set group =>   2
Atom  21F    basis set group =>   2
Atom  22F    basis set group =>   2
Atom  23O    basis set group =>   3
Atom  24O    basis set group =>   3
Atom  25O    basis set group =>   3
Atom  26H    basis set group =>   4
Atom  27H    basis set group =>   4
---------------------------------
AUXILIARY/J BASIS SET INFORMATION
---------------------------------
There are 4 groups of distinct atoms

 Group   1 Type C   : 12s5p4d2f1g contracted to 6s4p3d1f1g pattern {711111/2111/211/2/1}
 Group   2 Type F   : 12s5p4d2f1g contracted to 6s4p3d1f1g pattern {711111/2111/211/2/1}
 Group   3 Type O   : 12s5p4d2f1g contracted to 6s4p3d1f1g pattern {711111/2111/211/2/1}
 Group   4 Type H   : 5s2p1d contracted to 3s1p1d pattern {311/2/1}

Atom   0C    basis set group =>   1
Atom   1C    basis set group =>   1
Atom   2C    basis set group =>   1
Atom   3C    basis set group =>   1
Atom   4C    basis set group =>   1
Atom   5C    basis set group =>   1
Atom   6C    basis set group =>   1
Atom   7C    basis set group =>   1
Atom   8F    basis set group =>   2
Atom   9F    basis set group =>   2
Atom  10F    basis set group =>   2
Atom  11F    basis set group =>   2
Atom  12F    basis set group =>   2
Atom  13F    basis set group =>   2
Atom  14F    basis set group =>   2
Atom  15F    basis set group =>   2
Atom  16F    basis set group =>   2
Atom  17F    basis set group =>   2
Atom  18F    basis set group =>   2
Atom  19F    basis set group =>   2
Atom  20F    basis set group =>   2
Atom  21F    basis set group =>   2
Atom  22F    basis set group =>   2
Atom  23O    basis set group =>   3
Atom  24O    basis set group =>   3
Atom  25O    basis set group =>   3
Atom  26H    basis set group =>   4
Atom  27H    basis set group =>   4


           ************************************************************
           *        Program running with 20 parallel MPI-processes    *
           *              working on a common directory               *
           ************************************************************
------------------------------------------------------------------------------
                             ORCA STARTUP CALCULATIONS
                           -- RI-GTO INTEGRALS CHOSEN --
------------------------------------------------------------------------------
------------------------------------------------------------------------------
                   ___                                                        
                  /   \      - P O W E R E D   B Y -                         
                 /     \                                                     
                 |  |  |   _    _      __       _____    __    __             
                 |  |  |  | |  | |    /  \     |  _  \  |  |  /  |          
                  \  \/   | |  | |   /    \    | | | |  |  | /  /          
                 / \  \   | |__| |  /  /\  \   | |_| |  |  |/  /          
                |  |  |   |  __  | /  /__\  \  |    /   |      \           
                |  |  |   | |  | | |   __   |  |    \   |  |\   \          
                \     /   | |  | | |  |  |  |  | |\  \  |  | \   \       
                 \___/    |_|  |_| |__|  |__|  |_| \__\ |__|  \__/        
                                                                              
                      - O R C A' S   B I G   F R I E N D -                    
                                      &                                       
                       - I N T E G R A L  F E E D E R -                       
                                                                              
 v1 FN, 2020, v2 2021, v3 2022-2024                                           
------------------------------------------------------------------------------


----------------------
SHARK INTEGRAL PACKAGE
----------------------

Number of atoms                             ...     28
Number of basis functions                   ...    818
Number of shells                            ...    294
Maximum angular momentum                    ...      3
Integral batch strategy                     ... SHARK/LIBINT Hybrid
RI-J (if used) integral strategy            ... SPLIT-RIJ (Revised 2003 algorithm where possible)
Printlevel                                  ...      1
Contraction scheme used                     ... SEGMENTED contraction
Prescreening option                         ... SCHWARTZ
   Thresh                                   ... 2.500e-11
   Tcut                                     ... 2.500e-12
   Tpresel                                  ... 2.500e-12 
Coulomb Range Separation                    ... NOT USED
Exchange Range Separation                   ... NOT USED
Multipole approximations                    ... NOT USED
Finite Nucleus Model                        ... NOT USED
CABS basis                                  ... NOT available
Auxiliary Coulomb fitting basis             ... AVAILABLE
   # of basis functions in Aux-J            ...   1296
   # of shells in Aux-J                     ...    400
   Maximum angular momentum in Aux-J        ...      4
Auxiliary J/K fitting basis                 ... NOT available
Auxiliary Correlation fitting basis         ... NOT available
Auxiliary 'external' fitting basis          ... NOT available

Checking pre-screening integrals            ... done (  0.0 sec) Dimension = 294
Check shell pair data                       ... done (  0.0 sec)
Shell pair information
Shell pair cut-off parameter TPreSel        ...   2.5e-12
Total number of shell pairs                 ...     43365
Shell pairs after pre-screening             ...     25595
Total number of primitive shell pairs       ...    142356
Primitive shell pairs kept                  ...     53727
          la=0 lb=0:   4994 shell pairs
          la=1 lb=0:   7065 shell pairs
          la=1 lb=1:   2417 shell pairs
          la=2 lb=0:   3767 shell pairs
          la=2 lb=1:   2722 shell pairs
          la=2 lb=2:    756 shell pairs
          la=3 lb=0:   1707 shell pairs
          la=3 lb=1:   1311 shell pairs
          la=3 lb=2:    690 shell pairs
          la=3 lb=3:    166 shell pairs

Calculating one electron integrals          ... done (  0.0 sec)
Calculating RI/J V-Matrix + Cholesky decomp.... done (  0.1 sec)
Calculating Nuclear repulsion               ... done (  0.0 sec) ENN=   3070.343617330685 Eh

Diagonalization of the overlap matrix:
Smallest eigenvalue                        ... 5.958e-05
Time for diagonalization                   ...    0.135 sec
Threshold for overlap eigenvalues          ... 1.000e-07
Number of eigenvalues below threshold      ... 0
Time for construction of square roots      ...    0.065 sec
Total time needed                          ...    0.208 sec

-------------------
DFT GRID GENERATION
-------------------

General Integration Accuracy     IntAcc      ... 4.388
Radial Grid Type                 RadialGrid  ... OptM3 with GC (2021)
Angular Grid (max. ang.)         AngularGrid ... 4 (Lebedev-302)
Angular grid pruning method      GridPruning ... 4 (adaptive)
Weight generation scheme         WeightScheme... mBecke (2022)
Basis function cutoff            BFCut       ... 1.0000e-11
Integration weight cutoff        WCut        ... 1.0000e-14
Partially contracted basis set               ... off
Rotationally invariant grid construction     ... off
Angular grids for H and He will be reduced by one unit

Total number of grid points                  ...   164055
Total number of batches                      ...     2578
Average number of points per batch           ...       63
Average number of grid points per atom       ...     5859

--------------------
COSX GRID GENERATION
--------------------

GRIDX 1
-------
General Integration Accuracy     IntAcc      ... 3.816
Radial Grid Type                 RadialGrid  ... OptM3 with GC (2021)
Angular Grid (max. ang.)         AngularGrid ... 1 (Lebedev-50)
Angular grid pruning method      GridPruning ... 4 (adaptive)
Weight generation scheme         WeightScheme... mBecke (2022)
Basis function cutoff            BFCut       ... 1.0000e-11
Integration weight cutoff        WCut        ... 1.0000e-14
Partially contracted basis set               ... on
Rotationally invariant grid construction     ... off
Angular grids for H and He will be reduced by one unit

Total number of grid points                  ...    20646
Total number of batches                      ...      173
Average number of points per batch           ...      119
Average number of grid points per atom       ...      737
UseSFitting                                  ... on

GRIDX 2
-------
General Integration Accuracy     IntAcc      ... 4.020
Radial Grid Type                 RadialGrid  ... OptM3 with GC (2021)
Angular Grid (max. ang.)         AngularGrid ... 2 (Lebedev-110)
Angular grid pruning method      GridPruning ... 4 (adaptive)
Weight generation scheme         WeightScheme... mBecke (2022)
Basis function cutoff            BFCut       ... 1.0000e-11
Integration weight cutoff        WCut        ... 1.0000e-14
Partially contracted basis set               ... on
Rotationally invariant grid construction     ... off
Angular grids for H and He will be reduced by one unit

Total number of grid points                  ...    48368
Total number of batches                      ...      393
Average number of points per batch           ...      123
Average number of grid points per atom       ...     1727
UseSFitting                                  ... on

GRIDX 3
-------
General Integration Accuracy     IntAcc      ... 4.338
Radial Grid Type                 RadialGrid  ... OptM3 with GC (2021)
Angular Grid (max. ang.)         AngularGrid ... 3 (Lebedev-194)
Angular grid pruning method      GridPruning ... 4 (adaptive)
Weight generation scheme         WeightScheme... mBecke (2022)
Basis function cutoff            BFCut       ... 1.0000e-11
Integration weight cutoff        WCut        ... 1.0000e-14
Partially contracted basis set               ... on
Rotationally invariant grid construction     ... off
Angular grids for H and He will be reduced by one unit

Total number of grid points                  ...   107025
Total number of batches                      ...      850
Average number of points per batch           ...      125
Average number of grid points per atom       ...     3822
UseSFitting                                  ... on
Initializing property integral containers    ... done (  0.0 sec)

SHARK setup successfully completed in   3.8 seconds

Maximum memory used throughout the entire STARTUP-calculation: 64.0 MB


           ************************************************************
           *        Program running with 20 parallel MPI-processes    *
           *              working on a common directory               *
           ************************************************************
-------------------------------------------------------------------------------
                                 ORCA GUESS
                   Start orbitals & Density for SCF / CASSCF
-------------------------------------------------------------------------------

------------
SCF SETTINGS
------------
Hamiltonian:
 Density Functional     Method          .... DFT(GTOs)
 Exchange Functional    Exchange        .... TPSS
 Correlation Functional Correlation     .... TPSS
 LDA part of GGA corr.  LDAOpt          .... PW91-LDA
 Gradients option       PostSCFGGA      .... off
 Hybrid DFT is turned on
   Fraction HF Exchange ScalHFX         ....  0.100000
   Scaling of DF-GGA-X  ScalDFX         ....  0.900000
   Scaling of DF-GGA-C  ScalDFC         ....  1.000000
   Scaling of DF-LDA-C  ScalLDAC        ....  1.000000
   Perturbative correction              ....  0.000000
   NL short-range parameter             ....  5.200000
 RI-approximation to the Coulomb term is turned on
   Number of AuxJ basis functions       .... 1296
   RIJ-COSX (HFX calculated with COS-X)).... on


General Settings:
 Integral files         IntName         .... rf_mecn_1H2O_freq_TP_sw_03
 Hartree-Fock type      HFTyp           .... RHF
 Total Charge           Charge          ....   -1
 Multiplicity           Mult            ....    1
 Number of Electrons    NEL             ....  210
 Basis Dimension        Dim             ....  818
 Nuclear Repulsion      ENuc            ....   3070.3436173307 Eh

Convergence Acceleration:
 AO-DIIS                CNVDIIS         .... on
   Start iteration      DIISMaxIt       ....     0
   Startup error        DIISStart       ....  0.200000
   # of expansion vecs  DIISMaxEq       ....     5
   Bias factor          DIISBfac        ....   1.050
   Max. coefficient     DIISMaxC        ....  10.000
 MO-DIIS                CNVKDIIS        .... off
 Trust-Rad. Augm. Hess. CNVTRAH         .... auto
   Auto Start mean grad. ratio tolernc. ....  1.125000
   Auto Start start iteration           ....    50
   Auto Start num. interpolation iter.  ....    10
   Max. Number of Micro iterations      ....    24
   Max. Number of Macro iterations      .... Maxiter - #DIIS iter
   Number of Davidson start vectors     ....     2
   Converg. threshold    (grad. norm)   ....   1.000e-05
   Grad. Scal. Fac. for Micro threshold ....   0.100
   Minimum threshold for Micro iter.    ....   1.000e-02
   NR start threshold (gradient norm)   ....   1.000e-04
   Initial trust radius                 ....   0.400
   Minimum AH scaling param. (alpha)    ....   1.000
   Maximum AH scaling param. (alpha)    .... 1000.000
   Quad. conv. algorithm                .... NR
   White noise on init. David. guess    .... on
   Maximum white noise                  ....   0.010
   Pseudo random numbers                .... off
   Inactive MOs                         .... canonical
   Orbital update algorithm             .... Taylor
   Preconditioner                       .... Diag
   Full preconditioner red. dimension   ....   250
 SOSCF                  CNVSOSCF        .... on
   Start iteration      SOSCFMaxIt      ....   150
   Startup grad/error   SOSCFStart      ....  0.001000
   Hessian update       SOSCFHessUp     .... L-BFGS
 Level Shifting         CNVShift        .... on
   Level shift para.    LevelShift      ....    0.2500
   Turn off err/grad.   ShiftErr        ....    0.0000
 Zerner damping         CNVZerner       .... off
 Static damping         CNVDamp         .... on
   Fraction old density DampFac         ....    0.8500
   Max. Damping (<1)    DampMax         ....    0.9800
   Min. Damping (>=0)   DampMin         ....    0.0000
   Turn off err/grad.   DampErr         ....    0.0300

SCF Procedure:
 Maximum # iterations   MaxIter         ....  1500
 SCF integral mode      SCFMode         .... Direct
   Integral package                     .... SHARK and LIBINT hybrid scheme
 Reset frequency        DirectResetFreq ....    20
 Integral Threshold     Thresh          ....  2.500e-11 Eh
 Primitive CutOff       TCut            ....  2.500e-12 Eh

Convergence Tolerance:
 Convergence Check Mode ConvCheckMode   .... Total+1el-Energy
 Convergence forced     ConvForced      .... 0
 Energy Change          TolE            ....  1.000e-08 Eh
 1-El. energy change                    ....  1.000e-05 Eh
 Orbital Gradient       TolG            ....  1.000e-05
 Orbital Rotation angle TolX            ....  1.000e-05
 DIIS Error             TolErr          ....  5.000e-07

------------------------------
INITIAL GUESS: MODEL POTENTIAL
------------------------------
Loading Hartree-Fock densities                     ... done
Calculating cut-offs                               ... done
Initializing the effective Hamiltonian             ... done
Setting up the integral package (SHARK)            ... done
Starting the Coulomb interaction                   ... done (   0.2 sec)
Making the grid                                    ... done (   0.5 sec)
Mapping shells                                     ... done
Starting the XC term evaluation                    ... done (   0.1 sec)
  promolecular density results
     # of electrons  =    209.000855069
     EX              =   -215.950204708
     EC              =     -7.323812636
     EX+EC           =   -223.274017343
Transforming the Hamiltonian                       ... done (   0.1 sec)
Diagonalizing the Hamiltonian                      ... done (   0.2 sec)
Back transforming the eigenvectors                 ... done (   0.0 sec)
Now organizing SCF variables                       ... done
                      ------------------
                      INITIAL GUESS DONE (   1.1 sec)
                      ------------------
             **** ENERGY FILE WAS UPDATED (rf_mecn_1H2O_freq_TP_sw_03.en.tmp) ****
Finished Guess after   1.8 sec
Maximum memory used throughout the entire GUESS-calculation: 53.2 MB


           ************************************************************
           *        Program running with 20 parallel MPI-processes    *
           *              working on a common directory               *
           ************************************************************

-------------------------------------------------------------------------------------------
                                      ORCA LEAN-SCF
                              memory conserving SCF solver
-------------------------------------------------------------------------------------------

--------------------
CPCM SOLVATION MODEL
--------------------
CPCM parameters:
  Epsilon                                         ...      35.6880
  Refrac                                          ...       1.3442
  Rsolv                                           ...       1.3000
  Surface type                                    ... GAUSSIAN VDW
  Discretization scheme                           ... Constant charge density
    Threshold for H atoms                         ...       5.0000 (charges/Ang^2)
    Threshold for non-H atoms                     ...       5.0000 (charges/Ang^2)
  Epsilon function type                           ...         CPCM
Solvent:                                          ... ACETONITRILE
SMD-CDS solvent descriptors:
  Soln                                            ...       1.3442
  Soln25                                          ...       1.3416
  Sola                                            ...       0.0700
  Solb                                            ...       0.3200
  Solg                                            ...      41.2500
  Solc                                            ...       0.0000
  Solh                                            ...       0.0000
Radii:
  Scheme                                          ... Element-dependent radii
  Radius for C  used is    3.4960 Bohr (=   1.8500 Ang.)
  Radius for F  used is    3.2692 Bohr (=   1.7300 Ang.)
  Radius for O  used is    4.0969 Bohr (=   2.1680 Ang.)
  Radius for H  used is    2.2677 Bohr (=   1.2000 Ang.)
Calculating surface                               ...        done! (  0.0s)
Cavity surface points                             ...         2371
Cavity Volume                                     ...    2377.6216
Cavity Surface-area                               ...    1231.1922
Calculating surface distance matrix               ...        done! (  0.0s)
Performing Cholesky decomposition & store         ...        done! (  0.1s)
Overall time for CPCM initialization              ...                 0.2s

----------------------------------------D-I-I-S--------------------------------------------
Iteration    Energy (Eh)           Delta-E    RMSDP     MaxDP     DIISErr   Damp  Time(sec)
-------------------------------------------------------------------------------------------
               ***  Starting incremental Fock matrix formation  ***
    1    -2029.7948559584237955     0.00e+00  4.82e-04  5.22e-02  3.27e-01  0.850   7.3
Warning: op=0 Small HOMO/LUMO gap (   0.035) - skipping pre-diagonalization
         Will do a full diagonalization
    2    -2029.9659120671976780    -1.71e-01  6.09e-04  1.15e-01  2.29e-01  0.850   4.5
                               ***Turning on AO-DIIS***
    3    -2030.0572764087946780    -9.14e-02  3.20e-04  6.27e-02  1.41e-01  0.850   4.2
    4    -2030.1116911269482443    -5.44e-02  1.76e-04  2.78e-02  1.05e-01  0.850   4.1
    5    -2030.1502314340441444    -3.85e-02  1.10e-04  9.55e-03  8.52e-02  0.850   4.0
    6    -2030.1806723276458797    -3.04e-02  8.12e-05  6.78e-03  7.22e-02  0.850   3.9
    7    -2030.2059406178259451    -2.53e-02  6.94e-05  6.27e-03  6.21e-02  0.850   3.8
    8    -2030.2272781778165154    -2.13e-02  6.10e-05  5.52e-03  5.30e-02  0.850   3.5
    9    -2030.2450984092629369    -1.78e-02  5.25e-05  4.70e-03  4.42e-02  0.850   3.5
   10    -2030.2598910013648492    -1.48e-02  4.45e-05  3.98e-03  3.65e-02  0.850   3.3
   11    -2030.2722088180380524    -1.23e-02  3.74e-05  3.39e-03  3.03e-02  0.850   3.0
   12    -2030.2825180386616921    -1.03e-02  3.15e-05  2.91e-03  2.54e-02  0.850   2.9
   13    -2030.2911780852809898    -8.66e-03  1.78e-04  1.67e-02  2.14e-02  0.000   2.8
   14    -2030.3386179678473127    -4.74e-02  1.06e-05  1.32e-03  1.86e-03  0.000   3.3
                              *** Initializing SOSCF ***
---------------------------------------S-O-S-C-F--------------------------------------
Iteration    Energy (Eh)           Delta-E    RMSDP     MaxDP     MaxGrad    Time(sec)
--------------------------------------------------------------------------------------
   15    -2030.3386352885436281    -1.73e-05  6.23e-06  1.20e-03  5.18e-04     2.9
               *** Restarting incremental Fock matrix formation ***
   16    -2030.3386402501446355    -4.96e-06  5.54e-06  6.35e-04  1.00e-04     5.8
   17    -2030.3386399809160139     2.69e-07  1.39e-06  1.56e-04  1.45e-04     3.4
   18    -2030.3386405096844101    -5.29e-07  8.27e-07  1.18e-04  1.59e-05     3.4
   19    -2030.3386405252549594    -1.56e-08  4.57e-07  5.23e-05  3.74e-05     3.0
   20    -2030.3386405369556087    -1.17e-08  3.41e-07  4.07e-05  2.36e-06     2.8
                  *** Gradient check signals convergence ***

               *****************************************************
               *                     SUCCESS                       *
               *           SCF CONVERGED AFTER  20 CYCLES          *
               *****************************************************

Recomputing exchange energy using gridx3       ... done (    8.899 sec)
Old exchange energy                            :    -21.805610920 Eh
New exchange energy                            :    -21.805622405 Eh
Exchange energy change after final integration :     -0.000011485 Eh
Total energy after final integration           :  -2030.338652022 Eh

SMD CDS free energy correction energy :                 3.02987     Kcal/mol
Total Energy after SMD CDS correction =             -2030.333823621 Eh
             **** ENERGY FILE WAS UPDATED (rf_mecn_1H2O_freq_TP_sw_03.en.tmp) ****

----------------
TOTAL SCF ENERGY
----------------

Total Energy       :      -2030.33382362106454 Eh          -55248.19210 eV

Components:
Nuclear Repulsion  :       3070.34361733068545 Eh           83548.29734 eV
Electronic Energy  :      -5100.60198120502537 Eh         -138794.43608 eV
One Electron Energy:      -8960.39405974524198 Eh         -243824.71817 eV
Two Electron Energy:       3859.79207854021706 Eh          105030.28209 eV
CPCM Dielectric    :         -0.08027666261624 Eh              -2.18444 eV
SMD CDS (Gcds)     :          0.00482840115632 Eh               0.13139 eV

Virial components:
Potential Energy   :      -4053.77587786284130 Eh         -110308.84963 eV
Kinetic Energy     :       2023.44205424177699 Eh           55060.65753 eV
Virial Ratio       :          2.00340596330141

DFT components:
N(Alpha)           :      104.999955708358 electrons
N(Beta)            :      104.999955708358 electrons
N(Total)           :      209.999911416716 electrons
E(X)               :     -198.152781448157 Eh       
E(C)               :       -7.382319226867 Eh       
E(XC)              :     -205.535100675024 Eh       

CPCM Solvation Model Properties:
Surface-charge          :          0.99048483350541
Corrected charge        :          1.00000000000000
Outlying charge corr.   :          0.00000471825577 Eh               0.00013 eV
Free-energy (cav+disp)  :          0.00482840115632 Eh               0.13139 eV

---------------
SCF CONVERGENCE
---------------

  Last Energy change         ...    1.1701e-08  Tolerance :   1.0000e-08
  Last MAX-Density change    ...    4.0667e-05  Tolerance :   1.0000e-07
  Last RMS-Density change    ...    3.4126e-07  Tolerance :   5.0000e-09
  Last DIIS Error            ...    5.1807e-04  Tolerance :   5.0000e-07
  Last Orbital Gradient      ...    2.3576e-06  Tolerance :   1.0000e-05
  Last Orbital Rotation      ...    4.5083e-06  Tolerance :   1.0000e-05


----------------
ORBITAL ENERGIES
----------------

  NO   OCC          E(Eh)            E(eV) 
   0   2.0000     -24.660665      -671.0508 
   1   2.0000     -24.659532      -671.0200 
   2   2.0000     -24.659482      -671.0186 
   3   2.0000     -24.659241      -671.0121 
   4   2.0000     -24.659170      -671.0101 
   5   2.0000     -24.658920      -671.0033 
   6   2.0000     -24.658354      -670.9879 
   7   2.0000     -24.656690      -670.9426 
   8   2.0000     -24.656478      -670.9369 
   9   2.0000     -24.651833      -670.8105 
  10   2.0000     -24.651161      -670.7922 
  11   2.0000     -24.641458      -670.5282 
  12   2.0000     -24.641145      -670.5197 
  13   2.0000     -24.618154      -669.8940 
  14   2.0000     -24.618151      -669.8939 
  15   2.0000     -19.012361      -517.3527 
  16   2.0000     -19.001206      -517.0491 
  17   2.0000     -18.997787      -516.9561 
  18   2.0000     -10.395298      -282.8704 
  19   2.0000     -10.344004      -281.4747 
  20   2.0000     -10.343241      -281.4539 
  21   2.0000     -10.340941      -281.3913 
  22   2.0000     -10.334436      -281.2143 
  23   2.0000     -10.319955      -280.8202 
  24   2.0000     -10.285383      -279.8795 
  25   2.0000     -10.200458      -277.5686 
  26   2.0000      -1.321801       -35.9680 
  27   2.0000      -1.299158       -35.3519 
  28   2.0000      -1.284583       -34.9553 
  29   2.0000      -1.276637       -34.7390 
  30   2.0000      -1.273133       -34.6437 
  31   2.0000      -1.262669       -34.3590 
  32   2.0000      -1.237227       -33.6667 
  33   2.0000      -1.236493       -33.6467 
  34   2.0000      -1.231191       -33.5024 
  35   2.0000      -1.230528       -33.4844 
  36   2.0000      -1.224271       -33.3141 
  37   2.0000      -1.220895       -33.2222 
  38   2.0000      -1.217107       -33.1192 
  39   2.0000      -1.206519       -32.8310 
  40   2.0000      -1.180352       -32.1190 
  41   2.0000      -1.008868       -27.4527 
  42   2.0000      -0.947381       -25.7795 
  43   2.0000      -0.925974       -25.1970 
  44   2.0000      -0.823545       -22.4098 
  45   2.0000      -0.802019       -21.8240 
  46   2.0000      -0.772754       -21.0277 
  47   2.0000      -0.734988       -20.0000 
  48   2.0000      -0.692315       -18.8388 
  49   2.0000      -0.662471       -18.0268 
  50   2.0000      -0.644864       -17.5476 
  51   2.0000      -0.622760       -16.9462 
  52   2.0000      -0.617987       -16.8163 
  53   2.0000      -0.610007       -16.5991 
  54   2.0000      -0.601942       -16.3797 
  55   2.0000      -0.597672       -16.2635 
  56   2.0000      -0.596218       -16.2239 
  57   2.0000      -0.583633       -15.8815 
  58   2.0000      -0.580529       -15.7970 
  59   2.0000      -0.575833       -15.6692 
  60   2.0000      -0.568651       -15.4738 
  61   2.0000      -0.557187       -15.1618 
  62   2.0000      -0.555752       -15.1228 
  63   2.0000      -0.550058       -14.9678 
  64   2.0000      -0.543140       -14.7796 
  65   2.0000      -0.525972       -14.3124 
  66   2.0000      -0.486627       -13.2418 
  67   2.0000      -0.483106       -13.1460 
  68   2.0000      -0.480775       -13.0826 
  69   2.0000      -0.477549       -12.9948 
  70   2.0000      -0.473772       -12.8920 
  71   2.0000      -0.470039       -12.7904 
  72   2.0000      -0.466698       -12.6995 
  73   2.0000      -0.462751       -12.5921 
  74   2.0000      -0.456569       -12.4239 
  75   2.0000      -0.452971       -12.3260 
  76   2.0000      -0.450583       -12.2610 
  77   2.0000      -0.448159       -12.1950 
  78   2.0000      -0.441916       -12.0252 
  79   2.0000      -0.439813       -11.9679 
  80   2.0000      -0.436339       -11.8734 
  81   2.0000      -0.433778       -11.8037 
  82   2.0000      -0.430085       -11.7032 
  83   2.0000      -0.423604       -11.5269 
  84   2.0000      -0.422686       -11.5019 
  85   2.0000      -0.419873       -11.4253 
  86   2.0000      -0.416468       -11.3327 
  87   2.0000      -0.415139       -11.2965 
  88   2.0000      -0.411686       -11.2025 
  89   2.0000      -0.410799       -11.1784 
  90   2.0000      -0.407690       -11.0938 
  91   2.0000      -0.406000       -11.0478 
  92   2.0000      -0.401081       -10.9140 
  93   2.0000      -0.393063       -10.6958 
  94   2.0000      -0.390144       -10.6164 
  95   2.0000      -0.384740       -10.4693 
  96   2.0000      -0.377663       -10.2767 
  97   2.0000      -0.372817       -10.1449 
  98   2.0000      -0.350164        -9.5284 
  99   2.0000      -0.331477        -9.0200 
 100   2.0000      -0.320463        -8.7202 
 101   2.0000      -0.259322        -7.0565 
 102   2.0000      -0.242661        -6.6032 
 103   2.0000      -0.230732        -6.2785 
 104   2.0000      -0.225689        -6.1413 
 105   0.0000      -0.021594        -0.5876 
 106   0.0000      -0.008173        -0.2224 
 107   0.0000       0.010021         0.2727 
 108   0.0000       0.036443         0.9917 
 109   0.0000       0.041929         1.1410 
 110   0.0000       0.064152         1.7457 
 111   0.0000       0.084353         2.2954 
 112   0.0000       0.087244         2.3740 
 113   0.0000       0.098892         2.6910 
 114   0.0000       0.113535         3.0895 
 115   0.0000       0.121956         3.3186 
*Only the first 10 virtual orbitals were printed.

                    ********************************
                    * MULLIKEN POPULATION ANALYSIS *
                    ********************************

-----------------------
MULLIKEN ATOMIC CHARGES
-----------------------
   0 C :    0.408718
   1 C :    0.295469
   2 C :    0.271619
   3 C :    0.294451
   4 C :    0.294689
   5 C :    0.270947
   6 C :    0.302399
   7 C :    0.213827
   8 F :   -0.135773
   9 F :   -0.133205
  10 F :   -0.133052
  11 F :   -0.146765
  12 F :   -0.143929
  13 F :   -0.149234
  14 F :   -0.148859
  15 F :   -0.149819
  16 F :   -0.150546
  17 F :   -0.154615
  18 F :   -0.155414
  19 F :   -0.169926
  20 F :   -0.163069
  21 F :   -0.195323
  22 F :   -0.190399
  23 O :   -0.455826
  24 O :   -0.524416
  25 O :   -0.739393
  26 H :    0.330616
  27 H :    0.356832
Sum of atomic charges:   -1.0000000

--------------------------------
MULLIKEN REDUCED ORBITAL CHARGES
--------------------------------
  0 C s       :     3.020540  s :     3.020540
      pz      :     0.665073  p :     2.167402
      px      :     0.692659
      py      :     0.809671
      dz2     :     0.075098  d :     0.362902
      dxz     :     0.074180
      dyz     :     0.076898
      dx2y2   :     0.073010
      dxy     :     0.063716
      f0      :     0.007679  f :     0.040438
      f+1     :     0.006474
      f-1     :     0.004604
      f+2     :     0.004195
      f-2     :     0.007581
      f+3     :     0.004404
      f-3     :     0.005500

  1 C s       :     3.103123  s :     3.103123
      pz      :     0.624932  p :     2.275642
      px      :     0.743630
      py      :     0.907079
      dz2     :     0.079437  d :     0.297248
      dxz     :     0.057935
      dyz     :     0.060572
      dx2y2   :     0.039329
      dxy     :     0.059976
      f0      :     0.006007  f :     0.028519
      f+1     :     0.004647
      f-1     :     0.003056
      f+2     :     0.005461
      f-2     :     0.004654
      f+3     :     0.002446
      f-3     :     0.002246

  2 C s       :     3.134026  s :     3.134026
      pz      :     0.601434  p :     2.262521
      px      :     0.727849
      py      :     0.933238
      dz2     :     0.077727  d :     0.303356
      dxz     :     0.059529
      dyz     :     0.067557
      dx2y2   :     0.035579
      dxy     :     0.062964
      f0      :     0.005640  f :     0.028477
      f+1     :     0.005527
      f-1     :     0.003719
      f+2     :     0.004133
      f-2     :     0.004848
      f+3     :     0.002159
      f-3     :     0.002451

  3 C s       :     3.128538  s :     3.128538
      pz      :     0.648594  p :     2.245669
      px      :     0.700061
      py      :     0.897015
      dz2     :     0.068364  d :     0.302895
      dxz     :     0.072727
      dyz     :     0.056580
      dx2y2   :     0.041500
      dxy     :     0.063724
      f0      :     0.004510  f :     0.028447
      f+1     :     0.007407
      f-1     :     0.003404
      f+2     :     0.003349
      f-2     :     0.003489
      f+3     :     0.002778
      f-3     :     0.003510

  4 C s       :     3.131344  s :     3.131344
      pz      :     0.654029  p :     2.245561
      px      :     0.667505
      py      :     0.924026
      dz2     :     0.052177  d :     0.300080
      dxz     :     0.079243
      dyz     :     0.063585
      dx2y2   :     0.043873
      dxy     :     0.061201
      f0      :     0.004832  f :     0.028327
      f+1     :     0.006370
      f-1     :     0.004540
      f+2     :     0.003466
      f-2     :     0.001993
      f+3     :     0.002396
      f-3     :     0.004730

  5 C s       :     3.136139  s :     3.136139
      pz      :     0.718035  p :     2.270250
      px      :     0.624369
      py      :     0.927846
      dz2     :     0.055366  d :     0.294518
      dxz     :     0.072012
      dyz     :     0.051422
      dx2y2   :     0.052375
      dxy     :     0.063343
      f0      :     0.005954  f :     0.028146
      f+1     :     0.003752
      f-1     :     0.003520
      f+2     :     0.005253
      f-2     :     0.002144
      f+3     :     0.002304
      f-3     :     0.005217

  6 C s       :     3.109748  s :     3.109748
      pz      :     0.709982  p :     2.293526
      px      :     0.595814
      py      :     0.987730
      dz2     :     0.050051  d :     0.267508
      dxz     :     0.055530
      dyz     :     0.051709
      dx2y2   :     0.052691
      dxy     :     0.057527
      f0      :     0.004491  f :     0.026819
      f+1     :     0.004599
      f-1     :     0.002371
      f+2     :     0.004073
      f-2     :     0.004104
      f+3     :     0.003251
      f-3     :     0.003931

  7 C s       :     3.043390  s :     3.043390
      pz      :     0.839204  p :     2.457259
      px      :     0.733090
      py      :     0.884964
      dz2     :     0.011887  d :     0.261189
      dxz     :     0.077270
      dyz     :     0.016479
      dx2y2   :     0.078334
      dxy     :     0.077218
      f0      :     0.002168  f :     0.024335
      f+1     :     0.002507
      f-1     :     0.001181
      f+2     :     0.002436
      f-2     :     0.003144
      f+3     :     0.008185
      f-3     :     0.004714

  8 F s       :     3.912797  s :     3.912797
      pz      :     1.707954  p :     5.206031
      px      :     1.636226
      py      :     1.861851
      dz2     :     0.002717  d :     0.016185
      dxz     :     0.006087
      dyz     :     0.001839
      dx2y2   :     0.002820
      dxy     :     0.002723
      f0      :     0.000085  f :     0.000760
      f+1     :     0.000185
      f-1     :     0.000031
      f+2     :     0.000182
      f-2     :     0.000138
      f+3     :     0.000065
      f-3     :     0.000074

  9 F s       :     3.911399  s :     3.911399
      pz      :     1.509406  p :     5.204695
      px      :     1.814266
      py      :     1.881023
      dz2     :     0.006383  d :     0.016338
      dxz     :     0.005053
      dyz     :     0.003361
      dx2y2   :     0.000682
      dxy     :     0.000860
      f0      :     0.000220  f :     0.000773
      f+1     :     0.000263
      f-1     :     0.000131
      f+2     :     0.000066
      f-2     :     0.000078
      f+3     :     0.000006
      f-3     :     0.000008

 10 F s       :     3.911297  s :     3.911297
      pz      :     1.886660  p :     5.204762
      px      :     1.706641
      py      :     1.611462
      dz2     :     0.002322  d :     0.016224
      dxz     :     0.001517
      dyz     :     0.002021
      dx2y2   :     0.003745
      dxy     :     0.006620
      f0      :     0.000064  f :     0.000769
      f+1     :     0.000073
      f-1     :     0.000097
      f+2     :     0.000011
      f-2     :     0.000104
      f+3     :     0.000227
      f-3     :     0.000192

 11 F s       :     3.918054  s :     3.918054
      pz      :     1.649910  p :     5.212025
      px      :     1.698430
      py      :     1.863685
      dz2     :     0.003273  d :     0.015976
      dxz     :     0.005793
      dyz     :     0.002631
      dx2y2   :     0.001977
      dxy     :     0.002301
      f0      :     0.000083  f :     0.000710
      f+1     :     0.000205
      f-1     :     0.000061
      f+2     :     0.000134
      f-2     :     0.000148
      f+3     :     0.000034
      f-3     :     0.000044

 12 F s       :     3.915622  s :     3.915622
      pz      :     1.593202  p :     5.211443
      px      :     1.749294
      py      :     1.868946
      dz2     :     0.004303  d :     0.016139
      dxz     :     0.005536
      dyz     :     0.003129
      dx2y2   :     0.001410
      dxy     :     0.001761
      f0      :     0.000113  f :     0.000725
      f+1     :     0.000231
      f-1     :     0.000095
      f+2     :     0.000108
      f-2     :     0.000134
      f+3     :     0.000019
      f-3     :     0.000025

 13 F s       :     3.918646  s :     3.918646
      pz      :     1.522380  p :     5.213818
      px      :     1.804461
      py      :     1.886977
      dz2     :     0.005824  d :     0.016059
      dxz     :     0.004952
      dyz     :     0.003398
      dx2y2   :     0.000841
      dxy     :     0.001044
      f0      :     0.000187  f :     0.000711
      f+1     :     0.000239
      f-1     :     0.000117
      f+2     :     0.000069
      f-2     :     0.000083
      f+3     :     0.000007
      f-3     :     0.000008

 14 F s       :     3.918623  s :     3.918623
      pz      :     1.681227  p :     5.213452
      px      :     1.632646
      py      :     1.899579
      dz2     :     0.002808  d :     0.016072
      dxz     :     0.006400
      dyz     :     0.001762
      dx2y2   :     0.002780
      dxy     :     0.002322
      f0      :     0.000080  f :     0.000712
      f+1     :     0.000207
      f-1     :     0.000018
      f+2     :     0.000193
      f-2     :     0.000106
      f+3     :     0.000055
      f-3     :     0.000052

 15 F s       :     3.918099  s :     3.918099
      pz      :     1.484253  p :     5.214972
      px      :     1.873591
      py      :     1.857128
      dz2     :     0.006990  d :     0.016036
      dxz     :     0.003286
      dyz     :     0.004625
      dx2y2   :     0.000567
      dxy     :     0.000568
      f0      :     0.000256  f :     0.000712
      f+1     :     0.000138
      f-1     :     0.000218
      f+2     :     0.000045
      f-2     :     0.000048
      f+3     :     0.000004
      f-3     :     0.000003

 16 F s       :     3.918159  s :     3.918159
      pz      :     1.807720  p :     5.215689
      px      :     1.517719
      py      :     1.890250
      dz2     :     0.002064  d :     0.015990
      dxz     :     0.005072
      dyz     :     0.000829
      dx2y2   :     0.004609
      dxy     :     0.003415
      f0      :     0.000080  f :     0.000709
      f+1     :     0.000122
      f-1     :     0.000007
      f+2     :     0.000179
      f-2     :     0.000073
      f+3     :     0.000131
      f-3     :     0.000118

 17 F s       :     3.917226  s :     3.917226
      pz      :     1.451350  p :     5.220789
      px      :     1.880388
      py      :     1.889051
      dz2     :     0.007908  d :     0.015891
      dxz     :     0.003312
      dyz     :     0.004066
      dx2y2   :     0.000343
      dxy     :     0.000263
      f0      :     0.000322  f :     0.000708
      f+1     :     0.000158
      f-1     :     0.000182
      f+2     :     0.000024
      f-2     :     0.000019
      f+3     :     0.000002
      f-3     :     0.000002

 18 F s       :     3.917646  s :     3.917646
      pz      :     1.867245  p :     5.221205
      px      :     1.454001
      py      :     1.899959
      dz2     :     0.002106  d :     0.015858
      dxz     :     0.003768
      dyz     :     0.000298
      dx2y2   :     0.005955
      dxy     :     0.003730
      f0      :     0.000068  f :     0.000705
      f+1     :     0.000128
      f-1     :     0.000009
      f+2     :     0.000129
      f-2     :     0.000020
      f+3     :     0.000206
      f-3     :     0.000145

 19 F s       :     3.917826  s :     3.917826
      pz      :     1.532827  p :     5.235972
      px      :     1.828068
      py      :     1.875077
      dz2     :     0.005585  d :     0.015440
      dxz     :     0.004293
      dyz     :     0.003776
      dx2y2   :     0.000915
      dxy     :     0.000871
      f0      :     0.000169  f :     0.000689
      f+1     :     0.000205
      f-1     :     0.000142
      f+2     :     0.000073
      f-2     :     0.000082
      f+3     :     0.000009
      f-3     :     0.000009

 20 F s       :     3.920753  s :     3.920753
      pz      :     1.885716  p :     5.225979
      px      :     1.438402
      py      :     1.901862
      dz2     :     0.002173  d :     0.015640
      dxz     :     0.003336
      dyz     :     0.000185
      dx2y2   :     0.006258
      dxy     :     0.003689
      f0      :     0.000059  f :     0.000698
      f+1     :     0.000141
      f-1     :     0.000010
      f+2     :     0.000099
      f-2     :     0.000008
      f+3     :     0.000232
      f-3     :     0.000148

 21 F s       :     3.915360  s :     3.915360
      pz      :     1.605122  p :     5.264682
      px      :     1.750207
      py      :     1.909352
      dz2     :     0.003782  d :     0.014622
      dxz     :     0.005540
      dyz     :     0.002488
      dx2y2   :     0.001503
      dxy     :     0.001310
      f0      :     0.000094  f :     0.000659
      f+1     :     0.000240
      f-1     :     0.000058
      f+2     :     0.000133
      f-2     :     0.000091
      f+3     :     0.000024
      f-3     :     0.000018

 22 F s       :     3.912891  s :     3.912891
      pz      :     1.851875  p :     5.261996
      px      :     1.519897
      py      :     1.890224
      dz2     :     0.001800  d :     0.014848
      dxz     :     0.003844
      dyz     :     0.000617
      dx2y2   :     0.004857
      dxy     :     0.003730
      f0      :     0.000065  f :     0.000664
      f+1     :     0.000104
      f-1     :     0.000007
      f+2     :     0.000126
      f-2     :     0.000055
      f+3     :     0.000162
      f-3     :     0.000146

 23 O s       :     3.793413  s :     3.793413
      pz      :     1.519476  p :     4.632775
      px      :     1.465909
      py      :     1.647390
      dz2     :     0.003102  d :     0.027834
      dxz     :     0.007158
      dyz     :     0.002127
      dx2y2   :     0.007329
      dxy     :     0.008118
      f0      :     0.000164  f :     0.001803
      f+1     :     0.000223
      f-1     :     0.000064
      f+2     :     0.000164
      f-2     :     0.000271
      f+3     :     0.000479
      f-3     :     0.000439

 24 O s       :     3.826396  s :     3.826396
      pz      :     1.579277  p :     4.671296
      px      :     1.354741
      py      :     1.737278
      dz2     :     0.002605  d :     0.024999
      dxz     :     0.007320
      dyz     :     0.001186
      dx2y2   :     0.006689
      dxy     :     0.007199
      f0      :     0.000177  f :     0.001725
      f+1     :     0.000230
      f-1     :     0.000038
      f+2     :     0.000268
      f-2     :     0.000123
      f+3     :     0.000448
      f-3     :     0.000441

 25 O s       :     3.807866  s :     3.807866
      pz      :     1.915922  p :     4.910180
      px      :     1.485872
      py      :     1.508386
      dz2     :     0.003410  d :     0.020035
      dxz     :     0.002003
      dyz     :     0.001656
      dx2y2   :     0.009411
      dxy     :     0.003555
      f0      :     0.000227  f :     0.001312
      f+1     :     0.000194
      f-1     :     0.000279
      f+2     :     0.000170
      f-2     :     0.000051
      f+3     :     0.000363
      f-3     :     0.000028

 26 H s       :     0.624439  s :     0.624439
      pz      :     0.015689  p :     0.044946
      px      :     0.012408
      py      :     0.016849

 27 H s       :     0.590349  s :     0.590349
      pz      :     0.015455  p :     0.052820
      px      :     0.027158
      py      :     0.010207



                     *******************************
                     * LOEWDIN POPULATION ANALYSIS *
                     *******************************

----------------------
LOEWDIN ATOMIC CHARGES
----------------------
   0 C :   -0.667947
   1 C :   -0.466447
   2 C :   -0.460538
   3 C :   -0.458856
   4 C :   -0.458231
   5 C :   -0.457457
   6 C :   -0.442636
   7 C :   -0.667218
   8 F :    0.226512
   9 F :    0.228281
  10 F :    0.226548
  11 F :    0.224747
  12 F :    0.226535
  13 F :    0.226396
  14 F :    0.226110
  15 F :    0.225404
  16 F :    0.224094
  17 F :    0.219896
  18 F :    0.219181
  19 F :    0.206819
  20 F :    0.214589
  21 F :    0.164990
  22 F :    0.171236
  23 O :   -0.022856
  24 O :   -0.050991
  25 O :   -0.373148
  26 H :    0.155250
  27 H :    0.139738

-------------------------------
LOEWDIN REDUCED ORBITAL CHARGES
-------------------------------
  0 C s       :     2.761527  s :     2.761527
      pz      :     0.793792  p :     2.506081
      px      :     0.817307
      py      :     0.894982
      dz2     :     0.248982  d :     1.144869
      dxz     :     0.263953
      dyz     :     0.194055
      dx2y2   :     0.187770
      dxy     :     0.250110
      f0      :     0.043978  f :     0.255470
      f+1     :     0.045444
      f-1     :     0.031216
      f+2     :     0.031034
      f-2     :     0.041047
      f+3     :     0.030179
      f-3     :     0.032572

  1 C s       :     2.766791  s :     2.766791
      pz      :     0.764411  p :     2.598424
      px      :     0.851924
      py      :     0.982090
      dz2     :     0.212347  d :     0.922898
      dxz     :     0.232192
      dyz     :     0.167925
      dx2y2   :     0.108918
      dxy     :     0.201515
      f0      :     0.032568  f :     0.178334
      f+1     :     0.036168
      f-1     :     0.020764
      f+2     :     0.034364
      f-2     :     0.027977
      f+3     :     0.013555
      f-3     :     0.012938

  2 C s       :     2.763310  s :     2.763310
      pz      :     0.743329  p :     2.594923
      px      :     0.849022
      py      :     1.002571
      dz2     :     0.234237  d :     0.924078
      dxz     :     0.230832
      dyz     :     0.148229
      dx2y2   :     0.118308
      dxy     :     0.192471
      f0      :     0.032472  f :     0.178227
      f+1     :     0.039407
      f-1     :     0.023720
      f+2     :     0.030604
      f-2     :     0.026462
      f+3     :     0.012433
      f-3     :     0.013130

  3 C s       :     2.763648  s :     2.763648
      pz      :     0.785114  p :     2.594619
      px      :     0.827957
      py      :     0.981548
      dz2     :     0.218698  d :     0.922551
      dxz     :     0.209124
      dyz     :     0.164907
      dx2y2   :     0.144822
      dxy     :     0.185000
      f0      :     0.032444  f :     0.178038
      f+1     :     0.039146
      f-1     :     0.023851
      f+2     :     0.025538
      f-2     :     0.019658
      f+3     :     0.017926
      f-3     :     0.019476

  4 C s       :     2.764367  s :     2.764367
      pz      :     0.789952  p :     2.595089
      px      :     0.798324
      py      :     1.006812
      dz2     :     0.216708  d :     0.921236
      dxz     :     0.201149
      dyz     :     0.163080
      dx2y2   :     0.177579
      dxy     :     0.162720
      f0      :     0.035231  f :     0.177540
      f+1     :     0.036914
      f-1     :     0.026155
      f+2     :     0.021541
      f-2     :     0.013781
      f+3     :     0.018955
      f-3     :     0.024964

  5 C s       :     2.766298  s :     2.766298
      pz      :     0.840837  p :     2.595464
      px      :     0.761358
      py      :     0.993269
      dz2     :     0.192885  d :     0.919433
      dxz     :     0.197406
      dyz     :     0.165015
      dx2y2   :     0.207849
      dxy     :     0.156278
      f0      :     0.033071  f :     0.176262
      f+1     :     0.031891
      f-1     :     0.020519
      f+2     :     0.026775
      f-2     :     0.015193
      f+3     :     0.020642
      f-3     :     0.028170

  6 C s       :     2.784762  s :     2.784762
      pz      :     0.828428  p :     2.599051
      px      :     0.728360
      py      :     1.042263
      dz2     :     0.154359  d :     0.888466
      dxz     :     0.215538
      dyz     :     0.175953
      dx2y2   :     0.198749
      dxy     :     0.143868
      f0      :     0.026712  f :     0.170357
      f+1     :     0.035170
      f-1     :     0.013460
      f+2     :     0.025399
      f-2     :     0.023959
      f+3     :     0.021409
      f-3     :     0.024248

  7 C s       :     2.774146  s :     2.774146
      pz      :     0.810696  p :     2.719012
      px      :     0.990825
      py      :     0.917491
      dz2     :     0.072325  d :     1.022998
      dxz     :     0.239183
      dyz     :     0.072040
      dx2y2   :     0.354772
      dxy     :     0.284679
      f0      :     0.009764  f :     0.151062
      f+1     :     0.019389
      f-1     :     0.005199
      f+2     :     0.012651
      f-2     :     0.023549
      f+3     :     0.052371
      f-3     :     0.028139

  8 F s       :     3.600692  s :     3.600692
      pz      :     1.700627  p :     5.140282
      px      :     1.650391
      py      :     1.789264
      dz2     :     0.004846  d :     0.030887
      dxz     :     0.012253
      dyz     :     0.003408
      dx2y2   :     0.004996
      dxy     :     0.005384
      f0      :     0.000192  f :     0.001627
      f+1     :     0.000388
      f-1     :     0.000066
      f+2     :     0.000370
      f-2     :     0.000304
      f+3     :     0.000132
      f-3     :     0.000176

  9 F s       :     3.599447  s :     3.599447
      pz      :     1.570592  p :     5.139501
      px      :     1.763309
      py      :     1.805600
      dz2     :     0.012483  d :     0.031122
      dxz     :     0.009881
      dyz     :     0.006160
      dx2y2   :     0.001093
      dxy     :     0.001505
      f0      :     0.000457  f :     0.001648
      f+1     :     0.000545
      f-1     :     0.000293
      f+2     :     0.000135
      f-2     :     0.000188
      f+3     :     0.000011
      f-3     :     0.000018

 10 F s       :     3.600987  s :     3.600987
      pz      :     1.811343  p :     5.139825
      px      :     1.699888
      py      :     1.628594
      dz2     :     0.004590  d :     0.030995
      dxz     :     0.002605
      dyz     :     0.003186
      dx2y2   :     0.007191
      dxy     :     0.013423
      f0      :     0.000142  f :     0.001645
      f+1     :     0.000141
      f-1     :     0.000198
      f+2     :     0.000019
      f-2     :     0.000232
      f+3     :     0.000476
      f-3     :     0.000437

 11 F s       :     3.599052  s :     3.599052
      pz      :     1.662488  p :     5.143647
      px      :     1.683304
      py      :     1.797855
      dz2     :     0.005988  d :     0.031012
      dxz     :     0.011496
      dyz     :     0.005277
      dx2y2   :     0.003586
      dxy     :     0.004664
      f0      :     0.000199  f :     0.001542
      f+1     :     0.000404
      f-1     :     0.000134
      f+2     :     0.000289
      f-2     :     0.000334
      f+3     :     0.000077
      f-3     :     0.000105

 12 F s       :     3.597889  s :     3.597889
      pz      :     1.625643  p :     5.142718
      px      :     1.716445
      py      :     1.800630
      dz2     :     0.008009  d :     0.031289
      dxz     :     0.010970
      dyz     :     0.006351
      dx2y2   :     0.002495
      dxy     :     0.003464
      f0      :     0.000264  f :     0.001569
      f+1     :     0.000451
      f-1     :     0.000207
      f+2     :     0.000235
      f-2     :     0.000311
      f+3     :     0.000042
      f-3     :     0.000059

 13 F s       :     3.597730  s :     3.597730
      pz      :     1.579347  p :     5.143195
      px      :     1.753742
      py      :     1.810105
      dz2     :     0.011028  d :     0.031135
      dxz     :     0.009646
      dyz     :     0.007157
      dx2y2   :     0.001309
      dxy     :     0.001996
      f0      :     0.000401  f :     0.001544
      f+1     :     0.000475
      f-1     :     0.000277
      f+2     :     0.000145
      f-2     :     0.000208
      f+3     :     0.000017
      f-3     :     0.000019

 14 F s       :     3.597838  s :     3.597838
      pz      :     1.683484  p :     5.143335
      px      :     1.641122
      py      :     1.818728
      dz2     :     0.004946  d :     0.031172
      dxz     :     0.012592
      dyz     :     0.003749
      dx2y2   :     0.005198
      dxy     :     0.004687
      f0      :     0.000186  f :     0.001545
      f+1     :     0.000410
      f-1     :     0.000043
      f+2     :     0.000374
      f-2     :     0.000283
      f+3     :     0.000103
      f-3     :     0.000146

 15 F s       :     3.597440  s :     3.597440
      pz      :     1.551839  p :     5.144463
      px      :     1.801024
      py      :     1.791600
      dz2     :     0.013887  d :     0.031149
      dxz     :     0.005858
      dyz     :     0.009434
      dx2y2   :     0.001012
      dxy     :     0.000958
      f0      :     0.000539  f :     0.001544
      f+1     :     0.000312
      f-1     :     0.000464
      f+2     :     0.000101
      f-2     :     0.000113
      f+3     :     0.000011
      f-3     :     0.000004

 16 F s       :     3.597911  s :     3.597911
      pz      :     1.764013  p :     5.145379
      px      :     1.567756
      py      :     1.813609
      dz2     :     0.003886  d :     0.031077
      dxz     :     0.009508
      dyz     :     0.001637
      dx2y2   :     0.009078
      dxy     :     0.006968
      f0      :     0.000148  f :     0.001539
      f+1     :     0.000287
      f-1     :     0.000017
      f+2     :     0.000348
      f-2     :     0.000177
      f+3     :     0.000256
      f-3     :     0.000306

 17 F s       :     3.598512  s :     3.598512
      pz      :     1.527348  p :     5.149163
      px      :     1.808952
      py      :     1.812863
      dz2     :     0.015739  d :     0.030897
      dxz     :     0.005596
      dyz     :     0.008570
      dx2y2   :     0.000567
      dxy     :     0.000425
      f0      :     0.000646  f :     0.001531
      f+1     :     0.000333
      f-1     :     0.000445
      f+2     :     0.000065
      f-2     :     0.000036
      f+3     :     0.000003
      f-3     :     0.000004

 18 F s       :     3.598521  s :     3.598521
      pz      :     1.801738  p :     5.149865
      px      :     1.528252
[...]
 25:    224.56   0.000327    1.65  0.000455  (-0.019913 -0.005582 -0.005182)
 26:    236.11   0.000010    0.05  0.000013  (-0.000108  0.003366 -0.001280)
 27:    245.65   0.000168    0.85  0.000214  ( 0.012388 -0.007233  0.002825)
 28:    248.74   0.000413    2.09  0.000518  ( 0.022535  0.002861  0.001528)
 29:    257.24   0.002041   10.31  0.002476  ( 0.045926  0.013017  0.014040)
 30:    277.95   0.001361    6.88  0.001528  ( 0.012591 -0.035648 -0.009914)
 31:    296.60   0.000032    0.16  0.000034  ( 0.000418 -0.004203  0.004023)
 32:    306.24   0.000153    0.77  0.000156  (-0.010306  0.002926  0.006436)
 33:    326.76   0.000199    1.01  0.000190  (-0.006219 -0.008731 -0.008668)
 34:    340.16   0.000580    2.93  0.000532  (-0.010161 -0.009779 -0.018261)
 35:    352.10   0.000232    1.17  0.000206  (-0.004914 -0.002694 -0.013214)
 36:    355.92   0.000483    2.44  0.000424  ( 0.011382  0.016758  0.003680)
 37:    361.48   0.001740    8.80  0.001503  ( 0.022316  0.029315  0.012048)
 38:    362.08   0.000883    4.46  0.000761  ( 0.021233  0.015724  0.007913)
 39:    370.37   0.000094    0.48  0.000079  ( 0.001990 -0.008651 -0.000832)
 40:    398.89   0.003167   16.01  0.002478  ( 0.043742  0.013694  0.019415)
 41:    415.04   0.013703   69.25  0.010303  ( 0.089225  0.037136  0.031027)
 42:    456.66   0.001776    8.98  0.001214  (-0.016209 -0.014997 -0.026949)
 43:    499.22   0.012410   62.71  0.007757  (-0.003473  0.082282  0.031225)
 44:    515.88   0.007262   36.70  0.004393  (-0.031907  0.055737  0.016373)
 45:    529.77   0.009226   46.62  0.005434  ( 0.002628 -0.058624 -0.044618)
 46:    545.39   0.011011   55.65  0.006300  (-0.038449 -0.068477  0.011532)
 47:    548.33   0.001518    7.67  0.000864  (-0.011161  0.022800  0.014811)
 48:    569.00   0.001237    6.25  0.000679  (-0.015810  0.016704 -0.012228)
 49:    588.13   0.003105   15.69  0.001648  (-0.001754 -0.037915 -0.014385)
 50:    602.45   0.000347    1.75  0.000180  (-0.010350  0.005856  0.006175)
 51:    632.11   0.024252  122.56  0.011973  ( 0.006104  0.105573  0.028107)
 52:    651.39   0.018930   95.67  0.009069  ( 0.009623 -0.093799 -0.013355)
 53:    674.22   0.001071    5.41  0.000496  ( 0.004877  0.021426  0.003578)
 54:    702.03   0.023194  117.21  0.010310  (-0.041404  0.001629  0.092700)
 55:    712.28   0.000621    3.14  0.000272  (-0.003564  0.008269 -0.013821)
 56:    717.36   0.005583   28.21  0.002429  (-0.005722  0.042030  0.025089)
 57:    758.87   0.000820    4.15  0.000337  ( 0.012676 -0.013281 -0.000544)
 58:    791.16   0.019480   98.44  0.007684  (-0.007568 -0.072570  0.048579)
 59:    862.49   0.004023   20.33  0.001456  (-0.005825  0.037705 -0.000102)
 60:    989.77   0.009916   50.11  0.003126  ( 0.001372 -0.044433 -0.033915)
 61:   1078.88   0.017018   86.00  0.004922  ( 0.050832  0.044906 -0.017946)
 62:   1089.50   0.041679  210.63  0.011938  ( 0.088390 -0.005972  0.063949)
 63:   1106.33   0.031255  157.95  0.008816  ( 0.011736  0.003867 -0.093078)
 64:   1107.33   0.000462    2.34  0.000130  ( 0.005217 -0.007224  0.007132)
 65:   1119.71   0.036800  185.97  0.010256  ( 0.076174  0.039159 -0.054038)
 66:   1128.44   0.115983  586.13  0.032075  (-0.176474 -0.015955  0.026018)
 67:   1137.91   0.005980   30.22  0.001640  ( 0.031049  0.002621 -0.025864)
 68:   1139.93   0.037187  187.93  0.010180  (-0.083543 -0.002665 -0.056513)
 69:   1146.46   0.134660  680.52  0.036654  ( 0.068026 -0.032099  0.176057)
 70:   1154.65   0.081937  414.07  0.022145  ( 0.126405 -0.020104 -0.075911)
 71:   1159.02   0.076749  387.86  0.020664  ( 0.070837 -0.054022  0.112819)
 72:   1174.02   0.079492  401.72  0.021130  ( 0.004398  0.047677 -0.137248)
 73:   1183.12   0.006950   35.12  0.001833  ( 0.030132 -0.006399  0.029737)
 74:   1209.57   0.010730   54.22  0.002768  (-0.020998  0.044733 -0.018060)
 75:   1239.62   0.001838    9.29  0.000463  ( 0.017946 -0.011138  0.004077)
 76:   1260.18   0.004861   24.56  0.001204  ( 0.026860 -0.021878 -0.001887)
 77:   1278.87   0.006937   35.05  0.001693  ( 0.021628 -0.015104 -0.031571)
 78:   1329.99   0.045294  228.90  0.010628  (-0.024265 -0.099921 -0.007388)
 79:   1367.47   0.029061  146.86  0.006632  (-0.031490 -0.074249  0.011284)
 80:   1666.52   0.021269  107.49  0.003983  ( 0.032669 -0.052833  0.011147)
 81:   1718.26   0.186886  944.44  0.033942  ( 0.182469 -0.023173  0.010478)
 82:   3404.53   0.215117  1087.11  0.019718  ( 0.135904  0.000408  0.035325)
 83:   3790.46   0.014431   72.93  0.001188  ( 0.026966  0.020209  0.007247)

* The epsilon (eps) is given for a Dirac delta lineshape.
** The dipole moment derivative (T) already includes vibrational overlap.

The first frequency considered to be a vibration is 6
The total number of vibrations considered is 78


--------------------------
THERMOCHEMISTRY AT 298.15K
--------------------------

Temperature         ...   298.15 K
Pressure            ...     1.00 atm
Total Mass          ...   431.07 AMU
Quasi RRHO          ...     True
Cut-Off Frequency   ...     1.00 cm^-1

Throughout the following assumptions are being made:
  (1) The electronic state is orbitally nondegenerate
  (2) There are no thermally accessible electronically excited states
  (3) Hindered rotations indicated by low frequency modes are not
      treated as such but are treated as vibrations and this may
      cause some error
  (4) All equations used are the standard statistical mechanics
      equations for an ideal gas
  (5) All vibrations are strictly harmonic

freq.      12.99  E(vib)   ...       0.57 
freq.      23.59  E(vib)   ...       0.56 
freq.      33.92  E(vib)   ...       0.55 
freq.      35.65  E(vib)   ...       0.54 
freq.      44.09  E(vib)   ...       0.53 
freq.      53.03  E(vib)   ...       0.52 
freq.      53.88  E(vib)   ...       0.52 
freq.      63.92  E(vib)   ...       0.51 
freq.      68.35  E(vib)   ...       0.50 
freq.      70.61  E(vib)   ...       0.50 
freq.      72.41  E(vib)   ...       0.49 
freq.     113.38  E(vib)   ...       0.45 
freq.     130.22  E(vib)   ...       0.43 
freq.     156.41  E(vib)   ...       0.40 
freq.     179.55  E(vib)   ...       0.37 
freq.     184.07  E(vib)   ...       0.37 
freq.     194.21  E(vib)   ...       0.36 
freq.     196.97  E(vib)   ...       0.35 
freq.     203.61  E(vib)   ...       0.35 
freq.     224.56  E(vib)   ...       0.33 
freq.     236.11  E(vib)   ...       0.32 
freq.     245.65  E(vib)   ...       0.31 
freq.     248.74  E(vib)   ...       0.31 
freq.     257.24  E(vib)   ...       0.30 
freq.     277.95  E(vib)   ...       0.28 
freq.     296.60  E(vib)   ...       0.27 
freq.     306.24  E(vib)   ...       0.26 
freq.     326.76  E(vib)   ...       0.24 
freq.     340.16  E(vib)   ...       0.23 
freq.     352.10  E(vib)   ...       0.23 
freq.     355.92  E(vib)   ...       0.22 
freq.     361.48  E(vib)   ...       0.22 
freq.     362.08  E(vib)   ...       0.22 
freq.     370.37  E(vib)   ...       0.21 
freq.     398.89  E(vib)   ...       0.19 
freq.     415.04  E(vib)   ...       0.19 
freq.     456.66  E(vib)   ...       0.16 
freq.     499.22  E(vib)   ...       0.14 
freq.     515.88  E(vib)   ...       0.13 
freq.     529.77  E(vib)   ...       0.13 
freq.     545.39  E(vib)   ...       0.12 
freq.     548.33  E(vib)   ...       0.12 
freq.     569.00  E(vib)   ...       0.11 
freq.     588.13  E(vib)   ...       0.10 
freq.     602.45  E(vib)   ...       0.10 
freq.     632.11  E(vib)   ...       0.09 
freq.     651.39  E(vib)   ...       0.08 
freq.     674.22  E(vib)   ...       0.08 
freq.     702.03  E(vib)   ...       0.07 
freq.     712.28  E(vib)   ...       0.07 
freq.     717.36  E(vib)   ...       0.07 
freq.     758.87  E(vib)   ...       0.06 
freq.     791.16  E(vib)   ...       0.05 
freq.     862.49  E(vib)   ...       0.04 
freq.     989.77  E(vib)   ...       0.02 
freq.    1078.88  E(vib)   ...       0.02 
freq.    1089.50  E(vib)   ...       0.02 
freq.    1106.33  E(vib)   ...       0.02 
freq.    1107.33  E(vib)   ...       0.02 
freq.    1119.71  E(vib)   ...       0.01 
freq.    1128.44  E(vib)   ...       0.01 
freq.    1137.91  E(vib)   ...       0.01 
freq.    1139.93  E(vib)   ...       0.01 
freq.    1146.46  E(vib)   ...       0.01 
freq.    1154.65  E(vib)   ...       0.01 
freq.    1159.02  E(vib)   ...       0.01 
freq.    1174.02  E(vib)   ...       0.01 
freq.    1183.12  E(vib)   ...       0.01 
freq.    1209.57  E(vib)   ...       0.01 
freq.    1239.62  E(vib)   ...       0.01 
freq.    1260.18  E(vib)   ...       0.01 
freq.    1278.87  E(vib)   ...       0.01 
freq.    1329.99  E(vib)   ...       0.01 
freq.    1367.47  E(vib)   ...       0.01 
freq.    1666.52  E(vib)   ...       0.00 
freq.    1718.26  E(vib)   ...       0.00 
freq.    3404.53  E(vib)   ...       0.00 
freq.    3790.46  E(vib)   ...       0.00 

------------
INNER ENERGY
------------

The inner energy is: U= E(el) + E(ZPE) + E(vib) + E(rot) + E(trans)
    E(el)   - is the total energy from the electronic structure calculation
              = E(kin-el) + E(nuc-el) + E(el-el) + E(nuc-nuc)
    E(ZPE)  - the the zero temperature vibrational energy from the frequency calculation
    E(vib)  - the the finite temperature correction to E(ZPE) due to population
              of excited vibrational states
    E(rot)  - is the rotational thermal energy
    E(trans)- is the translational thermal energy

Summary of contributions to the inner energy U:
Electronic energy                ...  -2030.36668273 Eh
Zero point energy                ...      0.11984088 Eh      75.20 kcal/mol
Thermal vibrational correction   ...      0.02415503 Eh      15.16 kcal/mol
Thermal rotational correction    ...      0.00141627 Eh       0.89 kcal/mol
Thermal translational correction ...      0.00141627 Eh       0.89 kcal/mol
-----------------------------------------------------------------------
Total thermal energy                  -2030.21985427 Eh


Summary of corrections to the electronic energy:
(perhaps to be used in another calculation)
Total thermal correction                  0.02698757 Eh      16.93 kcal/mol
Non-thermal (ZPE) correction              0.11984088 Eh      75.20 kcal/mol
-----------------------------------------------------------------------
Total correction                          0.14682846 Eh      92.14 kcal/mol


--------
ENTHALPY
--------

The enthalpy is H = U + kB*T
                kB is Boltzmann's constant
Total thermal energy              ...  -2030.21985427 Eh 
Thermal Enthalpy correction       ...      0.00094421 Eh       0.59 kcal/mol
-----------------------------------------------------------------------
Total Enthalpy                    ...  -2030.21891006 Eh


Note: Only C1 symmetry has been detected, increase convergence thresholds 
      if your molecule has a higher symmetry. Symmetry factor of 1.0 is   
      used for the rotational entropy correction. 
 

Note: Rotational entropy computed according to Herzberg 
Infrared and Raman Spectra, Chapter V,1, Van Nostrand Reinhold, 1945 
Point Group:  C1, Symmetry Number:   1  
Rotational constants in cm-1:     0.016764     0.003404     0.003241 

Vibrational entropy computed according to the QRRHO of S. Grimme
Chem.Eur.J. 2012 18 9955 using a reference frequency of 100.0 cm-1


-------
ENTROPY
-------

The entropy contributions are T*S = T*(S(el)+S(vib)+S(rot)+S(trans))
     S(el)   - electronic entropy
     S(vib)  - vibrational entropy
     S(rot)  - rotational entropy
     S(trans)- translational entropy
The entropies will be listed as multiplied by the temperature to get
units of energy

Electronic entropy                ...      0.00000000 Eh      0.00 kcal/mol
Vibrational entropy               ...      0.04425319 Eh     27.77 kcal/mol
Rotational entropy                ...      0.01682982 Eh     10.56 kcal/mol
Translational entropy             ...      0.02094056 Eh     13.14 kcal/mol
-----------------------------------------------------------------------
Final entropy term                ...      0.08202357 Eh     51.47 kcal/mol

In case the symmetry of your molecule has not been determined correctly
or in case you have a reason to use a different symmetry number we print 
out the resulting rotational entropy values for sn=1,12:

 non-linear molecules -----------------------------------
|  sn= 1 | S(rot)=       0.01682982 Eh     10.56 kcal/mol|
|  sn= 2 | S(rot)=       0.01617536 Eh     10.15 kcal/mol|
|  sn= 3 | S(rot)=       0.01579253 Eh      9.91 kcal/mol|
|  sn= 4 | S(rot)=       0.01552091 Eh      9.74 kcal/mol|
|  sn= 5 | S(rot)=       0.01531022 Eh      9.61 kcal/mol|
|  sn= 6 | S(rot)=       0.01513808 Eh      9.50 kcal/mol|
|  sn= 7 | S(rot)=       0.01499253 Eh      9.41 kcal/mol|
|  sn= 8 | S(rot)=       0.01486645 Eh      9.33 kcal/mol|
|  sn= 9 | S(rot)=       0.01475524 Eh      9.26 kcal/mol|
|  sn=10 | S(rot)=       0.01465576 Eh      9.20 kcal/mol|
|  sn=11 | S(rot)=       0.01456577 Eh      9.14 kcal/mol|
|  sn=12 | S(rot)=       0.01448362 Eh      9.09 kcal/mol|
 linear molecules ---------------------------------------
|  Dinfh | S(rot)=       0.01073780 Eh      6.74 kcal/mol|
|  Cinfv | S(rot)=       0.01139225 Eh      7.15 kcal/mol|
 --------------------------------------------------------


-------------------
GIBBS FREE ENERGY
-------------------

The Gibbs free energy is G = H - T*S

Total enthalpy                    ...  -2030.21891006 Eh 
Total entropy correction          ...     -0.08202357 Eh    -51.47 kcal/mol
-----------------------------------------------------------------------
Final Gibbs free energy         ...  -2030.30093364 Eh

For completeness - the Gibbs free energy minus the electronic energy
G-E(el)                           ...      0.06574909 Eh     41.26 kcal/mol


Maximum memory used throughout the entire PROP-calculation: 373.1 MB

--------------------------------
SUGGESTED CITATIONS FOR THIS RUN
--------------------------------

Below you find a list of papers that are relevant to this ORCA run
We neither can nor want to force you to cite these papers, but we appreciate if you do
You receive ORCA, which is the product of decades of hard work by many enthusiastic individuals, for free
The only thing we kindly ask in return is that you cite our papers,
We deeply appreciate it, if you show your appreciation for ORCA by not just citing the generic ORCA reference.

Please note that relegating all ORCA citations to the supporting information does *not* help us.
SI sections are not indexed - citations you put there will not count into any citation statistics
But we need these citations in order to attract the funding resources that allow us to do what we are doing

Therefore, if you are a happy ORCA user, please consider citing a few of the papers listed below in the main body of your paper

In addition to the list printed below, the program has created the file rf_mecn_1H2O_freq_TP_sw_03.bibtex that contains the list in bibtex format
You can import this file easily into all common literature databanks and citation aid programs


List of essential papers. We consider these as the minimum necessary citations

  1. Neese,F.
     Software update: the ORCA program system, version 5.0
     WIRES Comput. Molec. Sci., 2022 12(1)e1606
     doi.org/10.1002/wcms.1606

List of papers to cite with high priority. The work reported in these papers was absolutely
necessary for this run to complete.
Our perspective: the developers of density functionals and basis sets usually get cited in chemistry papers
Good! But without the algorithms to do something with them, the functionals or basis sets would not do anything.
Hence, in our opinion, the algorithm design and method developments papers are equally worthy of getting cited

  1. Neese,F.
     An improvement of the resolution of the identity approximation for the formation of the Coulomb matrix
     J. Comp. Chem., 2003 24(14)1740-1747
     doi.org/10.1002/jcc.10318
  2. Neese,F.; Wennmohs,F.; Hansen,A.; Becker,U.
     Efficient, approximate and parallel Hartree-Fock and hybrid DFT calculations. A 'chain-of-spheres' algorithm for the Hartree-Fock exchange
     Chem. Phys., 2009 356(1-3)98-109
     doi.org/10.1016/j.chemphys.2008.10.036
  3. Bykov,D.; Petrenko,T.; Izsak,R.; Kossmann,S.; Becker,U.; Valeev,E.; Neese,F.
     Efficient implementation of the analytic second derivatives of Hartree-Fock and hybrid DFT energies: a detailed analysis of different approximations
     Molec. Phys., 2015 113 1961-1977
     doi.org/10.1080/00268976.2015.1025114
  4. Garcia-Rates,M.; Neese,F.
     Efficient implementation of the analytical second derivatives of hartree-fock and hybrid DFT energies within the framework of the conductor-like polarizable continuum model
     J. Comput. Chem., 2019 40 1816-1828
     doi.org/10.1002/jcc.25833
  5. Garcia-Rates,M.; Neese,F.
     Effect of the Solute Cavity on the Solvation Energy and its Derivatives within the Framework of the Gaussian Charge Scheme
     J. Comput. Chem., 2020 41 922-939
     doi.org/10.1002/jcc.26139
  6. Helmich-Paris,B.; de Souza,B.; Neese,F.; Izsák,R.
     An improved chain of spheres for exchange algorithm
     J. Chem. Phys., 2021 155 104109
     doi.org/doi: 10.1063/5.0058766.
  7. Neese,F.
     The SHARK Integral Generation and Digestion System
     J. Comp. Chem., 2022  1-16
     doi.org/10.1002/jcc.26942
  8. Grimme,S.; Antony,J.; Ehrlich,S.; Krieg,H.
     A consistent and accurate ab initio parametrization of density functional dispersion correction (DFT-D) for the 94 elements H-Pu
     J. Chem. Phys., 2010 132 154104
     doi.org/10.1063/1.3382344
  9. Grimme,S.; Ehrlich,S.; Goerigk,L.
     Effect of the damping function in dispersion corrected density functional theory
     J. Comput. Chem., 2011 32(7)1456-1465
     doi.org/10.1002/jcc.21759

List of suggested additional citations. These are papers that are important in the 'surrounding' of 
of this run, or papers that preceded the highly important papers. If you like your results we are grateful for a citation.

  1. Izsak,R.; Neese,F.
     An overlap fitted chain of spheres exchange method
     J. Chem. Phys., 2011 135 144105
     doi.org/10.1063/1.3646921
  2. Izsak,R.; Hansen,A.; Neese,F.
     The resolution of identity and chain of spheres approximations for the LPNO-CCSD singles Fock term
     Molec. Phys., 2012 110 2413-2417
     doi.org/10.1080/00268976.2012.687466
  3. Neese,F.
     The ORCA program system
     WIRES Comput. Molec. Sci., 2012 2(1)73-78
     doi.org/10.1002/wcms.81
  4. Izsak,R.; Neese,F.; Klopper,W.
     Robust fitting techniques in the chain of spheres approximation to the Fock exchange: The role of the complementary space
     J. Chem. Phys., 2013 139 
     doi.org/10.1063/1.4819264
  5. Neese,F.
     Software update: the ORCA program system, version 4.0
     WIRES Comput. Molec. Sci., 2018 8(1)1-6
     doi.org/10.1002/wcms.1327
  6. Neese,F.; Wennmohs,F.; Becker,U.; Riplinger,C.
     The ORCA quantum chemistry program package
     J. Chem. Phys., 2020 152 Art. No. L224108
     doi.org/10.1063/5.0004608

List of optional additional citations

  1. Neese,F.
     Approximate second-order SCF convergence for spin unrestricted wavefunctions
     Chem. Phys. Lett., 2000 325(1-3)93-98
     doi.org/10.1016/s0009-2614(00)00662-x

Timings for individual modules:

Sum of individual times          ...     1127.933 sec (=  18.799 min)
Startup calculation              ...        4.408 sec (=   0.073 min)   0.4 %
SCF iterations                   ...       89.301 sec (=   1.488 min)   7.9 %
Property integrals               ...      314.976 sec (=   5.250 min)  27.9 %
SCF Response                     ...      448.597 sec (=   7.477 min)  39.8 %
Property calculations            ...      270.650 sec (=   4.511 min)  24.0 %
                             ****ORCA TERMINATED NORMALLY****
TOTAL RUN TIME: 0 days 0 hours 18 minutes 49 seconds 171 msec
