
                                 *****************
                                 * O   R   C   A *
                                 *****************

                                            #,                                       
                                            ###                                      
                                            ####                                     
                                            #####                                    
                                            ######                                   
                                           ########,                                 
                                     ,,################,,,,,                         
                               ,,#################################,,                 
                          ,,##########################################,,             
                       ,#########################################, ''#####,          
                    ,#############################################,,   '####,        
                  ,##################################################,,,,####,       
                ,###########''''           ''''###############################       
              ,#####''   ,,,,##########,,,,          '''####'''          '####       
            ,##' ,,,,###########################,,,                        '##       
           ' ,,###''''                  '''############,,,                           
         ,,##''                                '''############,,,,        ,,,,,,###''
      ,#''                                            '''#######################'''  
     '                                                          ''''####''''         
             ,#######,   #######,   ,#######,      ##                                
            ,#'     '#,  ##    ##  ,#'     '#,    #''#        ,####,   ,####,        
            ##       ##  ##   ,#'  ##            #'  '#       #'       #'  '#        
            ##       ##  #######   ##           ,######,      #####,   #    #        
            '#,     ,#'  ##    ##  '#,     ,#' ,#      #,     #,   #   #,  ,#        
             '#######'   ##     ##  '#######'  #'      '#     '####' # '####'        



                #########################################################
                #                        -***-                          #
                #          Department of theory and spectroscopy        #
                #                                                       #
                #                      Frank Neese                      #
                #                                                       #
                #     Directorship, Architecture, Infrastructure        #
                #                    SHARK, DRIVERS                     #
                #        Core code/Algorithms in most modules           #
                #                                                       #
                #        Max Planck Institute fuer Kohlenforschung      #
                #                Kaiser Wilhelm Platz 1                 #
                #                 D-45470 Muelheim/Ruhr                 #
                #                      Germany                          #
                #                                                       #
                #                  All rights reserved                  #
                #                        -***-                          #
                #########################################################


                         Program Version 6.0.1  -  RELEASE   -


 With contributions from (in alphabetic order):
[Max-Planck-Institut fuer Kohlenforschung]                               
  Daniel Aravena         : Magnetic Suceptibility                        
  Michael Atanasov       : Ab Initio Ligand Field Theory (pilot matlab implementation)
  Alexander A. Auer      : GIAO ZORA, VPT2 properties, NMR spectrum      
  Ute Becker             : All parallelization in ORCA, NUMFREQ, NUMCALC 
  Giovanni Bistoni       : ED, misc. LED, open-shell LED, HFLD           
  Martin Brehm           : Molecular dynamics                            
  Dmytro Bykov           : pre 5.0 version of the SCF Hessian            
  Marcos Casanova-Páez   : Triplet and SCS-CIS(D). UHF-(DLPNO)-IP/EA/STEOM-CCSD. UHF-CVS-IP/STEOM-CCSD   
  Vijay G. Chilkuri      : MRCI spin determinant printing, contributions to CSF-ICE 
  Pauline Colinet        : FMM embedding                                 
  Dipayan Datta          : RHF DLPNO-CCSD density                        
  Achintya Kumar Dutta   : EOM-CC, STEOM-CC                              
  Nicolas Foglia         : Exact transition moments, OPA infrastructure, MCD improvements    
  Dmitry Ganyushin       : Spin-Orbit,Spin-Spin,Magnetic field MRCI      
  Miquel Garcia-Rates    : C-PCM and meta-GGA Hessian, CCSD/C-PCM, Gaussian charge scheme 
  Tiago L. C. Gouveia    : GS-ROHF, GS-ROCIS                             
  Yang Guo               : DLPNO-NEVPT2, F12-NEVPT2, CIM, IAO-localization        
  Andreas Hansen         : Spin unrestricted coupled pair/coupled cluster methods 
  Ingolf Harden          : AUTO-CI MPn and infrastructure                
  Benjamin Helmich-Paris : MC-RPA, TRAH-(SCF,CASSCF), AVAS, COSX integrals, SCF dyn. polar. 
  Lee Huntington         : MR-EOM, pCC                                   
  Robert Izsak           : Overlap fitted RIJCOSX, COSX-SCS-MP3, EOM     
  Riya Kayal             : Wick's Theorem for AUTO-CI, AUTO-CI UHF-CCSDT 
  Emily Kempfer          : AUTO-CI, RHF CISDT and CCSDT                  
  Christian Kollmar      : KDIIS, OOCD, Brueckner-CCSD(T), CCSD density, CASPT2, CASPT2-K, improved NEVPT2 
  Axel Koslowski         : Symmetry handling                             
  Simone Kossmann        : meta-GGA functionals, TD-DFT gradient, OOMP2, (MP2 Hessian; deprecated post 5.0) 
  Lucas Lang             : DCDCAS                                        
  Marvin Lechner         : AUTO-CI (C++ implementation), FIC-MRCC        
  Spencer Leger          : CASSCF response                               
  Dagmar Lenk            : GEPOL surface, SMD, ORCA-2-JSON               
  Dimitrios Liakos       : Extrapolation schemes; Compound Job, initial MDCI parallelization 
  Dimitrios Manganas     : Further ROCIS development; embedding schemes. LFT, Crystal Embedding 
  Dimitrios Pantazis     : SARC Basis sets                               
  Anastasios Papadopoulos: AUTO-CI, single reference methods and gradients 
  Taras Petrenko         : pre 6.0 DFT Hessian and TD-DFT gradient, (ASA, deprecated), ECA, 1-Electron XAS/XES, NRVS 
  Peter Pinski           : DLPNO-MP2, DLPNO-MP2 Gradient                 
  Christoph Reimann      : Effective Core Potentials                     
  Marius Retegan         : Local ZFS, SOC                                
  Christoph Riplinger    : Optimizer, TS searches, QM/MM, DLPNO-CCSD(T), (RO)-DLPNO pert. Triples 
  Michael Roemelt        : Original ROCIS implementation                 
  Masaaki Saitow         : Open-shell DLPNO-CCSD energy and density      
  Barbara Sandhoefer     : DKH picture change effects                    
  Kantharuban Sivalingam : CASSCF convergence/infrastructure, NEVPT2 and variants, FIC-MRCI 
  Bernardo de Souza      : ESD, SOC TD-DFT                               
  Georgi L. Stoychev     : AutoAux, RI-MP2 NMR, DLPNO-MP2 response, X2C  
  Van Anh Tran           : RI-MP2 g-tensors                              
  Willem Van den Heuvel  : Paramagnetic NMR                              
  Zikuan Wang            : NOTCH, Electric field optimization            
  Frank Wennmohs         : Technical directorship and infrastructure     
  Hang Xu                : AUTO-CI-Response properties                   
                                                                         
[FACCTs GmbH]                                                            
  Markus Bursch, Miquel Garcia-Rates, Christoph Riplinger, Bernardo de Souza, Georgi L. Stoychev 
                                                                 
  APM, Basis sets (HGBS, AHGBS, def-TZVP (Ac-Lr), def2-XVPD (La-Lu)), CI-OPT, improved COSX, DLPNO-Multilevel,           
  DOCKER, DRACO, updates on ESD, GOAT, IRC, LR-CPCM, MBIS, meta-GGA TD-DFT gradient, ML-optimized integration grids, 
  MM, NACMEs, nearIR, NEB, NEB-TS, NL-DFT gradient (VV10), 2- and 3-layer-ONIOM, interface openCOSMO-RS, QMMM,   
  Crystal-QMMM, SF, symmetry and pop. for TD-DFT, r2SCAN hybrids, SOLVATOR                                   
                                                                         
[Other institutions]                                                     
  V. Asgeirsson          : NEB                                           
  Christoph Bannwarth    : sTDA-DFT, sTD-DFT, PBEh-3c, B97-3c, D3        
  Sebastian Ehlert       : rSCAN, r2SCAN, r2SCAN-3c, D4, dhf basis sets  
  Marvin Friede          : D4 for Fr, Ra, Ac-Lr                          
  Lars Goerigk           : TD-DFT with DH, B97 family of functionals     
  Stefan Grimme          : VdW corrections, initial TS optimization, DFT functionals, gCP, sTDA/sTD-DF 
  Waldemar Hujo          : DFT-NL                                        
  H. Jonsson             : NEB                                           
  Holger Kruse           : gCP                                           
  Marcel Mueller         : wB97X-3c, vDZP basis set                      
  Hagen Neugebauer       : wr2SCAN                                       
  Tobias Risthaus        : range-separated hybrid DFT                    
  Lukas Wittmann         : regularized MP2, r2SCAN double-hybrids, wr2SCAN        
                                                                         
We gratefully acknowledge several colleagues who have allowed us to      
interface, adapt or use parts of their codes:                            
  Ed Valeev, F. Pavosevic, A. Kumar             : LibInt (2-el integral package), F12 methods 
  Garnet Chan, S. Sharma, J. Yang, R. Olivares  : DMRG                   
  Ulf Ekstrom                                   : XCFun DFT Library      
  Mihaly Kallay                                 : mrcc  (arbitrary order and MRCC methods)
  Frank Weinhold                                : gennbo (NPA and NBO analysis)           
  Simon Mueller                                 : openCOSMO-RS                            
  Christopher J. Cramer and Donald G. Truhlar   : smd solvation model                     
  S Lehtola, MJT Oliveira, MAL Marques          : LibXC Library                           
  Liviu Ungur et al                             : ANISO software                          


 Your calculation uses the libint2 library for the computation of 2-el integrals
 For citations please refer to: http://libint.valeyev.net

 Your ORCA version has been built with support for libXC version: 6.2.2
 For citations please refer to: https://libxc.gitlab.io

 This ORCA versions uses:
   CBLAS   interface :  Fast vector & matrix operations
   LAPACKE interface :  Fast linear algebra routines
   SCALAPACK package :  Parallel linear algebra routines
   Shared memory     :  Shared parallel matrices
   BLAS/LAPACK       :  OpenBLAS 0.3.27  USE64BITINT DYNAMIC_ARCH NO_AFFINITY SkylakeX SINGLE_THREADED
        Core in use  :  SkylakeX
   Copyright (c) 2011-2014, The OpenBLAS Project


NOTE: MaxCore=8000 MB was set to SCF,MP2,MDCI,CIPSI,MRCI and CIS
      => If you want to overwrite this, your respective input block should be placed after the MaxCore statement
Your calculation utilizes the atom-pairwise dispersion correction
with the Becke-Johnson damping scheme (D3BJ)


Your calculation utilizes the SMD solvation module
Please cite in your paper:
A.V. Marenich, C.J. Cramer, D.G. Truhlar J. Phys. Chem. B, 113, (2009), 6378 

Warning: RI is on but no J-basis has been assigned. Assigning Def2/J (nothing to worry about!)
================================================================================

----- Orbital basis set information -----
Your calculation utilizes the basis: def2-TZVP
   F. Weigend and R. Ahlrichs, Phys. Chem. Chem. Phys. 7, 3297 (2005).

----- AuxJ basis set information -----
Your calculation utilizes the auxiliary basis: def2/J
   F. Weigend, Phys. Chem. Chem. Phys. 8, 1057 (2006).

================================================================================
                                        WARNINGS
                       Please study these warnings very carefully!
================================================================================



WARNING: SCAN, rSCAN, or r2SCAN functional requested.
  ===> : libXC variant has now been activated.



WARNING: your system is open-shell and RHF/RKS was chosen
  ===> : WILL SWITCH to UHF/UKS


================================================================================
                                       INPUT FILE
================================================================================
NAME = rf_mecn_freq_r2s_C8_P_B.inp
|  1> !r2scanh def2-TZVP freq d3 TightSCF SlowConv defgrid2
|  2>  
|  3> %pal
|  4> nprocs 20
|  5> end
|  6>  
|  7> %scf
|  8> MaxIter 1500
|  9> end
| 10>  
| 11> %maxcore 8000
| 12>  
| 13> !CPCM
| 14> %cpcm smd true
| 15> SMDsolvent "ACETONITRILE"
| 16> end
| 17>  
| 18> * xyz 0 2
| 19> 6        4.742154000     -0.047178000     -0.273600000
| 20> 8        5.098696000     -0.886081000     -1.225853000
| 21> 8        5.279182000      0.974634000      0.036484000
| 22> 6        3.458081000     -0.527516000      0.440651000
| 23> 6        2.203326000      0.147018000     -0.180222000
| 24> 6        0.860932000     -0.522736000      0.240525000
| 25> 6       -0.372253000      0.404751000      0.019770000
| 26> 6       -1.719652000     -0.377803000      0.009104000
| 27> 6       -2.960129000      0.528706000      0.237413000
| 28> 6       -4.240745000     -0.155661000     -0.179864000
| 29> 9        3.317906000     -1.862524000      0.351519000
| 30> 9        3.538297000     -0.186611000      1.734664000
| 31> 9        2.193756000      1.436871000      0.190208000
| 32> 9        2.312187000      0.083974000     -1.518032000
| 33> 9        0.696666000     -1.640470000     -0.483220000
| 34> 9        0.923067000     -0.850518000      1.538959000
| 35> 9       -0.404022000      1.317050000      1.001648000
| 36> 9       -0.234868000      1.034226000     -1.156987000
| 37> 9       -1.692195000     -1.313330000      0.972011000
| 38> 9       -1.854390000     -0.982803000     -1.180873000
| 39> 9       -2.830571000      1.655476000     -0.484797000
| 40> 9       -3.011134000      0.876502000      1.544610000
| 41> 9       -4.444347000     -1.336428000      0.367013000
| 42> 9       -5.302737000      0.616489000     -0.097659000
| 43> 1        5.893343000     -0.538706000     -1.672705000
| 44> *
| 45> 
| 46>                          ****END OF INPUT****
================================================================================

                       ****************************
                       * Single Point Calculation *
                       ****************************

---------------------------------
CARTESIAN COORDINATES (ANGSTROEM)
---------------------------------
  C      4.742154   -0.047178   -0.273600
  O      5.098696   -0.886081   -1.225853
  O      5.279182    0.974634    0.036484
  C      3.458081   -0.527516    0.440651
  C      2.203326    0.147018   -0.180222
  C      0.860932   -0.522736    0.240525
  C     -0.372253    0.404751    0.019770
  C     -1.719652   -0.377803    0.009104
  C     -2.960129    0.528706    0.237413
  C     -4.240745   -0.155661   -0.179864
  F      3.317906   -1.862524    0.351519
  F      3.538297   -0.186611    1.734664
  F      2.193756    1.436871    0.190208
  F      2.312187    0.083974   -1.518032
  F      0.696666   -1.640470   -0.483220
  F      0.923067   -0.850518    1.538959
  F     -0.404022    1.317050    1.001648
  F     -0.234868    1.034226   -1.156987
  F     -1.692195   -1.313330    0.972011
  F     -1.854390   -0.982803   -1.180873
  F     -2.830571    1.655476   -0.484797
  F     -3.011134    0.876502    1.544610
  F     -4.444347   -1.336428    0.367013
  F     -5.302737    0.616489   -0.097659
  H      5.893343   -0.538706   -1.672705

----------------------------
CARTESIAN COORDINATES (A.U.)
----------------------------
  NO LB      ZA    FRAG     MASS         X           Y           Z
   0 C     6.0000    0    12.011    8.961372   -0.089153   -0.517029
   1 O     8.0000    0    15.999    9.635139   -1.674450   -2.316526
   2 O     8.0000    0    15.999    9.976208    1.841791    0.068945
   3 C     6.0000    0    12.011    6.534826   -0.996861    0.832710
   4 C     6.0000    0    12.011    4.163683    0.277824   -0.340570
   5 C     6.0000    0    12.011    1.626926   -0.987828    0.454526
   6 C     6.0000    0    12.011   -0.703456    0.764869    0.037360
   7 C     6.0000    0    12.011   -3.249671   -0.713944    0.017204
   8 C     6.0000    0    12.011   -5.593833    0.999110    0.448646
   9 C     6.0000    0    12.011   -8.013847   -0.294157   -0.339894
  10 F     9.0000    0    18.998    6.269934   -3.519660    0.664275
  11 F     9.0000    0    18.998    6.686412   -0.352644    3.278040
  12 F     9.0000    0    18.998    4.145598    2.715293    0.359441
  13 F     9.0000    0    18.998    4.369400    0.158688   -2.868665
  14 F     9.0000    0    18.998    1.316508   -3.100039   -0.913153
  15 F     9.0000    0    18.998    1.744344   -1.607246    2.908211
  16 F     9.0000    0    18.998   -0.763491    2.488864    1.892840
  17 F     9.0000    0    18.998   -0.443836    1.954404   -2.186389
  18 F     9.0000    0    18.998   -3.197785   -2.481834    1.836835
  19 F     9.0000    0    18.998   -3.504289   -1.857229   -2.231527
  20 F     9.0000    0    18.998   -5.349004    3.128396   -0.916134
  21 F     9.0000    0    18.998   -5.690219    1.656349    2.918890
  22 F     9.0000    0    18.998   -8.398599   -2.525483    0.693554
  23 F     9.0000    0    18.998  -10.020721    1.164995   -0.184549
  24 H     1.0000    0     1.008   11.136804   -1.018007   -3.160954

--------------------------------
INTERNAL COORDINATES (ANGSTROEM)
--------------------------------
 C      0   0   0     0.000000000000     0.00000000     0.00000000
 O      1   0   0     1.318205680909     0.00000000     0.00000000
 O      1   2   0     1.195261863854   127.58445220     0.00000000
 C      1   2   3     1.545872748506   111.14289057   178.89656627
 C      4   1   2     1.553991476589   110.56213719   264.78799323
 C      5   4   1     1.558082189668   113.65242240   166.25744638
 C      6   5   4     1.558752754422   112.80523368   160.95167513
 C      7   6   5     1.558200433729   112.72123935   162.14475364
 C      8   7   6     1.553276135815   113.35788114   161.94898499
 C      9   8   7     1.510779806879   111.83809210   162.98946783
 F      4   1   2     1.345302904224   111.36346443    25.71092088
 F      4   1   2     1.340567219445   108.49802080   145.45143397
 F      5   4   1     1.342024862441   108.22009355   288.01215230
 F      5   4   1     1.343711598282   108.17976061    45.60744828
 F      6   5   4     1.341685297876   108.53733251   281.61013795
 F      6   5   4     1.340609059385   109.06952182    40.16384898
 F      7   6   5     1.340665186259   108.65838333   283.12502670
 F      7   6   5     1.341592505532   108.80747249    41.67873812
 F      8   7   6     1.342815901465   109.10497023    40.91003457
 F      8   7   6     1.341724483332   108.62437314   282.32641669
 F      9   8   7     1.344612655141   109.46078863    43.04611989
 F      9   8   7     1.353634945046   108.78301010   285.39408638
 F     10   9   8     1.317094884897   114.98957586    53.88735142
 F     10   9   8     1.315598834215   113.64851467   184.90473177
 H      2   1   3     0.975607480054   108.94016529   359.32072723

---------------------------
INTERNAL COORDINATES (A.U.)
---------------------------
 C      0   0   0     0.000000000000     0.00000000     0.00000000
 O      1   0   0     2.491047725098     0.00000000     0.00000000
 O      1   2   0     2.258717581005   127.58445220     0.00000000
 C      1   2   3     2.921276132569   111.14289057   178.89656627
 C      4   1   2     2.936618305200   110.56213719   264.78799323
 C      5   4   1     2.944348632613   113.65242240   166.25744638
 C      6   5   4     2.945615816353   112.80523368   160.95167513
 C      7   6   5     2.944572081505   112.72123935   162.14475364
 C      8   7   6     2.935266507045   113.35788114   161.94898499
 C      9   8   7     2.854960083660   111.83809210   162.98946783
 F      4   1   2     2.542254056152   111.36346443    25.71092088
 F      4   1   2     2.533304908863   108.49802080   145.45143397
 F      5   4   1     2.536059454926   108.22009355   288.01215230
 F      5   4   1     2.539246923726   108.17976061    45.60744828
 F      6   5   4     2.535417770894   108.53733251   281.61013795
 F      6   5   4     2.533383974891   109.06952182    40.16384898
 F      7   6   5     2.533490039311   108.65838333   283.12502670
 F      7   6   5     2.535242418776   108.80747249    41.67873812
 F      8   7   6     2.537554302043   109.10497023    40.91003457
 F      8   7   6     2.535491820675   108.62437314   282.32641669
 F      9   8   7     2.540949674420   109.46078863    43.04611989
 F      9   8   7     2.557999331443   108.78301010   285.39408638
 F     10   9   8     2.488948624844   114.98957586    53.88735142
 F     10   9   8     2.486121498773   113.64851467   184.90473177
 H      2   1   3     1.843630951508   108.94016529   359.32072723

---------------------
BASIS SET INFORMATION
---------------------
There are 4 groups of distinct atoms

 Group   1 Type C   : 11s6p2d1f contracted to 5s3p2d1f pattern {62111/411/11/1}
 Group   2 Type O   : 11s6p2d1f contracted to 5s3p2d1f pattern {62111/411/11/1}
 Group   3 Type F   : 11s6p2d1f contracted to 5s3p2d1f pattern {62111/411/11/1}
 Group   4 Type H   : 5s1p contracted to 3s1p pattern {311/1}

Atom   0C    basis set group =>   1
Atom   1O    basis set group =>   2
Atom   2O    basis set group =>   2
Atom   3C    basis set group =>   1
Atom   4C    basis set group =>   1
Atom   5C    basis set group =>   1
Atom   6C    basis set group =>   1
Atom   7C    basis set group =>   1
Atom   8C    basis set group =>   1
Atom   9C    basis set group =>   1
Atom  10F    basis set group =>   3
Atom  11F    basis set group =>   3
Atom  12F    basis set group =>   3
Atom  13F    basis set group =>   3
Atom  14F    basis set group =>   3
Atom  15F    basis set group =>   3
Atom  16F    basis set group =>   3
Atom  17F    basis set group =>   3
Atom  18F    basis set group =>   3
Atom  19F    basis set group =>   3
Atom  20F    basis set group =>   3
Atom  21F    basis set group =>   3
Atom  22F    basis set group =>   3
Atom  23F    basis set group =>   3
Atom  24H    basis set group =>   4
---------------------------------
AUXILIARY/J BASIS SET INFORMATION
---------------------------------
There are 4 groups of distinct atoms

 Group   1 Type C   : 12s5p4d2f1g contracted to 6s4p3d1f1g pattern {711111/2111/211/2/1}
 Group   2 Type O   : 12s5p4d2f1g contracted to 6s4p3d1f1g pattern {711111/2111/211/2/1}
 Group   3 Type F   : 12s5p4d2f1g contracted to 6s4p3d1f1g pattern {711111/2111/211/2/1}
 Group   4 Type H   : 5s2p1d contracted to 3s1p1d pattern {311/2/1}

Atom   0C    basis set group =>   1
Atom   1O    basis set group =>   2
Atom   2O    basis set group =>   2
Atom   3C    basis set group =>   1
Atom   4C    basis set group =>   1
Atom   5C    basis set group =>   1
Atom   6C    basis set group =>   1
Atom   7C    basis set group =>   1
Atom   8C    basis set group =>   1
Atom   9C    basis set group =>   1
Atom  10F    basis set group =>   3
Atom  11F    basis set group =>   3
Atom  12F    basis set group =>   3
Atom  13F    basis set group =>   3
Atom  14F    basis set group =>   3
Atom  15F    basis set group =>   3
Atom  16F    basis set group =>   3
Atom  17F    basis set group =>   3
Atom  18F    basis set group =>   3
Atom  19F    basis set group =>   3
Atom  20F    basis set group =>   3
Atom  21F    basis set group =>   3
Atom  22F    basis set group =>   3
Atom  23F    basis set group =>   3
Atom  24H    basis set group =>   4


           ************************************************************
           *        Program running with 20 parallel MPI-processes    *
           *              working on a common directory               *
           ************************************************************
------------------------------------------------------------------------------
                             ORCA STARTUP CALCULATIONS
                           -- RI-GTO INTEGRALS CHOSEN --
------------------------------------------------------------------------------
------------------------------------------------------------------------------
                   ___                                                        
                  /   \      - P O W E R E D   B Y -                         
                 /     \                                                     
                 |  |  |   _    _      __       _____    __    __             
                 |  |  |  | |  | |    /  \     |  _  \  |  |  /  |          
                  \  \/   | |  | |   /    \    | | | |  |  | /  /          
                 / \  \   | |__| |  /  /\  \   | |_| |  |  |/  /          
                |  |  |   |  __  | /  /__\  \  |    /   |      \           
                |  |  |   | |  | | |   __   |  |    \   |  |\   \          
                \     /   | |  | | |  |  |  |  | |\  \  |  | \   \       
                 \___/    |_|  |_| |__|  |__|  |_| \__\ |__|  \__/        
                                                                              
                      - O R C A' S   B I G   F R I E N D -                    
                                      &                                       
                       - I N T E G R A L  F E E D E R -                       
                                                                              
 v1 FN, 2020, v2 2021, v3 2022-2024                                           
------------------------------------------------------------------------------


----------------------
SHARK INTEGRAL PACKAGE
----------------------

Number of atoms                             ...     25
Number of basis functions                   ...    750
Number of shells                            ...    268
Maximum angular momentum                    ...      3
Integral batch strategy                     ... SHARK/LIBINT Hybrid
RI-J (if used) integral strategy            ... SPLIT-RIJ (Revised 2003 algorithm where possible)
Printlevel                                  ...      1
Contraction scheme used                     ... SEGMENTED contraction
Prescreening option                         ... SCHWARTZ
   Thresh                                   ... 2.500e-11
   Tcut                                     ... 2.500e-12
   Tpresel                                  ... 2.500e-12 
Coulomb Range Separation                    ... NOT USED
Exchange Range Separation                   ... NOT USED
Multipole approximations                    ... NOT USED
Finite Nucleus Model                        ... NOT USED
CABS basis                                  ... NOT available
Auxiliary Coulomb fitting basis             ... AVAILABLE
   # of basis functions in Aux-J            ...   1187
   # of shells in Aux-J                     ...    365
   Maximum angular momentum in Aux-J        ...      4
Auxiliary J/K fitting basis                 ... NOT available
Auxiliary Correlation fitting basis         ... NOT available
Auxiliary 'external' fitting basis          ... NOT available

Checking pre-screening integrals            ... done (  0.0 sec) Dimension = 268
Check shell pair data                       ... done (  0.0 sec)
Shell pair information
Shell pair cut-off parameter TPreSel        ...   2.5e-12
Total number of shell pairs                 ...     36046
Shell pairs after pre-screening             ...     22713
Total number of primitive shell pairs       ...    118872
Primitive shell pairs kept                  ...     48259
          la=0 lb=0:   4325 shell pairs
          la=1 lb=0:   6203 shell pairs
          la=1 lb=1:   2130 shell pairs
          la=2 lb=0:   3381 shell pairs
          la=2 lb=1:   2454 shell pairs
          la=2 lb=2:    697 shell pairs
          la=3 lb=0:   1553 shell pairs
          la=3 lb=1:   1178 shell pairs
          la=3 lb=2:    638 shell pairs
          la=3 lb=3:    154 shell pairs

Calculating one electron integrals          ... done (  0.0 sec)
Calculating RI/J V-Matrix + Cholesky decomp.... done (  0.1 sec)
Calculating Nuclear repulsion               ... done (  0.0 sec) ENN=   2692.372635200034 Eh

Diagonalization of the overlap matrix:
Smallest eigenvalue                        ... 5.395e-05
Time for diagonalization                   ...    0.098 sec
Threshold for overlap eigenvalues          ... 1.000e-07
Number of eigenvalues below threshold      ... 0
Time for construction of square roots      ...    0.043 sec
Total time needed                          ...    0.145 sec

-------------------
DFT GRID GENERATION
-------------------

General Integration Accuracy     IntAcc      ... 4.388
Radial Grid Type                 RadialGrid  ... OptM3 with GC (2021)
Angular Grid (max. ang.)         AngularGrid ... 4 (Lebedev-302)
Angular grid pruning method      GridPruning ... 4 (adaptive)
Weight generation scheme         WeightScheme... mBecke (2022)
Basis function cutoff            BFCut       ... 1.0000e-11
Integration weight cutoff        WCut        ... 1.0000e-14
Partially contracted basis set               ... off
Rotationally invariant grid construction     ... off
Angular grids for H and He will be reduced by one unit

Total number of grid points                  ...   148594
Total number of batches                      ...     2335
Average number of points per batch           ...       63
Average number of grid points per atom       ...     5944

--------------------
COSX GRID GENERATION
--------------------

GRIDX 1
-------
General Integration Accuracy     IntAcc      ... 3.816
Radial Grid Type                 RadialGrid  ... OptM3 with GC (2021)
Angular Grid (max. ang.)         AngularGrid ... 1 (Lebedev-50)
Angular grid pruning method      GridPruning ... 4 (adaptive)
Weight generation scheme         WeightScheme... mBecke (2022)
Basis function cutoff            BFCut       ... 1.0000e-11
Integration weight cutoff        WCut        ... 1.0000e-14
Partially contracted basis set               ... on
Rotationally invariant grid construction     ... off
Angular grids for H and He will be reduced by one unit

Total number of grid points                  ...    18681
Total number of batches                      ...      156
Average number of points per batch           ...      119
Average number of grid points per atom       ...      747
UseSFitting                                  ... on

GRIDX 2
-------
General Integration Accuracy     IntAcc      ... 4.020
Radial Grid Type                 RadialGrid  ... OptM3 with GC (2021)
Angular Grid (max. ang.)         AngularGrid ... 2 (Lebedev-110)
Angular grid pruning method      GridPruning ... 4 (adaptive)
Weight generation scheme         WeightScheme... mBecke (2022)
Basis function cutoff            BFCut       ... 1.0000e-11
Integration weight cutoff        WCut        ... 1.0000e-14
Partially contracted basis set               ... on
Rotationally invariant grid construction     ... off
Angular grids for H and He will be reduced by one unit

Total number of grid points                  ...    44050
Total number of batches                      ...      357
Average number of points per batch           ...      123
Average number of grid points per atom       ...     1762
UseSFitting                                  ... on

GRIDX 3
-------
General Integration Accuracy     IntAcc      ... 4.338
Radial Grid Type                 RadialGrid  ... OptM3 with GC (2021)
Angular Grid (max. ang.)         AngularGrid ... 3 (Lebedev-194)
Angular grid pruning method      GridPruning ... 4 (adaptive)
Weight generation scheme         WeightScheme... mBecke (2022)
Basis function cutoff            BFCut       ... 1.0000e-11
Integration weight cutoff        WCut        ... 1.0000e-14
Partially contracted basis set               ... on
Rotationally invariant grid construction     ... off
Angular grids for H and He will be reduced by one unit

Total number of grid points                  ...    97510
Total number of batches                      ...      773
Average number of points per batch           ...      126
Average number of grid points per atom       ...     3900
UseSFitting                                  ... on
Initializing property integral containers    ... done (  0.0 sec)

SHARK setup successfully completed in   3.0 seconds

Maximum memory used throughout the entire STARTUP-calculation: 57.8 MB


           ************************************************************
           *        Program running with 20 parallel MPI-processes    *
           *              working on a common directory               *
           ************************************************************
-------------------------------------------------------------------------------
                                 ORCA GUESS
                   Start orbitals & Density for SCF / CASSCF
-------------------------------------------------------------------------------

------------
SCF SETTINGS
------------
Hamiltonian:
 Density Functional     Method          .... DFT(GTOs)
  Functional kind                       .... Exchange
  Functional name                       .... Re-regularized SCAN exchange by Furness et al
  Functional family                     .... MGGA
  Functional refs                              
    [ 0] J. W. Furness, A. D. Kaplan, J. Ning, J. P. Perdew, and J. Sun.,  J. Phys. Chem. Lett. 11, 8208-8215 (2020), doi: 10.1021/acs.jpclett.0c02405
    [ 1] J. W. Furness, A. D. Kaplan, J. Ning, J. P. Perdew, and J. Sun.,  J. Phys. Chem. Lett. 11, 9248-9248 (2020), doi: 10.1021/acs.jpclett.0c03077
  Functional external parameters        .... 6
    Parameter  0 _c1        =  6.670000e-01 : c1 parameter        
    Parameter  1 _c2        =  8.000000e-01 : c2 parameter        
    Parameter  2 _d         =  1.240000e+00 : d parameter         
    Parameter  3 _k1        =  6.500000e-02 : k1 parameter        
    Parameter  4 _eta       =  1.000000e-03 : eta parameter       
    Parameter  5 _dp2       =  3.610000e-01 : dp2 parameter       
  Functional kind                       .... Correlation
  Functional name                       .... Re-regularized SCAN correlation by Furness et al
  Functional family                     .... MGGA
  Functional refs                              
    [ 0] J. W. Furness, A. D. Kaplan, J. Ning, J. P. Perdew, and J. Sun.,  J. Phys. Chem. Lett. 11, 8208-8215 (2020), doi: 10.1021/acs.jpclett.0c02405
    [ 1] J. W. Furness, A. D. Kaplan, J. Ning, J. P. Perdew, and J. Sun.,  J. Phys. Chem. Lett. 11, 9248-9248 (2020), doi: 10.1021/acs.jpclett.0c03077
  Functional external parameters        .... 1
    Parameter  0 _eta       =  1.000000e-03 : Regularization parameter
 Gradients option       PostSCFGGA      .... off
 Hybrid DFT is turned on
   Fraction HF Exchange ScalHFX         ....  0.100000
   Scaling of DF-GGA-X  ScalDFX         ....  0.900000
   Scaling of DF-GGA-C  ScalDFC         ....  1.000000
   Scaling of DF-LDA-C  ScalLDAC        ....  1.000000
   Perturbative correction              ....  0.000000
   NL short-range parameter             .... 11.900000
 RI-approximation to the Coulomb term is turned on
   Number of AuxJ basis functions       .... 1187
   RIJ-COSX (HFX calculated with COS-X)).... on


General Settings:
 Integral files         IntName         .... rf_mecn_freq_r2s_C8_P_B
 Hartree-Fock type      HFTyp           .... UHF
 Total Charge           Charge          ....    0
 Multiplicity           Mult            ....    2
 Number of Electrons    NEL             ....  191
 Basis Dimension        Dim             ....  750
 Nuclear Repulsion      ENuc            ....   2692.3726352000 Eh

Convergence Acceleration:
 AO-DIIS                CNVDIIS         .... on
   Start iteration      DIISMaxIt       ....     0
   Startup error        DIISStart       ....  0.200000
   # of expansion vecs  DIISMaxEq       ....     5
   Bias factor          DIISBfac        ....   1.050
   Max. coefficient     DIISMaxC        ....  10.000
 MO-DIIS                CNVKDIIS        .... off
 Trust-Rad. Augm. Hess. CNVTRAH         .... auto
   Auto Start mean grad. ratio tolernc. ....  1.125000
   Auto Start start iteration           ....    50
   Auto Start num. interpolation iter.  ....    10
   Max. Number of Micro iterations      ....    24
   Max. Number of Macro iterations      .... Maxiter - #DIIS iter
   Number of Davidson start vectors     ....     2
   Converg. threshold    (grad. norm)   ....   1.000e-05
   Grad. Scal. Fac. for Micro threshold ....   0.100
   Minimum threshold for Micro iter.    ....   1.000e-02
   NR start threshold (gradient norm)   ....   1.000e-04
   Initial trust radius                 ....   0.400
   Minimum AH scaling param. (alpha)    ....   1.000
   Maximum AH scaling param. (alpha)    .... 1000.000
   Quad. conv. algorithm                .... NR
   White noise on init. David. guess    .... on
   Maximum white noise                  ....   0.010
   Pseudo random numbers                .... off
   Inactive MOs                         .... canonical
   Orbital update algorithm             .... Taylor
   Preconditioner                       .... Diag
   Full preconditioner red. dimension   ....   250
 SOSCF                  CNVSOSCF        .... on
   Start iteration      SOSCFMaxIt      ....   150
   Startup grad/error   SOSCFStart      ....  0.001000
   Hessian update       SOSCFHessUp     .... L-BFGS
 Level Shifting         CNVShift        .... on
   Level shift para.    LevelShift      ....    0.2500
   Turn off err/grad.   ShiftErr        ....    0.0000
 Zerner damping         CNVZerner       .... off
 Static damping         CNVDamp         .... on
   Fraction old density DampFac         ....    0.8500
   Max. Damping (<1)    DampMax         ....    0.9800
   Min. Damping (>=0)   DampMin         ....    0.0000
   Turn off err/grad.   DampErr         ....    0.0300

SCF Procedure:
 Maximum # iterations   MaxIter         ....  1500
 SCF integral mode      SCFMode         .... Direct
   Integral package                     .... SHARK and LIBINT hybrid scheme
 Reset frequency        DirectResetFreq ....    20
 Integral Threshold     Thresh          ....  2.500e-11 Eh
 Primitive CutOff       TCut            ....  2.500e-12 Eh

Convergence Tolerance:
 Convergence Check Mode ConvCheckMode   .... Total+1el-Energy
 Convergence forced     ConvForced      .... 0
 Energy Change          TolE            ....  1.000e-08 Eh
 1-El. energy change                    ....  1.000e-05 Eh
 Orbital Gradient       TolG            ....  1.000e-05
 Orbital Rotation angle TolX            ....  1.000e-05
 DIIS Error             TolErr          ....  5.000e-07

------------------------------
INITIAL GUESS: MODEL POTENTIAL
------------------------------
Loading Hartree-Fock densities                     ... done
Calculating cut-offs                               ... done
Initializing the effective Hamiltonian             ... done
Setting up the integral package (SHARK)            ... done
Starting the Coulomb interaction                   ... done (   0.1 sec)
Making the grid                                    ... done (   0.4 sec)
Mapping shells                                     ... done
Starting the XC term evaluation                    ... done (   0.1 sec)
  promolecular density results
     # of electrons  =    190.997232276
     EX              =   -197.603775659
     EC              =     -6.718984285
     EX+EC           =   -204.322759944
Transforming the Hamiltonian                       ... done (   0.0 sec)
Diagonalizing the Hamiltonian                      ... done (   0.1 sec)
Back transforming the eigenvectors                 ... done (   0.0 sec)
Now organizing SCF variables                       ... done
                      ------------------
                      INITIAL GUESS DONE (   0.9 sec)
                      ------------------
             **** ENERGY FILE WAS UPDATED (rf_mecn_freq_r2s_C8_P_B.en.tmp) ****
Finished Guess after   1.6 sec
Maximum memory used throughout the entire GUESS-calculation: 47.0 MB


           ************************************************************
           *        Program running with 20 parallel MPI-processes    *
           *              working on a common directory               *
           ************************************************************

-------------------------------------------------------------------------------------------
                                      ORCA LEAN-SCF
                              memory conserving SCF solver
-------------------------------------------------------------------------------------------

--------------------
CPCM SOLVATION MODEL
--------------------
CPCM parameters:
  Epsilon                                         ...      35.6880
  Refrac                                          ...       1.3442
  Rsolv                                           ...       1.3000
  Surface type                                    ... GAUSSIAN VDW
  Discretization scheme                           ... Constant charge density
    Threshold for H atoms                         ...       5.0000 (charges/Ang^2)
    Threshold for non-H atoms                     ...       5.0000 (charges/Ang^2)
  Epsilon function type                           ...         CPCM
Solvent:                                          ... ACETONITRILE
SMD-CDS solvent descriptors:
  Soln                                            ...       1.3442
  Soln25                                          ...       1.3416
  Sola                                            ...       0.0700
  Solb                                            ...       0.3200
  Solg                                            ...      41.2500
  Solc                                            ...       0.0000
  Solh                                            ...       0.0000
Radii:
  Scheme                                          ... Element-dependent radii
  Radius for C  used is    3.4960 Bohr (=   1.8500 Ang.)
  Radius for O  used is    4.0969 Bohr (=   2.1680 Ang.)
  Radius for F  used is    3.2692 Bohr (=   1.7300 Ang.)
  Radius for H  used is    2.2677 Bohr (=   1.2000 Ang.)
Calculating surface                               ...        done! (  0.0s)
Cavity surface points                             ...         2109
Cavity Volume                                     ...    2091.6162
Cavity Surface-area                               ...    1082.6073
Calculating surface distance matrix               ...        done! (  0.0s)
Performing Cholesky decomposition & store         ...        done! (  0.1s)
Overall time for CPCM initialization              ...                 0.1s

----------------------------------------D-I-I-S--------------------------------------------
Iteration    Energy (Eh)           Delta-E    RMSDP     MaxDP     DIISErr   Damp  Time(sec)
-------------------------------------------------------------------------------------------
               ***  Starting incremental Fock matrix formation  ***
    1    -1853.1965966447619394     0.00e+00  1.84e-04  1.41e-02  1.37e-01  0.850   6.7
Warning: op=1 Small HOMO/LUMO gap (   0.088) - skipping pre-diagonalization
         Will do a full diagonalization
    2    -1853.3021222435822892    -1.06e-01  1.75e-04  1.36e-02  9.25e-02  0.850   4.4
                               ***Turning on AO-DIIS***
    3    -1853.3597707668845942    -5.76e-02  8.74e-05  1.05e-02  5.40e-02  0.850   3.9
    4    -1853.3949488293014838    -3.52e-02  6.08e-05  9.45e-03  4.13e-02  0.850   3.7
    5    -1853.4202239851269951    -2.53e-02  5.14e-05  8.93e-03  3.54e-02  0.850   3.6
    6    -1853.4404276773152560    -2.02e-02  4.65e-05  8.52e-03  3.09e-02  0.850   3.5
    7    -1853.4573669049373166    -1.69e-02  4.29e-05  8.14e-03  2.64e-02  0.850   3.5
    8    -1853.4717530400234864    -1.44e-02  2.51e-04  4.96e-02  2.17e-02  0.000   3.5
    9    -1853.5467910254869821    -7.50e-02  1.90e-05  2.26e-03  3.43e-03  0.000   3.8
   10    -1853.5469662530426831    -1.75e-04  9.39e-06  2.06e-03  1.63e-03  0.000   3.4
                              *** Initializing SOSCF ***
---------------------------------------S-O-S-C-F--------------------------------------
Iteration    Energy (Eh)           Delta-E    RMSDP     MaxDP     MaxGrad    Time(sec)
--------------------------------------------------------------------------------------
   11    -1853.5469980501579812    -3.18e-05  4.95e-06  1.38e-03  6.17e-04     3.6
               *** Restarting incremental Fock matrix formation ***
   12    -1853.5470138501982547    -1.58e-05  3.98e-06  1.10e-03  3.04e-04     6.3
   13    -1853.5470144442874698    -5.94e-07  2.90e-06  7.99e-04  4.25e-04     3.8
   14    -1853.5470158613529748    -1.42e-06  1.35e-06  1.89e-04  8.16e-05     3.7
   15    -1853.5470159376295669    -7.63e-08  4.80e-07  3.84e-05  2.72e-05     3.6
   16    -1853.5470160077661603    -7.01e-08  2.34e-07  2.55e-05  8.56e-06     3.2
   17    -1853.5470159916344528     1.61e-08  1.75e-07  2.52e-05  5.57e-06     3.0
   18    -1853.5470160201471117    -2.85e-08  2.75e-07  4.01e-05  2.10e-06     2.8
                  *** Gradient check signals convergence ***

               *****************************************************
               *                     SUCCESS                       *
               *           SCF CONVERGED AFTER  18 CYCLES          *
               *****************************************************

Recomputing exchange energy using gridx3       ... done (    7.071 sec)
Old exchange energy                            :    -19.929425722 Eh
New exchange energy                            :    -19.929444883 Eh
Exchange energy change after final integration :     -0.000019161 Eh
Total energy after final integration           :  -1853.547035181 Eh

SMD CDS free energy correction energy :                 3.51328     Kcal/mol
Total Energy after SMD CDS correction =             -1853.541436417 Eh
             **** ENERGY FILE WAS UPDATED (rf_mecn_freq_r2s_C8_P_B.en.tmp) ****

----------------
TOTAL SCF ENERGY
----------------

Total Energy       :      -1853.54143641716200 Eh          -50437.42667 eV

Components:
Nuclear Repulsion  :       2692.37263520003444 Eh           73263.18403 eV
Electronic Energy  :      -4545.90785794288695 Eh         -123700.44162 eV
One Electron Energy:      -7935.78691374399114 Eh         -215943.74029 eV
Two Electron Energy:       3389.87905580110419 Eh           92243.29867 eV
CPCM Dielectric    :         -0.01179327729421 Eh              -0.32091 eV
SMD CDS (Gcds)     :          0.00559876427326 Eh               0.15235 eV

Virial components:
Potential Energy   :      -3700.94137087208401 Eh         -100707.73458 eV
Kinetic Energy     :       1847.39993445492200 Eh           50270.30791 eV
Virial Ratio       :          2.00332440304219

DFT components:
N(Alpha)           :       95.999981480396 electrons
N(Beta)            :       94.999962212725 electrons
N(Total)           :      190.999943693121 electrons
E(X)               :     -180.311299286413 Eh       
E(C)               :       -6.646559305539 Eh       
E(XC)              :     -186.957858591952 Eh       

CPCM Solvation Model Properties:
Surface-charge          :         -0.00855418941298
Corrected charge        :         -0.00000000000000
Outlying charge corr.   :          0.00000404532851 Eh               0.00011 eV
Free-energy (cav+disp)  :          0.00559876427326 Eh               0.15235 eV

---------------
SCF CONVERGENCE
---------------

  Last Energy change         ...    2.8513e-08  Tolerance :   1.0000e-08
  Last MAX-Density change    ...    4.0148e-05  Tolerance :   1.0000e-07
  Last RMS-Density change    ...    2.7471e-07  Tolerance :   5.0000e-09
  Last DIIS Error            ...    6.1716e-04  Tolerance :   5.0000e-07
  Last Orbital Gradient      ...    2.1036e-06  Tolerance :   1.0000e-05
  Last Orbital Rotation      ...    7.8792e-06  Tolerance :   1.0000e-05


----------------------
UHF SPIN CONTAMINATION
----------------------

Warning: in a DFT calculation there is little theoretical justification to 
         calculate <S**2> as in Hartree-Fock theory. We will do it anyways
         but you should keep in mind that the values have only limited relevance

Expectation value of <S**2>     :     0.754286
Ideal value S*(S+1) for S=0.5   :     0.750000
Deviation                       :     0.004286

----------------
ORBITAL ENERGIES
----------------
                 SPIN UP ORBITALS
  NO   OCC          E(Eh)            E(eV) 
   0   1.0000     -24.737690      -673.1468 
   1   1.0000     -24.736603      -673.1172 
   2   1.0000     -24.734176      -673.0511 
   3   1.0000     -24.734060      -673.0480 
   4   1.0000     -24.733714      -673.0386 
   5   1.0000     -24.733458      -673.0316 
   6   1.0000     -24.733434      -673.0309 
   7   1.0000     -24.733101      -673.0219 
   8   1.0000     -24.732700      -673.0110 
   9   1.0000     -24.732166      -672.9965 
  10   1.0000     -24.728398      -672.8939 
  11   1.0000     -24.724310      -672.7827 
  12   1.0000     -24.723618      -672.7638 
  13   1.0000     -24.721870      -672.7163 
  14   1.0000     -19.197230      -522.3832 
  15   1.0000     -19.141296      -520.8611 
  16   1.0000     -10.389648      -282.7167 
  17   1.0000     -10.389244      -282.7057 
  18   1.0000     -10.387301      -282.6528 
  19   1.0000     -10.385404      -282.6012 
  20   1.0000     -10.383396      -282.5466 
  21   1.0000     -10.376211      -282.3511 
  22   1.0000     -10.360746      -281.9302 
  23   1.0000     -10.326619      -281.0016 
  24   1.0000      -1.345774       -36.6204 
  25   1.0000      -1.335524       -36.3415 
  26   1.0000      -1.327755       -36.1301 
  27   1.0000      -1.318293       -35.8726 
  28   1.0000      -1.316885       -35.8343 
  29   1.0000      -1.309682       -35.6383 
  30   1.0000      -1.309234       -35.6261 
  31   1.0000      -1.274674       -34.6856 
  32   1.0000      -1.269337       -34.5404 
  33   1.0000      -1.267276       -34.4843 
  34   1.0000      -1.261353       -34.3232 
  35   1.0000      -1.258525       -34.2462 
  36   1.0000      -1.252895       -34.0930 
  37   1.0000      -1.251393       -34.0521 
  38   1.0000      -1.153049       -31.3761 
  39   1.0000      -1.066026       -29.0081 
  40   1.0000      -0.851607       -23.1734 
  41   1.0000      -0.835988       -22.7484 
  42   1.0000      -0.811305       -22.0767 
  43   1.0000      -0.775490       -21.1021 
  44   1.0000      -0.730701       -19.8834 
  45   1.0000      -0.689532       -18.7631 
  46   1.0000      -0.673944       -18.3389 
  47   1.0000      -0.662066       -18.0157 
  48   1.0000      -0.640059       -17.4169 
  49   1.0000      -0.638344       -17.3702 
  50   1.0000      -0.628376       -17.0990 
  51   1.0000      -0.620677       -16.8895 
  52   1.0000      -0.615650       -16.7527 
  53   1.0000      -0.614059       -16.7094 
  54   1.0000      -0.603041       -16.4096 
  55   1.0000      -0.597958       -16.2713 
  56   1.0000      -0.593915       -16.1612 
  57   1.0000      -0.590986       -16.0815 
  58   1.0000      -0.580663       -15.8007 
  59   1.0000      -0.579860       -15.7788 
  60   1.0000      -0.573068       -15.5940 
  61   1.0000      -0.563585       -15.3359 
  62   1.0000      -0.547193       -14.8899 
  63   1.0000      -0.512730       -13.9521 
  64   1.0000      -0.505834       -13.7644 
  65   1.0000      -0.503912       -13.7121 
  66   1.0000      -0.496315       -13.5054 
  67   1.0000      -0.494001       -13.4424 
  68   1.0000      -0.490141       -13.3374 
  69   1.0000      -0.483590       -13.1591 
  70   1.0000      -0.478640       -13.0245 
  71   1.0000      -0.475952       -12.9513 
  72   1.0000      -0.474992       -12.9252 
  73   1.0000      -0.472096       -12.8464 
  74   1.0000      -0.467850       -12.7308 
  75   1.0000      -0.465768       -12.6742 
  76   1.0000      -0.461245       -12.5511 
  77   1.0000      -0.455815       -12.4033 
  78   1.0000      -0.451898       -12.2968 
  79   1.0000      -0.448352       -12.2003 
  80   1.0000      -0.443734       -12.0746 
  81   1.0000      -0.443184       -12.0596 
  82   1.0000      -0.440141       -11.9769 
  83   1.0000      -0.436257       -11.8711 
  84   1.0000      -0.435285       -11.8447 
  85   1.0000      -0.431423       -11.7396 
  86   1.0000      -0.430751       -11.7213 
  87   1.0000      -0.428933       -11.6719 
  88   1.0000      -0.424889       -11.5618 
  89   1.0000      -0.418129       -11.3779 
  90   1.0000      -0.401760       -10.9324 
  91   1.0000      -0.372693       -10.1415 
  92   1.0000      -0.351514        -9.5652 
  93   1.0000      -0.338290        -9.2053 
  94   1.0000      -0.303782        -8.2663 
  95   1.0000      -0.259133        -7.0514 
  96   0.0000      -0.063483        -1.7275 
  97   0.0000      -0.014853        -0.4042 
  98   0.0000       0.001656         0.0451 
  99   0.0000       0.028253         0.7688 
 100   0.0000       0.041516         1.1297 
 101   0.0000       0.058554         1.5933 
 102   0.0000       0.079856         2.1730 
 103   0.0000       0.087023         2.3680 
 104   0.0000       0.113814         3.0970 
 105   0.0000       0.123639         3.3644 
 106   0.0000       0.131337         3.5739 

                 SPIN DOWN ORBITALS
  NO   OCC          E(Eh)            E(eV) 
   0   1.0000     -24.734179      -673.0512 
   1   1.0000     -24.734053      -673.0478 
   2   1.0000     -24.733712      -673.0385 
   3   1.0000     -24.733473      -673.0320 
   4   1.0000     -24.733434      -673.0310 
   5   1.0000     -24.733434      -673.0310 
   6   1.0000     -24.732858      -673.0153 
   7   1.0000     -24.732700      -673.0110 
   8   1.0000     -24.732354      -673.0016 
   9   1.0000     -24.732166      -672.9965 
  10   1.0000     -24.728419      -672.8945 
  11   1.0000     -24.723618      -672.7638 
  12   1.0000     -24.722526      -672.7341 
  13   1.0000     -24.721870      -672.7163 
  14   1.0000     -19.197230      -522.3832 
  15   1.0000     -19.141296      -520.8612 
  16   1.0000     -10.389666      -282.7172 
  17   1.0000     -10.389252      -282.7059 
  18   1.0000     -10.387386      -282.6551 
  19   1.0000     -10.385406      -282.6013 
  20   1.0000     -10.382754      -282.5291 
  21   1.0000     -10.376212      -282.3511 
  22   1.0000     -10.343089      -281.4498 
  23   1.0000     -10.326619      -281.0016 
  24   1.0000      -1.345483       -36.6124 
  25   1.0000      -1.333322       -36.2815 
  26   1.0000      -1.323512       -36.0146 
  27   1.0000      -1.316980       -35.8369 
  28   1.0000      -1.316745       -35.8304 
  29   1.0000      -1.309581       -35.6355 
  30   1.0000      -1.306829       -35.5606 
  31   1.0000      -1.274568       -34.6827 
  32   1.0000      -1.267521       -34.4910 
  33   1.0000      -1.262440       -34.3527 
  34   1.0000      -1.260951       -34.3122 
  35   1.0000      -1.258486       -34.2451 
  36   1.0000      -1.251394       -34.0522 
  37   1.0000      -1.250988       -34.0411 
  38   1.0000      -1.153049       -31.3761 
  39   1.0000      -1.066027       -29.0081 
  40   1.0000      -0.850801       -23.1515 
  41   1.0000      -0.833217       -22.6730 
  42   1.0000      -0.806960       -21.9585 
  43   1.0000      -0.770211       -20.9585 
  44   1.0000      -0.725342       -19.7375 
  45   1.0000      -0.685594       -18.6560 
  46   1.0000      -0.669618       -18.2212 
  47   1.0000      -0.661951       -18.0126 
  48   1.0000      -0.639587       -17.4040 
  49   1.0000      -0.636576       -17.3221 
  50   1.0000      -0.628079       -17.0909 
  51   1.0000      -0.619103       -16.8466 
  52   1.0000      -0.614246       -16.7145 
  53   1.0000      -0.612075       -16.6554 
  54   1.0000      -0.600817       -16.3491 
  55   1.0000      -0.596784       -16.2393 
  56   1.0000      -0.590352       -16.0643 
  57   1.0000      -0.588208       -16.0060 
  58   1.0000      -0.578535       -15.7427 
  59   1.0000      -0.577564       -15.7163 
  60   1.0000      -0.571533       -15.5522 
  61   1.0000      -0.563391       -15.3307 
  62   1.0000      -0.514964       -14.0129 
  63   1.0000      -0.512717       -13.9517 
  64   1.0000      -0.504985       -13.7413 
  65   1.0000      -0.503726       -13.7071 
  66   1.0000      -0.494437       -13.4543 
  67   1.0000      -0.493563       -13.4305 
  68   1.0000      -0.489186       -13.3114 
  69   1.0000      -0.482898       -13.1403 
  70   1.0000      -0.478046       -13.0083 
  71   1.0000      -0.475607       -12.9419 
  72   1.0000      -0.473740       -12.8911 
  73   1.0000      -0.470112       -12.7924 
  74   1.0000      -0.465449       -12.6655 
  75   1.0000      -0.460963       -12.5435 
  76   1.0000      -0.455797       -12.4029 
  77   1.0000      -0.453529       -12.3412 
  78   1.0000      -0.449964       -12.2441 
  79   1.0000      -0.448141       -12.1945 
  80   1.0000      -0.443207       -12.0603 
  81   1.0000      -0.440326       -11.9819 
  82   1.0000      -0.439927       -11.9710 
  83   1.0000      -0.435760       -11.8576 
  84   1.0000      -0.434329       -11.8187 
  85   1.0000      -0.430392       -11.7116 
  86   1.0000      -0.429859       -11.6971 
  87   1.0000      -0.428324       -11.6553 
  88   1.0000      -0.423736       -11.5304 
  89   1.0000      -0.416993       -11.3470 
  90   1.0000      -0.399749       -10.8777 
  91   1.0000      -0.370180       -10.0731 
  92   1.0000      -0.351471        -9.5640 
  93   1.0000      -0.336399        -9.1539 
  94   1.0000      -0.303702        -8.2642 
  95   0.0000      -0.094658        -2.5758 
  96   0.0000      -0.063386        -1.7248 
  97   0.0000      -0.012949        -0.3524 
  98   0.0000       0.004241         0.1154 
  99   0.0000       0.031680         0.8621 
 100   0.0000       0.047870         1.3026 
 101   0.0000       0.059964         1.6317 
 102   0.0000       0.084731         2.3056 
 103   0.0000       0.093374         2.5408 
 104   0.0000       0.114863         3.1256 
 105   0.0000       0.126858         3.4520 
*Only the first 10 virtual orbitals were printed.

                    ********************************
                    * MULLIKEN POPULATION ANALYSIS *
                    ********************************

--------------------------------------------
MULLIKEN ATOMIC CHARGES AND SPIN POPULATIONS
--------------------------------------------
   0 C :    0.281291   -0.000007
   1 O :   -0.365026   -0.000001
   2 O :   -0.326265   -0.000006
   3 C :    0.413797   -0.000025
   4 C :    0.287900   -0.000082
   5 C :    0.320787   -0.000239
   6 C :    0.328855   -0.001329
   7 C :    0.307217   -0.003644
   8 C :    0.387405   -0.003871
   9 C :    0.264313    0.845673
  10 F :   -0.173834    0.000000
  11 F :   -0.169860   -0.000002
  12 F :   -0.165661    0.000002
  13 F :   -0.167934   -0.000005
  14 F :   -0.163349    0.000001
  15 F :   -0.162123   -0.000011
  16 F :   -0.162068    0.000027
  17 F :   -0.162929   -0.000051
  18 F :   -0.164860    0.000490
  19 F :   -0.162495    0.001328
  20 F :   -0.169237   -0.001376
  21 F :   -0.171806    0.033198
  22 F :   -0.147195    0.064391
  23 F :   -0.146237    0.065540
  24 H :    0.389315   -0.000001
Sum of atomic charges         :    0.0000000
Sum of atomic spin populations:    1.0000000

-----------------------------------------------------
MULLIKEN REDUCED ORBITAL CHARGES AND SPIN POPULATIONS
-----------------------------------------------------
CHARGE
  0 C s       :     3.066847  s :     3.066847
      pz      :     0.761333  p :     2.363565
      px      :     0.853401
      py      :     0.748831
      dz2     :     0.048914  d :     0.263587
      dxz     :     0.031807
      dyz     :     0.063403
      dx2y2   :     0.065134
      dxy     :     0.054329
      f0      :     0.003182  f :     0.024710
      f+1     :     0.002345
      f-1     :     0.003601
      f+2     :     0.003799
      f-2     :     0.003930
      f+3     :     0.002989
      f-3     :     0.004863

  1 O s       :     3.786670  s :     3.786670
      pz      :     1.455220  p :     4.543956
      px      :     1.495404
      py      :     1.593333
      dz2     :     0.005215  d :     0.032560
      dxz     :     0.004789
      dyz     :     0.009282
      dx2y2   :     0.006237
      dxy     :     0.007036
      f0      :     0.000313  f :     0.001841
      f+1     :     0.000185
      f-1     :     0.000302
      f+2     :     0.000397
      f-2     :     0.000415
      f+3     :     0.000039
      f-3     :     0.000190

  2 O s       :     3.827829  s :     3.827829
      pz      :     1.569075  p :     4.464075
      px      :     1.547179
      py      :     1.347822
      dz2     :     0.003897  d :     0.032277
      dxz     :     0.003049
      dyz     :     0.007619
      dx2y2   :     0.009447
      dxy     :     0.008265
      f0      :     0.000199  f :     0.002084
      f+1     :     0.000107
      f-1     :     0.000321
      f+2     :     0.000208
      f-2     :     0.000319
      f+3     :     0.000372
      f-3     :     0.000558

  3 C s       :     3.040017  s :     3.040017
      pz      :     0.662806  p :     2.232720
      px      :     0.944141
      py      :     0.625772
      dz2     :     0.046931  d :     0.285737
      dxz     :     0.057673
      dyz     :     0.079383
      dx2y2   :     0.041627
      dxy     :     0.060123
      f0      :     0.005681  f :     0.027730
      f+1     :     0.004729
      f-1     :     0.004690
      f+2     :     0.003691
      f-2     :     0.001644
      f+3     :     0.004794
      f-3     :     0.002501

  4 C s       :     3.150527  s :     3.150527
      pz      :     0.625651  p :     2.241905
      px      :     0.950400
      py      :     0.665854
      dz2     :     0.054460  d :     0.291594
      dxz     :     0.060206
      dyz     :     0.078778
      dx2y2   :     0.037323
      dxy     :     0.060828
      f0      :     0.004134  f :     0.028074
      f+1     :     0.005254
      f-1     :     0.007443
      f+2     :     0.002493
      f-2     :     0.001722
      f+3     :     0.004635
      f-3     :     0.002392

  5 C s       :     3.138375  s :     3.138375
      pz      :     0.593731  p :     2.218741
      px      :     0.924546
      py      :     0.700464
      dz2     :     0.070896  d :     0.294014
      dxz     :     0.063674
      dyz     :     0.067439
      dx2y2   :     0.034098
      dxy     :     0.057907
      f0      :     0.003955  f :     0.028083
      f+1     :     0.004839
      f-1     :     0.007720
      f+2     :     0.002579
      f-2     :     0.003465
      f+3     :     0.003125
      f-3     :     0.002400

  6 C s       :     3.130375  s :     3.130375
      pz      :     0.579135  p :     2.218909
      px      :     0.925005
      py      :     0.714769
      dz2     :     0.081986  d :     0.293786
      dxz     :     0.063042
      dyz     :     0.057794
      dx2y2   :     0.031970
      dxy     :     0.058994
      f0      :     0.005832  f :     0.028075
      f+1     :     0.004044
      f-1     :     0.004893
      f+2     :     0.003818
      f-2     :     0.005171
      f+3     :     0.002299
      f-3     :     0.002018

  7 C s       :     3.145667  s :     3.145667
      pz      :     0.578278  p :     2.227064
      px      :     0.929243
      py      :     0.719543
      dz2     :     0.080730  d :     0.291962
      dxz     :     0.062678
      dyz     :     0.058152
      dx2y2   :     0.031606
      dxy     :     0.058796
      f0      :     0.005702  f :     0.028090
      f+1     :     0.004103
      f-1     :     0.005074
      f+2     :     0.003724
      f-2     :     0.005088
      f+3     :     0.002358
      f-3     :     0.002040

  8 C s       :     3.070176  s :     3.070176
      pz      :     0.590758  p :     2.224496
      px      :     0.931222
      py      :     0.702516
      dz2     :     0.068176  d :     0.290178
      dxz     :     0.064971
      dyz     :     0.068919
      dx2y2   :     0.031282
      dxy     :     0.056831
      f0      :     0.004009  f :     0.027745
      f+1     :     0.004533
      f-1     :     0.007513
      f+2     :     0.002531
      f-2     :     0.003623
      f+3     :     0.003119
      f-3     :     0.002416

  9 C s       :     3.233997  s :     3.233997
      pz      :     0.938730  p :     2.259000
      px      :     0.725800
      py      :     0.594469
      dz2     :     0.027172  d :     0.215815
      dxz     :     0.033927
      dyz     :     0.039079
      dx2y2   :     0.060320
      dxy     :     0.055316
      f0      :     0.002549  f :     0.026875
      f+1     :     0.001406
      f-1     :     0.004337
      f+2     :     0.002153
      f-2     :     0.004953
      f+3     :     0.007317
      f-3     :     0.004160

 10 F s       :     3.928524  s :     3.928524
      pz      :     1.888099  p :     5.227677
      px      :     1.896397
      py      :     1.443181
      dz2     :     0.002339  d :     0.016922
      dxz     :     0.000178
      dyz     :     0.003507
      dx2y2   :     0.006616
      dxy     :     0.004282
      f0      :     0.000059  f :     0.000711
      f+1     :     0.000014
      f-1     :     0.000140
      f+2     :     0.000099
      f-2     :     0.000009
      f+3     :     0.000170
      f-3     :     0.000220

 11 F s       :     3.926397  s :     3.926397
      pz      :     1.462967  p :     5.225641
      px      :     1.900253
      py      :     1.862421
      dz2     :     0.008004  d :     0.017090
      dxz     :     0.003993
      dyz     :     0.004268
      dx2y2   :     0.000438
      dxy     :     0.000387
      f0      :     0.000293  f :     0.000733
      f+1     :     0.000160
      f-1     :     0.000210
      f+2     :     0.000037
      f-2     :     0.000029
      f+3     :     0.000002
      f-3     :     0.000003

 12 F s       :     3.929163  s :     3.929163
      pz      :     1.856563  p :     5.218509
      px      :     1.897664
      py      :     1.464283
      dz2     :     0.002278  d :     0.017267
      dxz     :     0.000374
      dyz     :     0.004460
      dx2y2   :     0.006159
      dxy     :     0.003996
      f0      :     0.000072  f :     0.000721
      f+1     :     0.000008
      f-1     :     0.000129
      f+2     :     0.000148
      f-2     :     0.000029
      f+3     :     0.000145
      f-3     :     0.000190

 13 F s       :     3.929589  s :     3.929589
      pz      :     1.438292  p :     5.220421
      px      :     1.895537
      py      :     1.886591
      dz2     :     0.008966  d :     0.017206
      dxz     :     0.004286
      dyz     :     0.003571
      dx2y2   :     0.000229
      dxy     :     0.000155
      f0      :     0.000358  f :     0.000718
      f+1     :     0.000180
      f-1     :     0.000159
      f+2     :     0.000011
      f-2     :     0.000007
      f+3     :     0.000001
      f-3     :     0.000001

 14 F s       :     3.928859  s :     3.928859
      pz      :     1.761205  p :     5.216447
      px      :     1.890784
      py      :     1.564459
      dz2     :     0.002404  d :     0.017320
      dxz     :     0.001301
      dyz     :     0.006164
      dx2y2   :     0.004151
      dxy     :     0.003300
      f0      :     0.000081  f :     0.000723
      f+1     :     0.000008
      f-1     :     0.000150
      f+2     :     0.000195
      f-2     :     0.000098
      f+3     :     0.000093
      f-3     :     0.000098

 15 F s       :     3.928630  s :     3.928630
      pz      :     1.464101  p :     5.215384
      px      :     1.896686
      py      :     1.854597
      dz2     :     0.008177  d :     0.017382
      dxz     :     0.003948
      dyz     :     0.004403
      dx2y2   :     0.000377
      dxy     :     0.000476
      f0      :     0.000308  f :     0.000727
      f+1     :     0.000148
      f-1     :     0.000206
      f+2     :     0.000024
      f-2     :     0.000036
      f+3     :     0.000002
      f-3     :     0.000002

 16 F s       :     3.928711  s :     3.928711
      pz      :     1.650037  p :     5.215244
      px      :     1.897408
      py      :     1.667799
      dz2     :     0.003632  d :     0.017387
      dxz     :     0.002196
      dyz     :     0.006890
      dx2y2   :     0.002460
      dxy     :     0.002208
      f0      :     0.000094  f :     0.000726
      f+1     :     0.000029
      f-1     :     0.000235
      f+2     :     0.000175
      f-2     :     0.000114
      f+3     :     0.000042
      f-3     :     0.000039

 17 F s       :     3.928918  s :     3.928918
      pz      :     1.543294  p :     5.215969
      px      :     1.892806
      py      :     1.779869
      dz2     :     0.005852  d :     0.017318
      dxz     :     0.003293
      dyz     :     0.005849
      dx2y2   :     0.001084
      dxy     :     0.001240
      f0      :     0.000173  f :     0.000723
      f+1     :     0.000091
      f-1     :     0.000258
      f+2     :     0.000088
      f-2     :     0.000092
      f+3     :     0.000011
      f-3     :     0.000010

 18 F s       :     3.929035  s :     3.929035
      pz      :     1.661038  p :     5.217866
      px      :     1.897552
      py      :     1.659275
      dz2     :     0.003434  d :     0.017240
      dxz     :     0.002083
      dyz     :     0.006856
      dx2y2   :     0.002585
      dxy     :     0.002282
      f0      :     0.000090  f :     0.000718
      f+1     :     0.000025
      f-1     :     0.000226
      f+2     :     0.000179
      f-2     :     0.000112
      f+3     :     0.000045
      f-3     :     0.000042

 19 F s       :     3.928631  s :     3.928631
      pz      :     1.535433  p :     5.215829
      px      :     1.892762
      py      :     1.787634
      dz2     :     0.006078  d :     0.017309
      dxz     :     0.003358
      dyz     :     0.005705
      dx2y2   :     0.001026
      dxy     :     0.001142
      f0      :     0.000184  f :     0.000726
      f+1     :     0.000098
      f-1     :     0.000257
      f+2     :     0.000082
      f-2     :     0.000087
      f+3     :     0.000010
      f-3     :     0.000009

 20 F s       :     3.928417  s :     3.928417
      pz      :     1.765659  p :     5.223116
      px      :     1.895652
      py      :     1.561805
      dz2     :     0.002307  d :     0.016990
      dxz     :     0.001203
      dyz     :     0.006127
      dx2y2   :     0.004163
      dxy     :     0.003190
      f0      :     0.000080  f :     0.000714
      f+1     :     0.000006
      f-1     :     0.000146
      f+2     :     0.000198
      f-2     :     0.000092
      f+3     :     0.000093
      f-3     :     0.000099

 21 F s       :     3.927850  s :     3.927850
      pz      :     1.471618  p :     5.226789
      px      :     1.899147
      py      :     1.856023
      dz2     :     0.007787  d :     0.016477
      dxz     :     0.003634
      dyz     :     0.004261
      dx2y2   :     0.000327
      dxy     :     0.000468
      f0      :     0.000290  f :     0.000690
      f+1     :     0.000135
      f-1     :     0.000200
      f+2     :     0.000025
      f-2     :     0.000037
      f+3     :     0.000002
      f-3     :     0.000001

 22 F s       :     3.922925  s :     3.922925
      pz      :     1.785388  p :     5.205623
      px      :     1.880746
      py      :     1.539489
      dz2     :     0.002695  d :     0.017876
      dxz     :     0.000770
      dyz     :     0.005772
      dx2y2   :     0.005154
      dxy     :     0.003485
      f0      :     0.000080  f :     0.000771
      f+1     :     0.000007
      f-1     :     0.000159
      f+2     :     0.000176
      f-2     :     0.000069
      f+3     :     0.000126
      f-3     :     0.000154

 23 F s       :     3.923360  s :     3.923360
      pz      :     1.860357  p :     5.204195
      px      :     1.598731
      py      :     1.745107
      dz2     :     0.002288  d :     0.017900
      dxz     :     0.003280
      dyz     :     0.001685
      dx2y2   :     0.004133
      dxy     :     0.006513
      f0      :     0.000081  f :     0.000782
      f+1     :     0.000102
      f-1     :     0.000060
      f+2     :     0.000015
      f-2     :     0.000114
      f+3     :     0.000175
      f-3     :     0.000234

 24 H s       :     0.567112  s :     0.567112
      pz      :     0.013576  p :     0.043573
      px      :     0.018412
      py      :     0.011585


SPIN
  0 C s       :    -0.000002  s :    -0.000002
      pz      :    -0.000001  p :    -0.000004
      px      :    -0.000000
      py      :    -0.000002
      dz2     :    -0.000000  d :    -0.000001
      dxz     :    -0.000000
      dyz     :    -0.000001
      dx2y2   :    -0.000000
      dxy     :    -0.000000
      f0      :    -0.000000  f :    -0.000000
      f+1     :    -0.000000
      f-1     :     0.000000
      f+2     :     0.000000
      f-2     :    -0.000000
      f+3     :    -0.000000
      f-3     :    -0.000000

  1 O s       :    -0.000000  s :    -0.000000
      pz      :    -0.000001  p :    -0.000001
      px      :     0.000000
      py      :     0.000000
      dz2     :    -0.000000  d :    -0.000000
      dxz     :    -0.000000
      dyz     :    -0.000000
      dx2y2   :    -0.000000
      dxy     :    -0.000000
      f0      :    -0.000000  f :    -0.000000
      f+1     :     0.000000
      f-1     :    -0.000000
      f+2     :    -0.000000
      f-2     :    -0.000000
      f+3     :     0.000000
      f-3     :    -0.000000

  2 O s       :    -0.000001  s :    -0.000001
      pz      :    -0.000006  p :    -0.000005
      px      :     0.000002
      py      :    -0.000001
      dz2     :    -0.000000  d :     0.000000
      dxz     :     0.000000
      dyz     :    -0.000000
      dx2y2   :     0.000000
      dxy     :    -0.000000
      f0      :     0.000000  f :     0.000000
      f+1     :     0.000000
      f-1     :     0.000000
      f+2     :     0.000000
      f-2     :     0.000000
      f+3     :    -0.000000
      f-3     :    -0.000000

  3 C s       :     0.000000  s :     0.000000
      pz      :    -0.000006  p :    -0.000024
      px      :    -0.000013
      py      :    -0.000006
      dz2     :     0.000000  d :    -0.000002
      dxz     :    -0.000000
      dyz     :    -0.000000
      dx2y2   :    -0.000001
      dxy     :    -0.000000
      f0      :     0.000000  f :    -0.000000
      f+1     :     0.000000
      f-1     :     0.000000
      f+2     :    -0.000000
      f-2     :    -0.000000
      f+3     :    -0.000000
      f-3     :     0.000000

  4 C s       :    -0.000020  s :    -0.000020
      pz      :    -0.000001  p :    -0.000053
      px      :    -0.000045
      py      :    -0.000007
      dz2     :    -0.000001  d :    -0.000009
      dxz     :     0.000000
      dyz     :    -0.000001
      dx2y2   :    -0.000006
      dxy     :    -0.000002
      f0      :     0.000000  f :    -0.000000
      f+1     :     0.000000
      f-1     :     0.000000
      f+2     :    -0.000000
      f-2     :    -0.000000
      f+3     :    -0.000000
      f-3     :    -0.000000

  5 C s       :    -0.000060  s :    -0.000060
      pz      :     0.000004  p :    -0.000157
      px      :    -0.000065
      py      :    -0.000096
      dz2     :     0.000001  d :    -0.000020
      dxz     :     0.000000
      dyz     :    -0.000000
      dx2y2   :    -0.000018
      dxy     :    -0.000004
      f0      :     0.000000  f :    -0.000001
      f+1     :     0.000000
      f-1     :    -0.000000
      f+2     :    -0.000000
      f-2     :    -0.000000
      f+3     :    -0.000001
      f-3     :     0.000001

  6 C s       :    -0.000501  s :    -0.000501
      pz      :     0.000260  p :    -0.000710
      px      :    -0.000683
      py      :    -0.000288
      dz2     :    -0.000004  d :    -0.000113
      dxz     :     0.000012
      dyz     :    -0.000028
      dx2y2   :    -0.000048
      dxy     :    -0.000045
      f0      :    -0.000000  f :    -0.000004
      f+1     :    -0.000000
      f-1     :     0.000000
      f+2     :    -0.000000
      f-2     :     0.000000
      f+3     :    -0.000004
      f-3     :    -0.000000

  7 C s       :     0.004167  s :     0.004167
      pz      :    -0.000881  p :    -0.007220
      px      :    -0.004293
      py      :    -0.002047
      dz2     :    -0.000244  d :    -0.000626
      dxz     :     0.000105
      dyz     :    -0.000131
      dx2y2   :    -0.000436
      dxy     :     0.000081
      f0      :     0.000004  f :     0.000034
      f+1     :     0.000010
      f-1     :     0.000007
      f+2     :     0.000013
      f-2     :    -0.000002
      f+3     :     0.000003
      f-3     :     0.000000

  8 C s       :    -0.006011  s :    -0.006011
      pz      :    -0.013419  p :    -0.009086
      px      :     0.004889
      py      :    -0.000556
      dz2     :     0.004482  d :     0.010117
      dxz     :     0.001399
      dyz     :     0.002282
      dx2y2   :     0.001086
      dxy     :     0.000867
      f0      :     0.000054  f :     0.001110
      f+1     :     0.000496
      f-1     :     0.000117
      f+2     :     0.000086
      f-2     :     0.000199
      f+3     :     0.000063
      f-3     :     0.000095

  9 C s       :     0.215077  s :     0.215077
      pz      :     0.598094  p :     0.637138
      px      :     0.008555
      py      :     0.030490
      dz2     :    -0.000767  d :    -0.003638
      dxz     :     0.001817
      dyz     :    -0.000978
      dx2y2   :    -0.002038
      dxy     :    -0.001672
      f0      :    -0.000826  f :    -0.002904
      f+1     :    -0.000564
      f-1     :    -0.000930
      f+2     :    -0.000250
      f-2     :    -0.000045
      f+3     :    -0.000131
      f-3     :    -0.000158

 10 F s       :    -0.000000  s :    -0.000000
      pz      :     0.000000  p :     0.000001
      px      :    -0.000000
      py      :     0.000001
      dz2     :    -0.000000  d :    -0.000000
      dxz     :    -0.000000
      dyz     :    -0.000000
      dx2y2   :    -0.000000
      dxy     :    -0.000000
      f0      :     0.000000  f :    -0.000000
      f+1     :    -0.000000
      f-1     :    -0.000000
      f+2     :    -0.000000
      f-2     :    -0.000000
      f+3     :    -0.000000
      f-3     :    -0.000000

 11 F s       :    -0.000000  s :    -0.000000
      pz      :     0.000000  p :    -0.000002
      px      :    -0.000001
      py      :    -0.000001
      dz2     :    -0.000000  d :    -0.000000
      dxz     :    -0.000000
      dyz     :    -0.000000
      dx2y2   :    -0.000000
[...]
 19:    203.22   0.000333    1.68  0.000511  (-0.008327 -0.020817 -0.002826)
 20:    207.58   0.000204    1.03  0.000307  (-0.001555  0.014024 -0.010365)
 21:    224.55   0.000194    0.98  0.000270  ( 0.014301 -0.004784 -0.006510)
 22:    239.94   0.000020    0.10  0.000026  ( 0.000759 -0.003755  0.003369)
 23:    251.44   0.000087    0.44  0.000108  ( 0.005674  0.005225 -0.006996)
 24:    256.97   0.000015    0.08  0.000018  (-0.001797  0.003800 -0.000830)
 25:    262.87   0.000410    2.07  0.000486  ( 0.020093  0.006784 -0.006040)
 26:    288.04   0.001864    9.42  0.002019  (-0.041818  0.016420 -0.000857)
 27:    308.61   0.000214    1.08  0.000217  (-0.013172  0.003388  0.005649)
 28:    319.80   0.000120    0.61  0.000118  ( 0.004950 -0.004325  0.008620)
 29:    340.95   0.000044    0.22  0.000041  ( 0.002095  0.003474  0.004910)
 30:    360.09   0.000160    0.81  0.000138  ( 0.006363  0.008747  0.004609)
 31:    368.85   0.000195    0.99  0.000165  ( 0.003357  0.009690  0.007733)
 32:    372.28   0.000279    1.41  0.000234  (-0.010219  0.010208  0.005061)
 33:    377.63   0.000056    0.28  0.000046  (-0.004496  0.004168  0.002964)
 34:    379.07   0.000998    5.04  0.000821  (-0.026030 -0.011913 -0.001404)
 35:    416.81   0.000511    2.58  0.000383  ( 0.019132  0.003026 -0.002777)
 36:    463.95   0.001664    8.41  0.001119  ( 0.028348 -0.011768 -0.013304)
 37:    518.39   0.012157   61.43  0.007318  ( 0.083175  0.007408 -0.018577)
 38:    521.84   0.000806    4.08  0.000482  (-0.019117  0.006195  0.008856)
 39:    552.56   0.013025   65.82  0.007356  ( 0.082200  0.023684 -0.006170)
 40:    563.59   0.006135   31.00  0.003397  ( 0.025374 -0.051841  0.008103)
 41:    577.95   0.004799   24.25  0.002591  ( 0.015481  0.006890 -0.048002)
 42:    589.67   0.007429   37.54  0.003932  (-0.059265  0.018496 -0.008787)
 43:    612.04   0.006848   34.61  0.003492  ( 0.008080 -0.021628  0.054394)
 44:    622.23   0.001272    6.43  0.000638  (-0.018450 -0.003201  0.016952)
 45:    646.49   0.062946  318.11  0.030384  (-0.162056  0.058095 -0.027335)
 46:    651.17   0.005699   28.80  0.002731  (-0.007418  0.008021 -0.051104)
 47:    688.96   0.001933    9.77  0.000876  (-0.007873 -0.017570  0.022473)
 48:    717.84   0.010052   50.80  0.004370  (-0.056775 -0.012496 -0.031466)
 49:    728.87   0.002492   12.59  0.001067  ( 0.030103  0.007698 -0.010069)
 50:    771.33   0.001375    6.95  0.000556  (-0.019364 -0.005993  0.012055)
 51:    784.46   0.008307   41.98  0.003304  ( 0.025365  0.014347 -0.049550)
 52:    886.49   0.001901    9.61  0.000669  (-0.024722  0.007523  0.001260)
 53:   1025.96   0.013286   67.14  0.004041  (-0.062354  0.005851 -0.010904)
 54:   1087.72   0.040241  203.36  0.011545  (-0.009507 -0.040261 -0.099165)
 55:   1123.73   0.008465   42.78  0.002351  (-0.009172 -0.007505  0.047014)
 56:   1145.20   0.011250   56.85  0.003066  (-0.018104  0.048031  0.020757)
 57:   1154.53   0.030907  156.19  0.008354  (-0.015079  0.027621  0.085812)
 58:   1157.21   0.119509  603.95  0.032228  ( 0.030374  0.161628 -0.071985)
 59:   1166.32   0.006587   33.29  0.001762  ( 0.013701  0.012602 -0.037628)
 60:   1170.16   0.075334  380.71  0.020090  (-0.005196  0.140145 -0.020562)
 61:   1175.06   0.004518   22.83  0.001200  (-0.007201 -0.032598 -0.009245)
 62:   1180.57   0.258367  1305.68  0.068295  (-0.006503  0.090842  0.244950)
 63:   1194.47   0.001950    9.85  0.000509  ( 0.001773 -0.021925  0.005047)
 64:   1209.01   0.008697   43.95  0.002245  (-0.035779  0.005818 -0.030510)
 65:   1218.84   0.004628   23.39  0.001185  ( 0.000321  0.031961 -0.012784)
 66:   1246.10   0.049515  250.23  0.012400  (-0.020029  0.099725 -0.045321)
 67:   1269.22   0.019645   99.28  0.004830  (-0.043653  0.053216 -0.009625)
 68:   1282.59   0.013498   68.21  0.003284  ( 0.003334 -0.057204  0.000911)
 69:   1299.85   0.004335   21.91  0.001041  ( 0.019083 -0.018982 -0.017781)
 70:   1340.28   0.003184   16.09  0.000741  (-0.012982  0.023907 -0.001130)
 71:   1382.65   0.024194  122.27  0.005461  (-0.063803  0.010438  0.035790)
 72:   1422.43   0.015022   75.92  0.003296  ( 0.040608 -0.032770 -0.023934)
 73:   1846.02   0.094152  475.81  0.015916  ( 0.041757  0.104335  0.057329)
 74:   3650.61   0.050941  257.44  0.004355  (-0.051468 -0.002490  0.041225)

* The epsilon (eps) is given for a Dirac delta lineshape.
** The dipole moment derivative (T) already includes vibrational overlap.

The first frequency considered to be a vibration is 6
The total number of vibrations considered is 69


--------------------------
THERMOCHEMISTRY AT 298.15K
--------------------------

Temperature         ...   298.15 K
Pressure            ...     1.00 atm
Total Mass          ...   395.07 AMU
Quasi RRHO          ...     True
Cut-Off Frequency   ...     1.00 cm^-1

Throughout the following assumptions are being made:
  (1) The electronic state is orbitally nondegenerate
      but the spin degeneracy is treated
  (2) There are no thermally accessible electronically excited states
  (3) Hindered rotations indicated by low frequency modes are not
      treated as such but are treated as vibrations and this may
      cause some error
  (4) All equations used are the standard statistical mechanics
      equations for an ideal gas
  (5) All vibrations are strictly harmonic

freq.      24.17  E(vib)   ...       0.56 
freq.      34.81  E(vib)   ...       0.54 
freq.      38.55  E(vib)   ...       0.54 
freq.      49.01  E(vib)   ...       0.53 
freq.      57.22  E(vib)   ...       0.51 
freq.      65.57  E(vib)   ...       0.50 
freq.      66.95  E(vib)   ...       0.50 
freq.      73.04  E(vib)   ...       0.49 
freq.     115.56  E(vib)   ...       0.44 
freq.     137.72  E(vib)   ...       0.42 
freq.     157.16  E(vib)   ...       0.40 
freq.     185.90  E(vib)   ...       0.37 
freq.     198.46  E(vib)   ...       0.35 
freq.     203.22  E(vib)   ...       0.35 
freq.     207.58  E(vib)   ...       0.34 
freq.     224.55  E(vib)   ...       0.33 
freq.     239.94  E(vib)   ...       0.31 
freq.     251.44  E(vib)   ...       0.30 
freq.     256.97  E(vib)   ...       0.30 
freq.     262.87  E(vib)   ...       0.29 
freq.     288.04  E(vib)   ...       0.27 
freq.     308.61  E(vib)   ...       0.26 
freq.     319.80  E(vib)   ...       0.25 
freq.     340.95  E(vib)   ...       0.23 
freq.     360.09  E(vib)   ...       0.22 
freq.     368.85  E(vib)   ...       0.21 
freq.     372.28  E(vib)   ...       0.21 
freq.     377.63  E(vib)   ...       0.21 
freq.     379.07  E(vib)   ...       0.21 
freq.     416.81  E(vib)   ...       0.18 
freq.     463.95  E(vib)   ...       0.16 
freq.     518.39  E(vib)   ...       0.13 
freq.     521.84  E(vib)   ...       0.13 
freq.     552.56  E(vib)   ...       0.12 
freq.     563.59  E(vib)   ...       0.11 
freq.     577.95  E(vib)   ...       0.11 
freq.     589.67  E(vib)   ...       0.10 
freq.     612.04  E(vib)   ...       0.10 
freq.     622.23  E(vib)   ...       0.09 
freq.     646.49  E(vib)   ...       0.09 
freq.     651.17  E(vib)   ...       0.08 
freq.     688.96  E(vib)   ...       0.07 
freq.     717.84  E(vib)   ...       0.07 
freq.     728.87  E(vib)   ...       0.06 
freq.     771.33  E(vib)   ...       0.05 
freq.     784.46  E(vib)   ...       0.05 
freq.     886.49  E(vib)   ...       0.04 
freq.    1025.96  E(vib)   ...       0.02 
freq.    1087.72  E(vib)   ...       0.02 
freq.    1123.73  E(vib)   ...       0.01 
freq.    1145.20  E(vib)   ...       0.01 
freq.    1154.53  E(vib)   ...       0.01 
freq.    1157.21  E(vib)   ...       0.01 
freq.    1166.32  E(vib)   ...       0.01 
freq.    1170.16  E(vib)   ...       0.01 
freq.    1175.06  E(vib)   ...       0.01 
freq.    1180.57  E(vib)   ...       0.01 
freq.    1194.47  E(vib)   ...       0.01 
freq.    1209.01  E(vib)   ...       0.01 
freq.    1218.84  E(vib)   ...       0.01 
freq.    1246.10  E(vib)   ...       0.01 
freq.    1269.22  E(vib)   ...       0.01 
freq.    1282.59  E(vib)   ...       0.01 
freq.    1299.85  E(vib)   ...       0.01 
freq.    1340.28  E(vib)   ...       0.01 
freq.    1382.65  E(vib)   ...       0.01 
freq.    1422.43  E(vib)   ...       0.00 
freq.    1846.02  E(vib)   ...       0.00 
freq.    3650.61  E(vib)   ...       0.00 

------------
INNER ENERGY
------------

The inner energy is: U= E(el) + E(ZPE) + E(vib) + E(rot) + E(trans)
    E(el)   - is the total energy from the electronic structure calculation
              = E(kin-el) + E(nuc-el) + E(el-el) + E(nuc-nuc)
    E(ZPE)  - the the zero temperature vibrational energy from the frequency calculation
    E(vib)  - the the finite temperature correction to E(ZPE) due to population
              of excited vibrational states
    E(rot)  - is the rotational thermal energy
    E(trans)- is the translational thermal energy

Summary of contributions to the inner energy U:
Electronic energy                ...  -1853.54978171 Eh
Zero point energy                ...      0.10714040 Eh      67.23 kcal/mol
Thermal vibrational correction   ...      0.01980983 Eh      12.43 kcal/mol
Thermal rotational correction    ...      0.00141627 Eh       0.89 kcal/mol
Thermal translational correction ...      0.00141627 Eh       0.89 kcal/mol
-----------------------------------------------------------------------
Total thermal energy                  -1853.41999895 Eh


Summary of corrections to the electronic energy:
(perhaps to be used in another calculation)
Total thermal correction                  0.02264237 Eh      14.21 kcal/mol
Non-thermal (ZPE) correction              0.10714040 Eh      67.23 kcal/mol
-----------------------------------------------------------------------
Total correction                          0.12978276 Eh      81.44 kcal/mol


--------
ENTHALPY
--------

The enthalpy is H = U + kB*T
                kB is Boltzmann's constant
Total thermal energy              ...  -1853.41999895 Eh 
Thermal Enthalpy correction       ...      0.00094421 Eh       0.59 kcal/mol
-----------------------------------------------------------------------
Total Enthalpy                    ...  -1853.41905474 Eh


Note: Only C1 symmetry has been detected, increase convergence thresholds 
      if your molecule has a higher symmetry. Symmetry factor of 1.0 is   
      used for the rotational entropy correction. 
 

Note: Rotational entropy computed according to Herzberg 
Infrared and Raman Spectra, Chapter V,1, Van Nostrand Reinhold, 1945 
Point Group:  C1, Symmetry Number:   1  
Rotational constants in cm-1:     0.022829     0.004134     0.004038 

Vibrational entropy computed according to the QRRHO of S. Grimme
Chem.Eur.J. 2012 18 9955 using a reference frequency of 100.0 cm-1


-------
ENTROPY
-------

The entropy contributions are T*S = T*(S(el)+S(vib)+S(rot)+S(trans))
     S(el)   - electronic entropy
     S(vib)  - vibrational entropy
     S(rot)  - rotational entropy
     S(trans)- translational entropy
The entropies will be listed as multiplied by the temperature to get
units of energy

Electronic entropy                ...      0.00065446 Eh      0.41 kcal/mol
Vibrational entropy               ...      0.03549887 Eh     22.28 kcal/mol
Rotational entropy                ...      0.01648840 Eh     10.35 kcal/mol
Translational entropy             ...      0.02081703 Eh     13.06 kcal/mol
-----------------------------------------------------------------------
Final entropy term                ...      0.07345875 Eh     46.10 kcal/mol

In case the symmetry of your molecule has not been determined correctly
or in case you have a reason to use a different symmetry number we print 
out the resulting rotational entropy values for sn=1,12:

 non-linear molecules -----------------------------------
|  sn= 1 | S(rot)=       0.01648840 Eh     10.35 kcal/mol|
|  sn= 2 | S(rot)=       0.01583394 Eh      9.94 kcal/mol|
|  sn= 3 | S(rot)=       0.01545111 Eh      9.70 kcal/mol|
|  sn= 4 | S(rot)=       0.01517948 Eh      9.53 kcal/mol|
|  sn= 5 | S(rot)=       0.01496880 Eh      9.39 kcal/mol|
|  sn= 6 | S(rot)=       0.01479665 Eh      9.29 kcal/mol|
|  sn= 7 | S(rot)=       0.01465110 Eh      9.19 kcal/mol|
|  sn= 8 | S(rot)=       0.01452503 Eh      9.11 kcal/mol|
|  sn= 9 | S(rot)=       0.01441382 Eh      9.04 kcal/mol|
|  sn=10 | S(rot)=       0.01431434 Eh      8.98 kcal/mol|
|  sn=11 | S(rot)=       0.01422435 Eh      8.93 kcal/mol|
|  sn=12 | S(rot)=       0.01414219 Eh      8.87 kcal/mol|
 linear molecules ---------------------------------------
|  Dinfh | S(rot)=       0.01053016 Eh      6.61 kcal/mol|
|  Cinfv | S(rot)=       0.01118462 Eh      7.02 kcal/mol|
 --------------------------------------------------------


-------------------
GIBBS FREE ENERGY
-------------------

The Gibbs free energy is G = H - T*S

Total enthalpy                    ...  -1853.41905474 Eh 
Total entropy correction          ...     -0.07345875 Eh    -46.10 kcal/mol
-----------------------------------------------------------------------
Final Gibbs free energy         ...  -1853.49251349 Eh

For completeness - the Gibbs free energy minus the electronic energy
G-E(el)                           ...      0.05726822 Eh     35.94 kcal/mol


Maximum memory used throughout the entire PROP-calculation: 546.7 MB

--------------------------------
SUGGESTED CITATIONS FOR THIS RUN
--------------------------------

Below you find a list of papers that are relevant to this ORCA run
We neither can nor want to force you to cite these papers, but we appreciate if you do
You receive ORCA, which is the product of decades of hard work by many enthusiastic individuals, for free
The only thing we kindly ask in return is that you cite our papers,
We deeply appreciate it, if you show your appreciation for ORCA by not just citing the generic ORCA reference.

Please note that relegating all ORCA citations to the supporting information does *not* help us.
SI sections are not indexed - citations you put there will not count into any citation statistics
But we need these citations in order to attract the funding resources that allow us to do what we are doing

Therefore, if you are a happy ORCA user, please consider citing a few of the papers listed below in the main body of your paper

In addition to the list printed below, the program has created the file rf_mecn_freq_r2s_C8_P_B.bibtex that contains the list in bibtex format
You can import this file easily into all common literature databanks and citation aid programs


List of essential papers. We consider these as the minimum necessary citations

  1. Neese,F.
     Software update: the ORCA program system, version 5.0
     WIRES Comput. Molec. Sci., 2022 12(1)e1606
     doi.org/10.1002/wcms.1606

List of papers to cite with high priority. The work reported in these papers was absolutely
necessary for this run to complete.
Our perspective: the developers of density functionals and basis sets usually get cited in chemistry papers
Good! But without the algorithms to do something with them, the functionals or basis sets would not do anything.
Hence, in our opinion, the algorithm design and method developments papers are equally worthy of getting cited

  1. Neese,F.
     An improvement of the resolution of the identity approximation for the formation of the Coulomb matrix
     J. Comp. Chem., 2003 24(14)1740-1747
     doi.org/10.1002/jcc.10318
  2. Neese,F.; Wennmohs,F.; Hansen,A.; Becker,U.
     Efficient, approximate and parallel Hartree-Fock and hybrid DFT calculations. A 'chain-of-spheres' algorithm for the Hartree-Fock exchange
     Chem. Phys., 2009 356(1-3)98-109
     doi.org/10.1016/j.chemphys.2008.10.036
  3. Bykov,D.; Petrenko,T.; Izsak,R.; Kossmann,S.; Becker,U.; Valeev,E.; Neese,F.
     Efficient implementation of the analytic second derivatives of Hartree-Fock and hybrid DFT energies: a detailed analysis of different approximations
     Molec. Phys., 2015 113 1961-1977
     doi.org/10.1080/00268976.2015.1025114
  4. Garcia-Rates,M.; Neese,F.
     Efficient implementation of the analytical second derivatives of hartree-fock and hybrid DFT energies within the framework of the conductor-like polarizable continuum model
     J. Comput. Chem., 2019 40 1816-1828
     doi.org/10.1002/jcc.25833
  5. Garcia-Rates,M.; Neese,F.
     Effect of the Solute Cavity on the Solvation Energy and its Derivatives within the Framework of the Gaussian Charge Scheme
     J. Comput. Chem., 2020 41 922-939
     doi.org/10.1002/jcc.26139
  6. Helmich-Paris,B.; de Souza,B.; Neese,F.; Izsák,R.
     An improved chain of spheres for exchange algorithm
     J. Chem. Phys., 2021 155 104109
     doi.org/doi: 10.1063/5.0058766.
  7. Neese,F.
     The SHARK Integral Generation and Digestion System
     J. Comp. Chem., 2022  1-16
     doi.org/10.1002/jcc.26942
  8. Lehtola,S.; Steigemann,C.; Oliveira,M.; Marques,M.
     Recent developments in Libxc - A comprehensive library of functionals for density functional theory
     Software X, 2018 7 
     doi.org/10.1016/j.softx.2017.11.002
  9. Grimme,S.; Antony,J.; Ehrlich,S.; Krieg,H.
     A consistent and accurate ab initio parametrization of density functional dispersion correction (DFT-D) for the 94 elements H-Pu
     J. Chem. Phys., 2010 132 154104
     doi.org/10.1063/1.3382344
 10. Grimme,S.; Ehrlich,S.; Goerigk,L.
     Effect of the damping function in dispersion corrected density functional theory
     J. Comput. Chem., 2011 32(7)1456-1465
     doi.org/10.1002/jcc.21759
 11. Bursch,M.; Neugebauer,H.; Ehlert,S.; Grimme,S.
     Dispersion corrected r2SCAN based global hybrid functionals: r2SCANh, r2SCAN0, and r2SCAN50
     J. Phys. Chem., 2022 156(13)134105
     doi.org/10.1063/5.0086040

List of suggested additional citations. These are papers that are important in the 'surrounding' of 
of this run, or papers that preceded the highly important papers. If you like your results we are grateful for a citation.

  1. Izsak,R.; Neese,F.
     An overlap fitted chain of spheres exchange method
     J. Chem. Phys., 2011 135 144105
     doi.org/10.1063/1.3646921
  2. Izsak,R.; Hansen,A.; Neese,F.
     The resolution of identity and chain of spheres approximations for the LPNO-CCSD singles Fock term
     Molec. Phys., 2012 110 2413-2417
     doi.org/10.1080/00268976.2012.687466
  3. Neese,F.
     The ORCA program system
     WIRES Comput. Molec. Sci., 2012 2(1)73-78
     doi.org/10.1002/wcms.81
  4. Izsak,R.; Neese,F.; Klopper,W.
     Robust fitting techniques in the chain of spheres approximation to the Fock exchange: The role of the complementary space
     J. Chem. Phys., 2013 139 
     doi.org/10.1063/1.4819264
  5. Neese,F.
     Software update: the ORCA program system, version 4.0
     WIRES Comput. Molec. Sci., 2018 8(1)1-6
     doi.org/10.1002/wcms.1327
  6. Neese,F.; Wennmohs,F.; Becker,U.; Riplinger,C.
     The ORCA quantum chemistry program package
     J. Chem. Phys., 2020 152 Art. No. L224108
     doi.org/10.1063/5.0004608
  7. Wittmann,L.; Neugebauer,H.; Grimme,S.; Bursch,M.
     Dispersion-corrected r2SCAN based double-hybrid functionals
     J. Chem. Phys., 2023 159(22)224103
     doi.org/10.1063/5.0174988

List of optional additional citations

  1. Neese,F.
     Approximate second-order SCF convergence for spin unrestricted wavefunctions
     Chem. Phys. Lett., 2000 325(1-3)93-98
     doi.org/10.1016/s0009-2614(00)00662-x

Timings for individual modules:

Sum of individual times          ...     1216.723 sec (=  20.279 min)
Startup calculation              ...        3.737 sec (=   0.062 min)   0.3 %
SCF iterations                   ...       81.726 sec (=   1.362 min)   6.7 %
Property integrals               ...      340.286 sec (=   5.671 min)  28.0 %
SCF Response                     ...      521.788 sec (=   8.696 min)  42.9 %
Property calculations            ...      269.186 sec (=   4.486 min)  22.1 %
                             ****ORCA TERMINATED NORMALLY****
TOTAL RUN TIME: 0 days 0 hours 20 minutes 17 seconds 572 msec
