
                                 *****************
                                 * O   R   C   A *
                                 *****************

                                            #,                                       
                                            ###                                      
                                            ####                                     
                                            #####                                    
                                            ######                                   
                                           ########,                                 
                                     ,,################,,,,,                         
                               ,,#################################,,                 
                          ,,##########################################,,             
                       ,#########################################, ''#####,          
                    ,#############################################,,   '####,        
                  ,##################################################,,,,####,       
                ,###########''''           ''''###############################       
              ,#####''   ,,,,##########,,,,          '''####'''          '####       
            ,##' ,,,,###########################,,,                        '##       
           ' ,,###''''                  '''############,,,                           
         ,,##''                                '''############,,,,        ,,,,,,###''
      ,#''                                            '''#######################'''  
     '                                                          ''''####''''         
             ,#######,   #######,   ,#######,      ##                                
            ,#'     '#,  ##    ##  ,#'     '#,    #''#        ,####,   ,####,        
            ##       ##  ##   ,#'  ##            #'  '#       #'       #'  '#        
            ##       ##  #######   ##           ,######,      #####,   #    #        
            '#,     ,#'  ##    ##  '#,     ,#' ,#      #,     #,   #   #,  ,#        
             '#######'   ##     ##  '#######'  #'      '#     '####' # '####'        



                #########################################################
                #                        -***-                          #
                #          Department of theory and spectroscopy        #
                #                                                       #
                #                      Frank Neese                      #
                #                                                       #
                #     Directorship, Architecture, Infrastructure        #
                #                    SHARK, DRIVERS                     #
                #        Core code/Algorithms in most modules           #
                #                                                       #
                #        Max Planck Institute fuer Kohlenforschung      #
                #                Kaiser Wilhelm Platz 1                 #
                #                 D-45470 Muelheim/Ruhr                 #
                #                      Germany                          #
                #                                                       #
                #                  All rights reserved                  #
                #                        -***-                          #
                #########################################################


                         Program Version 6.0.1  -  RELEASE   -


 With contributions from (in alphabetic order):
[Max-Planck-Institut fuer Kohlenforschung]                               
  Daniel Aravena         : Magnetic Suceptibility                        
  Michael Atanasov       : Ab Initio Ligand Field Theory (pilot matlab implementation)
  Alexander A. Auer      : GIAO ZORA, VPT2 properties, NMR spectrum      
  Ute Becker             : All parallelization in ORCA, NUMFREQ, NUMCALC 
  Giovanni Bistoni       : ED, misc. LED, open-shell LED, HFLD           
  Martin Brehm           : Molecular dynamics                            
  Dmytro Bykov           : pre 5.0 version of the SCF Hessian            
  Marcos Casanova-Páez   : Triplet and SCS-CIS(D). UHF-(DLPNO)-IP/EA/STEOM-CCSD. UHF-CVS-IP/STEOM-CCSD   
  Vijay G. Chilkuri      : MRCI spin determinant printing, contributions to CSF-ICE 
  Pauline Colinet        : FMM embedding                                 
  Dipayan Datta          : RHF DLPNO-CCSD density                        
  Achintya Kumar Dutta   : EOM-CC, STEOM-CC                              
  Nicolas Foglia         : Exact transition moments, OPA infrastructure, MCD improvements    
  Dmitry Ganyushin       : Spin-Orbit,Spin-Spin,Magnetic field MRCI      
  Miquel Garcia-Rates    : C-PCM and meta-GGA Hessian, CCSD/C-PCM, Gaussian charge scheme 
  Tiago L. C. Gouveia    : GS-ROHF, GS-ROCIS                             
  Yang Guo               : DLPNO-NEVPT2, F12-NEVPT2, CIM, IAO-localization        
  Andreas Hansen         : Spin unrestricted coupled pair/coupled cluster methods 
  Ingolf Harden          : AUTO-CI MPn and infrastructure                
  Benjamin Helmich-Paris : MC-RPA, TRAH-(SCF,CASSCF), AVAS, COSX integrals, SCF dyn. polar. 
  Lee Huntington         : MR-EOM, pCC                                   
  Robert Izsak           : Overlap fitted RIJCOSX, COSX-SCS-MP3, EOM     
  Riya Kayal             : Wick's Theorem for AUTO-CI, AUTO-CI UHF-CCSDT 
  Emily Kempfer          : AUTO-CI, RHF CISDT and CCSDT                  
  Christian Kollmar      : KDIIS, OOCD, Brueckner-CCSD(T), CCSD density, CASPT2, CASPT2-K, improved NEVPT2 
  Axel Koslowski         : Symmetry handling                             
  Simone Kossmann        : meta-GGA functionals, TD-DFT gradient, OOMP2, (MP2 Hessian; deprecated post 5.0) 
  Lucas Lang             : DCDCAS                                        
  Marvin Lechner         : AUTO-CI (C++ implementation), FIC-MRCC        
  Spencer Leger          : CASSCF response                               
  Dagmar Lenk            : GEPOL surface, SMD, ORCA-2-JSON               
  Dimitrios Liakos       : Extrapolation schemes; Compound Job, initial MDCI parallelization 
  Dimitrios Manganas     : Further ROCIS development; embedding schemes. LFT, Crystal Embedding 
  Dimitrios Pantazis     : SARC Basis sets                               
  Anastasios Papadopoulos: AUTO-CI, single reference methods and gradients 
  Taras Petrenko         : pre 6.0 DFT Hessian and TD-DFT gradient, (ASA, deprecated), ECA, 1-Electron XAS/XES, NRVS 
  Peter Pinski           : DLPNO-MP2, DLPNO-MP2 Gradient                 
  Christoph Reimann      : Effective Core Potentials                     
  Marius Retegan         : Local ZFS, SOC                                
  Christoph Riplinger    : Optimizer, TS searches, QM/MM, DLPNO-CCSD(T), (RO)-DLPNO pert. Triples 
  Michael Roemelt        : Original ROCIS implementation                 
  Masaaki Saitow         : Open-shell DLPNO-CCSD energy and density      
  Barbara Sandhoefer     : DKH picture change effects                    
  Kantharuban Sivalingam : CASSCF convergence/infrastructure, NEVPT2 and variants, FIC-MRCI 
  Bernardo de Souza      : ESD, SOC TD-DFT                               
  Georgi L. Stoychev     : AutoAux, RI-MP2 NMR, DLPNO-MP2 response, X2C  
  Van Anh Tran           : RI-MP2 g-tensors                              
  Willem Van den Heuvel  : Paramagnetic NMR                              
  Zikuan Wang            : NOTCH, Electric field optimization            
  Frank Wennmohs         : Technical directorship and infrastructure     
  Hang Xu                : AUTO-CI-Response properties                   
                                                                         
[FACCTs GmbH]                                                            
  Markus Bursch, Miquel Garcia-Rates, Christoph Riplinger, Bernardo de Souza, Georgi L. Stoychev 
                                                                 
  APM, Basis sets (HGBS, AHGBS, def-TZVP (Ac-Lr), def2-XVPD (La-Lu)), CI-OPT, improved COSX, DLPNO-Multilevel,           
  DOCKER, DRACO, updates on ESD, GOAT, IRC, LR-CPCM, MBIS, meta-GGA TD-DFT gradient, ML-optimized integration grids, 
  MM, NACMEs, nearIR, NEB, NEB-TS, NL-DFT gradient (VV10), 2- and 3-layer-ONIOM, interface openCOSMO-RS, QMMM,   
  Crystal-QMMM, SF, symmetry and pop. for TD-DFT, r2SCAN hybrids, SOLVATOR                                   
                                                                         
[Other institutions]                                                     
  V. Asgeirsson          : NEB                                           
  Christoph Bannwarth    : sTDA-DFT, sTD-DFT, PBEh-3c, B97-3c, D3        
  Sebastian Ehlert       : rSCAN, r2SCAN, r2SCAN-3c, D4, dhf basis sets  
  Marvin Friede          : D4 for Fr, Ra, Ac-Lr                          
  Lars Goerigk           : TD-DFT with DH, B97 family of functionals     
  Stefan Grimme          : VdW corrections, initial TS optimization, DFT functionals, gCP, sTDA/sTD-DF 
  Waldemar Hujo          : DFT-NL                                        
  H. Jonsson             : NEB                                           
  Holger Kruse           : gCP                                           
  Marcel Mueller         : wB97X-3c, vDZP basis set                      
  Hagen Neugebauer       : wr2SCAN                                       
  Tobias Risthaus        : range-separated hybrid DFT                    
  Lukas Wittmann         : regularized MP2, r2SCAN double-hybrids, wr2SCAN        
                                                                         
We gratefully acknowledge several colleagues who have allowed us to      
interface, adapt or use parts of their codes:                            
  Ed Valeev, F. Pavosevic, A. Kumar             : LibInt (2-el integral package), F12 methods 
  Garnet Chan, S. Sharma, J. Yang, R. Olivares  : DMRG                   
  Ulf Ekstrom                                   : XCFun DFT Library      
  Mihaly Kallay                                 : mrcc  (arbitrary order and MRCC methods)
  Frank Weinhold                                : gennbo (NPA and NBO analysis)           
  Simon Mueller                                 : openCOSMO-RS                            
  Christopher J. Cramer and Donald G. Truhlar   : smd solvation model                     
  S Lehtola, MJT Oliveira, MAL Marques          : LibXC Library                           
  Liviu Ungur et al                             : ANISO software                          


 Your calculation uses the libint2 library for the computation of 2-el integrals
 For citations please refer to: http://libint.valeyev.net

 Your ORCA version has been built with support for libXC version: 6.2.2
 For citations please refer to: https://libxc.gitlab.io

 This ORCA versions uses:
   CBLAS   interface :  Fast vector & matrix operations
   LAPACKE interface :  Fast linear algebra routines
   SCALAPACK package :  Parallel linear algebra routines
   Shared memory     :  Shared parallel matrices
   BLAS/LAPACK       :  OpenBLAS 0.3.27  USE64BITINT DYNAMIC_ARCH NO_AFFINITY SkylakeX SINGLE_THREADED
        Core in use  :  SkylakeX
   Copyright (c) 2011-2014, The OpenBLAS Project


NOTE: MaxCore=8000 MB was set to SCF,MP2,MDCI,CIPSI,MRCI and CIS
      => If you want to overwrite this, your respective input block should be placed after the MaxCore statement
Your calculation utilizes the atom-pairwise dispersion correction
with the Becke-Johnson damping scheme (D3BJ)


Your calculation utilizes the SMD solvation module
Please cite in your paper:
A.V. Marenich, C.J. Cramer, D.G. Truhlar J. Phys. Chem. B, 113, (2009), 6378 

Warning: RI is on but no J-basis has been assigned. Assigning Def2/J (nothing to worry about!)
================================================================================

----- Orbital basis set information -----
Your calculation utilizes the basis: def2-TZVP
   F. Weigend and R. Ahlrichs, Phys. Chem. Chem. Phys. 7, 3297 (2005).

----- AuxJ basis set information -----
Your calculation utilizes the auxiliary basis: def2/J
   F. Weigend, Phys. Chem. Chem. Phys. 8, 1057 (2006).

================================================================================
                                        WARNINGS
                       Please study these warnings very carefully!
================================================================================



WARNING: SCAN, rSCAN, or r2SCAN functional requested.
  ===> : libXC variant has now been activated.



WARNING: your system is open-shell and RHF/RKS was chosen
  ===> : WILL SWITCH to UHF/UKS


================================================================================
                                       INPUT FILE
================================================================================
NAME = rf_mecn_freq_r2s_C7_D_B.inp
|  1> !r2scanh def2-TZVP freq d3 TightSCF SlowConv defgrid2
|  2>  
|  3> %pal
|  4> nprocs 20
|  5> end
|  6>  
|  7> %scf
|  8> MaxIter 1500
|  9> end
| 10>  
| 11> %maxcore 8000
| 12>  
| 13> !CPCM
| 14> %cpcm smd true
| 15> SMDsolvent "ACETONITRILE"
| 16> end
| 17>  
| 18> * xyz -1 2
| 19> 6        4.643923000      0.307222000     -0.665588000
| 20> 8        5.253354000     -0.555945000     -1.304199000
| 21> 8        4.767523000      1.538713000     -0.609232000
| 22> 6        3.486001000     -0.229666000      0.255258000
| 23> 6        2.094213000      0.257248000     -0.210564000
| 24> 6        0.897003000     -0.567243000      0.343474000
| 25> 6       -0.470045000      0.170636000      0.226316000
| 26> 6       -1.713279000     -0.762390000      0.310358000
| 27> 6       -2.986786000     -0.010366000      0.518384000
| 28> 6       -4.040164000      0.205068000     -0.519913000
| 29> 9        3.445731000     -1.587951000      0.293484000
| 30> 9        3.666577000      0.188710000      1.538227000
| 31> 9        1.914024000      1.539959000      0.156301000
| 32> 9        2.048077000      0.187062000     -1.558293000
| 33> 9        0.816407000     -1.730074000     -0.326211000
| 34> 9        1.110906000     -0.834551000      1.643446000
| 35> 9       -0.564695000      1.064898000      1.225485000
| 36> 9       -0.537088000      0.826295000     -0.944652000
| 37> 9       -1.521728000     -1.618837000      1.337876000
| 38> 9       -1.804875000     -1.462669000     -0.836726000
| 39> 9       -3.296580000      0.301969000      1.755820000
| 40> 9       -4.746509000     -0.908197000     -0.774293000
| 41> 9       -4.895620000      1.138798000     -0.110729000
| 42> 9       -3.496173000      0.595641000     -1.675316000
| 43> *
| 44> 
| 45>                          ****END OF INPUT****
================================================================================

                       ****************************
                       * Single Point Calculation *
                       ****************************

---------------------------------
CARTESIAN COORDINATES (ANGSTROEM)
---------------------------------
  C      4.643923    0.307222   -0.665588
  O      5.253354   -0.555945   -1.304199
  O      4.767523    1.538713   -0.609232
  C      3.486001   -0.229666    0.255258
  C      2.094213    0.257248   -0.210564
  C      0.897003   -0.567243    0.343474
  C     -0.470045    0.170636    0.226316
  C     -1.713279   -0.762390    0.310358
  C     -2.986786   -0.010366    0.518384
  C     -4.040164    0.205068   -0.519913
  F      3.445731   -1.587951    0.293484
  F      3.666577    0.188710    1.538227
  F      1.914024    1.539959    0.156301
  F      2.048077    0.187062   -1.558293
  F      0.816407   -1.730074   -0.326211
  F      1.110906   -0.834551    1.643446
  F     -0.564695    1.064898    1.225485
  F     -0.537088    0.826295   -0.944652
  F     -1.521728   -1.618837    1.337876
  F     -1.804875   -1.462669   -0.836726
  F     -3.296580    0.301969    1.755820
  F     -4.746509   -0.908197   -0.774293
  F     -4.895620    1.138798   -0.110729
  F     -3.496173    0.595641   -1.675316

----------------------------
CARTESIAN COORDINATES (A.U.)
----------------------------
  NO LB      ZA    FRAG     MASS         X           Y           Z
   0 C     6.0000    0    12.011    8.775743    0.580565   -1.257779
   1 O     8.0000    0    15.999    9.927400   -1.050584   -2.464579
   2 O     8.0000    0    15.999    9.009313    2.907746   -1.151282
   3 C     6.0000    0    12.011    6.587587   -0.434006    0.482368
   4 C     6.0000    0    12.011    3.957489    0.486128   -0.397908
   5 C     6.0000    0    12.011    1.695090   -1.071934    0.649072
   6 C     6.0000    0    12.011   -0.888256    0.322455    0.427675
   7 C     6.0000    0    12.011   -3.237628   -1.440708    0.586492
   8 C     6.0000    0    12.011   -5.644208   -0.019589    0.979604
   9 C     6.0000    0    12.011   -7.634803    0.387522   -0.982493
  10 F     9.0000    0    18.998    6.511488   -3.000793    0.554604
  11 F     9.0000    0    18.998    6.928826    0.356610    2.906828
  12 F     9.0000    0    18.998    3.616981    2.910101    0.295366
  13 F     9.0000    0    18.998    3.870305    0.353496   -2.944747
  14 F     9.0000    0    18.998    1.542786   -3.269366   -0.616449
  15 F     9.0000    0    18.998    2.099308   -1.577073    3.105663
  16 F     9.0000    0    18.998   -1.067119    2.012366    2.315831
  17 F     9.0000    0    18.998   -1.014949    1.561471   -1.785134
  18 F     9.0000    0    18.998   -2.875649   -3.059159    2.528219
  19 F     9.0000    0    18.998   -3.410719   -2.764044   -1.581183
  20 F     9.0000    0    18.998   -6.229633    0.570639    3.318019
  21 F     9.0000    0    18.998   -8.969602   -1.716244   -1.463202
  22 F     9.0000    0    18.998   -9.251381    2.152016   -0.209247
  23 F     9.0000    0    18.998   -6.606809    1.125598   -3.165888

--------------------------------
INTERNAL COORDINATES (ANGSTROEM)
--------------------------------
 C      0   0   0     0.000000000000     0.00000000     0.00000000
 O      1   0   0     1.234620355806     0.00000000     0.00000000
 O      1   2   0     1.238960468222   132.00571854     0.00000000
 C      1   2   3     1.573845430258   115.29713619   179.85295690
 C      4   1   2     1.546334121729   112.24236014   245.51243774
 C      5   4   1     1.555652692160   114.73983944   161.45152814
 C      6   5   4     1.557886918203   113.42212311   162.59915296
 C      7   6   5     1.556673168393   114.38510793   160.41803739
 C      8   7   6     1.493531048322   112.75033424   166.45840369
 C      9   8   7     1.494683136805   125.22202329   106.65470016
 F      4   1   2     1.359419376499   112.27754606     6.41829464
 F      4   1   2     1.361490221821   110.42257806   125.14102912
 F      5   4   1     1.346256109909   109.77921467   282.95117963
 F      5   4   1     1.350343683117   108.36349712    41.26130908
 F      6   5   4     1.344302662722   109.09718048   283.83771871
 F      6   5   4     1.344297311259   109.10703120    42.36054768
 F      7   6   5     1.344247684657   108.72208065   280.69394824
 F      7   6   5     1.343707388219   109.90304860    39.48503487
 F      8   7   6     1.351290675515   107.92201613    45.36911428
 F      8   7   6     1.347064292494   108.65802542   287.16034895
 F      9   8   7     1.313306258554   116.88011489   275.45023116
 F     10   9   8     1.342755154021   112.50902274    73.36084863
 F     10   9   8     1.330822387358   109.91080068   193.20021340
 F     10   9   8     1.335451073166   110.85974814   313.54912982

---------------------------
INTERNAL COORDINATES (A.U.)
---------------------------
 C      0   0   0     0.000000000000     0.00000000     0.00000000
 O      1   0   0     2.333094351838     0.00000000     0.00000000
 O      1   2   0     2.341295975695   132.00571854     0.00000000
 C      1   2   3     2.974136840311   115.29713619   179.85295690
 C      4   1   2     2.922148001606   112.24236014   245.51243774
 C      5   4   1     2.939757547680   114.73983944   161.45152814
 C      6   5   4     2.943979623023   113.42212311   162.59915296
 C      7   6   5     2.941685968287   114.38510793   160.41803739
 C      8   7   6     2.822364653836   112.75033424   166.45840369
 C      9   8   7     2.824541785552   125.22202329   106.65470016
 F      4   1   2     2.568930322729   112.27754606     6.41829464
 F      4   1   2     2.572843653253   110.42257806   125.14102912
 F      5   4   1     2.544055353846   109.77921467   282.95117963
 F      5   4   1     2.551779747761   108.36349712    41.26130908
 F      6   5   4     2.540363873646   109.09718048   283.83771871
 F      6   5   4     2.540353760845   109.10703120    42.36054768
 F      7   6   5     2.540259980159   108.72208065   280.69394824
 F      7   6   5     2.539238967860   109.90304860    39.48503487
 F      8   7   6     2.553569304045   107.92201613    45.36911428
 F      8   7   6     2.545582597599   108.65802542   287.16034895
 F      9   8   7     2.481789158632   116.88011489   275.45023116
 F     10   9   8     2.537439506011   112.50902274    73.36084863
 F     10   9   8     2.514889844997   109.91080068   193.20021340
 F     10   9   8     2.523636793534   110.85974814   313.54912982

---------------------
BASIS SET INFORMATION
---------------------
There are 3 groups of distinct atoms

 Group   1 Type C   : 11s6p2d1f contracted to 5s3p2d1f pattern {62111/411/11/1}
 Group   2 Type O   : 11s6p2d1f contracted to 5s3p2d1f pattern {62111/411/11/1}
 Group   3 Type F   : 11s6p2d1f contracted to 5s3p2d1f pattern {62111/411/11/1}

Atom   0C    basis set group =>   1
Atom   1O    basis set group =>   2
Atom   2O    basis set group =>   2
Atom   3C    basis set group =>   1
Atom   4C    basis set group =>   1
Atom   5C    basis set group =>   1
Atom   6C    basis set group =>   1
Atom   7C    basis set group =>   1
Atom   8C    basis set group =>   1
Atom   9C    basis set group =>   1
Atom  10F    basis set group =>   3
Atom  11F    basis set group =>   3
Atom  12F    basis set group =>   3
Atom  13F    basis set group =>   3
Atom  14F    basis set group =>   3
Atom  15F    basis set group =>   3
Atom  16F    basis set group =>   3
Atom  17F    basis set group =>   3
Atom  18F    basis set group =>   3
Atom  19F    basis set group =>   3
Atom  20F    basis set group =>   3
Atom  21F    basis set group =>   3
Atom  22F    basis set group =>   3
Atom  23F    basis set group =>   3
---------------------------------
AUXILIARY/J BASIS SET INFORMATION
---------------------------------
There are 3 groups of distinct atoms

 Group   1 Type C   : 12s5p4d2f1g contracted to 6s4p3d1f1g pattern {711111/2111/211/2/1}
 Group   2 Type O   : 12s5p4d2f1g contracted to 6s4p3d1f1g pattern {711111/2111/211/2/1}
 Group   3 Type F   : 12s5p4d2f1g contracted to 6s4p3d1f1g pattern {711111/2111/211/2/1}

Atom   0C    basis set group =>   1
Atom   1O    basis set group =>   2
Atom   2O    basis set group =>   2
Atom   3C    basis set group =>   1
Atom   4C    basis set group =>   1
Atom   5C    basis set group =>   1
Atom   6C    basis set group =>   1
Atom   7C    basis set group =>   1
Atom   8C    basis set group =>   1
Atom   9C    basis set group =>   1
Atom  10F    basis set group =>   3
Atom  11F    basis set group =>   3
Atom  12F    basis set group =>   3
Atom  13F    basis set group =>   3
Atom  14F    basis set group =>   3
Atom  15F    basis set group =>   3
Atom  16F    basis set group =>   3
Atom  17F    basis set group =>   3
Atom  18F    basis set group =>   3
Atom  19F    basis set group =>   3
Atom  20F    basis set group =>   3
Atom  21F    basis set group =>   3
Atom  22F    basis set group =>   3
Atom  23F    basis set group =>   3


           ************************************************************
           *        Program running with 20 parallel MPI-processes    *
           *              working on a common directory               *
           ************************************************************
------------------------------------------------------------------------------
                             ORCA STARTUP CALCULATIONS
                           -- RI-GTO INTEGRALS CHOSEN --
------------------------------------------------------------------------------
------------------------------------------------------------------------------
                   ___                                                        
                  /   \      - P O W E R E D   B Y -                         
                 /     \                                                     
                 |  |  |   _    _      __       _____    __    __             
                 |  |  |  | |  | |    /  \     |  _  \  |  |  /  |          
                  \  \/   | |  | |   /    \    | | | |  |  | /  /          
                 / \  \   | |__| |  /  /\  \   | |_| |  |  |/  /          
                |  |  |   |  __  | /  /__\  \  |    /   |      \           
                |  |  |   | |  | | |   __   |  |    \   |  |\   \          
                \     /   | |  | | |  |  |  |  | |\  \  |  | \   \       
                 \___/    |_|  |_| |__|  |__|  |_| \__\ |__|  \__/        
                                                                              
                      - O R C A' S   B I G   F R I E N D -                    
                                      &                                       
                       - I N T E G R A L  F E E D E R -                       
                                                                              
 v1 FN, 2020, v2 2021, v3 2022-2024                                           
------------------------------------------------------------------------------


----------------------
SHARK INTEGRAL PACKAGE
----------------------

Number of atoms                             ...     24
Number of basis functions                   ...    744
Number of shells                            ...    264
Maximum angular momentum                    ...      3
Integral batch strategy                     ... SHARK/LIBINT Hybrid
RI-J (if used) integral strategy            ... SPLIT-RIJ (Revised 2003 algorithm where possible)
Printlevel                                  ...      1
Contraction scheme used                     ... SEGMENTED contraction
Prescreening option                         ... SCHWARTZ
   Thresh                                   ... 2.500e-11
   Tcut                                     ... 2.500e-12
   Tpresel                                  ... 2.500e-12 
Coulomb Range Separation                    ... NOT USED
Exchange Range Separation                   ... NOT USED
Multipole approximations                    ... NOT USED
Finite Nucleus Model                        ... NOT USED
CABS basis                                  ... NOT available
Auxiliary Coulomb fitting basis             ... AVAILABLE
   # of basis functions in Aux-J            ...   1176
   # of shells in Aux-J                     ...    360
   Maximum angular momentum in Aux-J        ...      4
Auxiliary J/K fitting basis                 ... NOT available
Auxiliary Correlation fitting basis         ... NOT available
Auxiliary 'external' fitting basis          ... NOT available

Checking pre-screening integrals            ... done (  0.0 sec) Dimension = 264
Check shell pair data                       ... done (  0.0 sec)
Shell pair information
Shell pair cut-off parameter TPreSel        ...   2.5e-12
Total number of shell pairs                 ...     34980
Shell pairs after pre-screening             ...     22029
Total number of primitive shell pairs       ...    115968
Primitive shell pairs kept                  ...     46819
          la=0 lb=0:   4094 shell pairs
          la=1 lb=0:   5987 shell pairs
          la=1 lb=1:   2091 shell pairs
          la=2 lb=0:   3279 shell pairs
          la=2 lb=1:   2423 shell pairs
          la=2 lb=2:    688 shell pairs
          la=3 lb=0:   1511 shell pairs
          la=3 lb=1:   1173 shell pairs
          la=3 lb=2:    629 shell pairs
          la=3 lb=3:    154 shell pairs

Calculating one electron integrals          ... done (  0.0 sec)
Calculating RI/J V-Matrix + Cholesky decomp.... done (  0.1 sec)
Calculating Nuclear repulsion               ... done (  0.0 sec) ENN=   2648.712501887183 Eh

Diagonalization of the overlap matrix:
Smallest eigenvalue                        ... 6.265e-05
Time for diagonalization                   ...    0.096 sec
Threshold for overlap eigenvalues          ... 1.000e-07
Number of eigenvalues below threshold      ... 0
Time for construction of square roots      ...    0.045 sec
Total time needed                          ...    0.146 sec

-------------------
DFT GRID GENERATION
-------------------

General Integration Accuracy     IntAcc      ... 4.388
Radial Grid Type                 RadialGrid  ... OptM3 with GC (2021)
Angular Grid (max. ang.)         AngularGrid ... 4 (Lebedev-302)
Angular grid pruning method      GridPruning ... 4 (adaptive)
Weight generation scheme         WeightScheme... mBecke (2022)
Basis function cutoff            BFCut       ... 1.0000e-11
Integration weight cutoff        WCut        ... 1.0000e-14
Partially contracted basis set               ... off
Rotationally invariant grid construction     ... off
Angular grids for H and He will be reduced by one unit

Total number of grid points                  ...   145424
Total number of batches                      ...     2284
Average number of points per batch           ...       63
Average number of grid points per atom       ...     6059

--------------------
COSX GRID GENERATION
--------------------

GRIDX 1
-------
General Integration Accuracy     IntAcc      ... 3.816
Radial Grid Type                 RadialGrid  ... OptM3 with GC (2021)
Angular Grid (max. ang.)         AngularGrid ... 1 (Lebedev-50)
Angular grid pruning method      GridPruning ... 4 (adaptive)
Weight generation scheme         WeightScheme... mBecke (2022)
Basis function cutoff            BFCut       ... 1.0000e-11
Integration weight cutoff        WCut        ... 1.0000e-14
Partially contracted basis set               ... on
Rotationally invariant grid construction     ... off
Angular grids for H and He will be reduced by one unit

Total number of grid points                  ...    18252
Total number of batches                      ...      153
Average number of points per batch           ...      119
Average number of grid points per atom       ...      760
UseSFitting                                  ... on

GRIDX 2
-------
General Integration Accuracy     IntAcc      ... 4.020
Radial Grid Type                 RadialGrid  ... OptM3 with GC (2021)
Angular Grid (max. ang.)         AngularGrid ... 2 (Lebedev-110)
Angular grid pruning method      GridPruning ... 4 (adaptive)
Weight generation scheme         WeightScheme... mBecke (2022)
Basis function cutoff            BFCut       ... 1.0000e-11
Integration weight cutoff        WCut        ... 1.0000e-14
Partially contracted basis set               ... on
Rotationally invariant grid construction     ... off
Angular grids for H and He will be reduced by one unit

Total number of grid points                  ...    43290
Total number of batches                      ...      348
Average number of points per batch           ...      124
Average number of grid points per atom       ...     1804
UseSFitting                                  ... on

GRIDX 3
-------
General Integration Accuracy     IntAcc      ... 4.338
Radial Grid Type                 RadialGrid  ... OptM3 with GC (2021)
Angular Grid (max. ang.)         AngularGrid ... 3 (Lebedev-194)
Angular grid pruning method      GridPruning ... 4 (adaptive)
Weight generation scheme         WeightScheme... mBecke (2022)
Basis function cutoff            BFCut       ... 1.0000e-11
Integration weight cutoff        WCut        ... 1.0000e-14
Partially contracted basis set               ... on
Rotationally invariant grid construction     ... off
Angular grids for H and He will be reduced by one unit

Total number of grid points                  ...    95934
Total number of batches                      ...      759
Average number of points per batch           ...      126
Average number of grid points per atom       ...     3997
UseSFitting                                  ... on
Initializing property integral containers    ... done (  0.0 sec)

SHARK setup successfully completed in   3.1 seconds

Maximum memory used throughout the entire STARTUP-calculation: 57.1 MB


           ************************************************************
           *        Program running with 20 parallel MPI-processes    *
           *              working on a common directory               *
           ************************************************************
-------------------------------------------------------------------------------
                                 ORCA GUESS
                   Start orbitals & Density for SCF / CASSCF
-------------------------------------------------------------------------------

------------
SCF SETTINGS
------------
Hamiltonian:
 Density Functional     Method          .... DFT(GTOs)
  Functional kind                       .... Exchange
  Functional name                       .... Re-regularized SCAN exchange by Furness et al
  Functional family                     .... MGGA
  Functional refs                              
    [ 0] J. W. Furness, A. D. Kaplan, J. Ning, J. P. Perdew, and J. Sun.,  J. Phys. Chem. Lett. 11, 8208-8215 (2020), doi: 10.1021/acs.jpclett.0c02405
    [ 1] J. W. Furness, A. D. Kaplan, J. Ning, J. P. Perdew, and J. Sun.,  J. Phys. Chem. Lett. 11, 9248-9248 (2020), doi: 10.1021/acs.jpclett.0c03077
  Functional external parameters        .... 6
    Parameter  0 _c1        =  6.670000e-01 : c1 parameter        
    Parameter  1 _c2        =  8.000000e-01 : c2 parameter        
    Parameter  2 _d         =  1.240000e+00 : d parameter         
    Parameter  3 _k1        =  6.500000e-02 : k1 parameter        
    Parameter  4 _eta       =  1.000000e-03 : eta parameter       
    Parameter  5 _dp2       =  3.610000e-01 : dp2 parameter       
  Functional kind                       .... Correlation
  Functional name                       .... Re-regularized SCAN correlation by Furness et al
  Functional family                     .... MGGA
  Functional refs                              
    [ 0] J. W. Furness, A. D. Kaplan, J. Ning, J. P. Perdew, and J. Sun.,  J. Phys. Chem. Lett. 11, 8208-8215 (2020), doi: 10.1021/acs.jpclett.0c02405
    [ 1] J. W. Furness, A. D. Kaplan, J. Ning, J. P. Perdew, and J. Sun.,  J. Phys. Chem. Lett. 11, 9248-9248 (2020), doi: 10.1021/acs.jpclett.0c03077
  Functional external parameters        .... 1
    Parameter  0 _eta       =  1.000000e-03 : Regularization parameter
 Gradients option       PostSCFGGA      .... off
 Hybrid DFT is turned on
   Fraction HF Exchange ScalHFX         ....  0.100000
   Scaling of DF-GGA-X  ScalDFX         ....  0.900000
   Scaling of DF-GGA-C  ScalDFC         ....  1.000000
   Scaling of DF-LDA-C  ScalLDAC        ....  1.000000
   Perturbative correction              ....  0.000000
   NL short-range parameter             .... 11.900000
 RI-approximation to the Coulomb term is turned on
   Number of AuxJ basis functions       .... 1176
   RIJ-COSX (HFX calculated with COS-X)).... on


General Settings:
 Integral files         IntName         .... rf_mecn_freq_r2s_C7_D_B
 Hartree-Fock type      HFTyp           .... UHF
 Total Charge           Charge          ....   -1
 Multiplicity           Mult            ....    2
 Number of Electrons    NEL             ....  191
 Basis Dimension        Dim             ....  744
 Nuclear Repulsion      ENuc            ....   2648.7125018872 Eh

Convergence Acceleration:
 AO-DIIS                CNVDIIS         .... on
   Start iteration      DIISMaxIt       ....     0
   Startup error        DIISStart       ....  0.200000
   # of expansion vecs  DIISMaxEq       ....     5
   Bias factor          DIISBfac        ....   1.050
   Max. coefficient     DIISMaxC        ....  10.000
 MO-DIIS                CNVKDIIS        .... off
 Trust-Rad. Augm. Hess. CNVTRAH         .... auto
   Auto Start mean grad. ratio tolernc. ....  1.125000
   Auto Start start iteration           ....    50
   Auto Start num. interpolation iter.  ....    10
   Max. Number of Micro iterations      ....    24
   Max. Number of Macro iterations      .... Maxiter - #DIIS iter
   Number of Davidson start vectors     ....     2
   Converg. threshold    (grad. norm)   ....   1.000e-05
   Grad. Scal. Fac. for Micro threshold ....   0.100
   Minimum threshold for Micro iter.    ....   1.000e-02
   NR start threshold (gradient norm)   ....   1.000e-04
   Initial trust radius                 ....   0.400
   Minimum AH scaling param. (alpha)    ....   1.000
   Maximum AH scaling param. (alpha)    .... 1000.000
   Quad. conv. algorithm                .... NR
   White noise on init. David. guess    .... on
   Maximum white noise                  ....   0.010
   Pseudo random numbers                .... off
   Inactive MOs                         .... canonical
   Orbital update algorithm             .... Taylor
   Preconditioner                       .... Diag
   Full preconditioner red. dimension   ....   250
 SOSCF                  CNVSOSCF        .... on
   Start iteration      SOSCFMaxIt      ....   150
   Startup grad/error   SOSCFStart      ....  0.001000
   Hessian update       SOSCFHessUp     .... L-BFGS
 Level Shifting         CNVShift        .... on
   Level shift para.    LevelShift      ....    0.2500
   Turn off err/grad.   ShiftErr        ....    0.0000
 Zerner damping         CNVZerner       .... off
 Static damping         CNVDamp         .... on
   Fraction old density DampFac         ....    0.8500
   Max. Damping (<1)    DampMax         ....    0.9800
   Min. Damping (>=0)   DampMin         ....    0.0000
   Turn off err/grad.   DampErr         ....    0.0300

SCF Procedure:
 Maximum # iterations   MaxIter         ....  1500
 SCF integral mode      SCFMode         .... Direct
   Integral package                     .... SHARK and LIBINT hybrid scheme
 Reset frequency        DirectResetFreq ....    20
 Integral Threshold     Thresh          ....  2.500e-11 Eh
 Primitive CutOff       TCut            ....  2.500e-12 Eh

Convergence Tolerance:
 Convergence Check Mode ConvCheckMode   .... Total+1el-Energy
 Convergence forced     ConvForced      .... 0
 Energy Change          TolE            ....  1.000e-08 Eh
 1-El. energy change                    ....  1.000e-05 Eh
 Orbital Gradient       TolG            ....  1.000e-05
 Orbital Rotation angle TolX            ....  1.000e-05
 DIIS Error             TolErr          ....  5.000e-07

------------------------------
INITIAL GUESS: MODEL POTENTIAL
------------------------------
Loading Hartree-Fock densities                     ... done
Calculating cut-offs                               ... done
Initializing the effective Hamiltonian             ... done
Setting up the integral package (SHARK)            ... done
Starting the Coulomb interaction                   ... done (   0.2 sec)
Making the grid                                    ... done (   0.4 sec)
Mapping shells                                     ... done
Starting the XC term evaluation                    ... done (   0.1 sec)
  promolecular density results
     # of electrons  =    190.001245416
     EX              =   -197.247747972
     EC              =     -6.680282434
     EX+EC           =   -203.928030406
Transforming the Hamiltonian                       ... done (   0.0 sec)
Diagonalizing the Hamiltonian                      ... done (   0.1 sec)
Back transforming the eigenvectors                 ... done (   0.0 sec)
Now organizing SCF variables                       ... done
                      ------------------
                      INITIAL GUESS DONE (   1.1 sec)
                      ------------------
             **** ENERGY FILE WAS UPDATED (rf_mecn_freq_r2s_C7_D_B.en.tmp) ****
Finished Guess after   1.8 sec
Maximum memory used throughout the entire GUESS-calculation: 46.0 MB


           ************************************************************
           *        Program running with 20 parallel MPI-processes    *
           *              working on a common directory               *
           ************************************************************

-------------------------------------------------------------------------------------------
                                      ORCA LEAN-SCF
                              memory conserving SCF solver
-------------------------------------------------------------------------------------------

--------------------
CPCM SOLVATION MODEL
--------------------
CPCM parameters:
  Epsilon                                         ...      35.6880
  Refrac                                          ...       1.3442
  Rsolv                                           ...       1.3000
  Surface type                                    ... GAUSSIAN VDW
  Discretization scheme                           ... Constant charge density
    Threshold for H atoms                         ...       5.0000 (charges/Ang^2)
    Threshold for non-H atoms                     ...       5.0000 (charges/Ang^2)
  Epsilon function type                           ...         CPCM
Solvent:                                          ... ACETONITRILE
SMD-CDS solvent descriptors:
  Soln                                            ...       1.3442
  Soln25                                          ...       1.3416
  Sola                                            ...       0.0700
  Solb                                            ...       0.3200
  Solg                                            ...      41.2500
  Solc                                            ...       0.0000
  Solh                                            ...       0.0000
Radii:
  Scheme                                          ... Element-dependent radii
  Radius for C  used is    3.4960 Bohr (=   1.8500 Ang.)
  Radius for O  used is    4.0969 Bohr (=   2.1680 Ang.)
  Radius for F  used is    3.2692 Bohr (=   1.7300 Ang.)
Calculating surface                               ...        done! (  0.0s)
Cavity surface points                             ...         2118
Cavity Volume                                     ...    2096.3584
Cavity Surface-area                               ...    1094.9829
Calculating surface distance matrix               ...        done! (  0.0s)
Performing Cholesky decomposition & store         ...        done! (  0.1s)
Overall time for CPCM initialization              ...                 0.1s

----------------------------------------D-I-I-S--------------------------------------------
Iteration    Energy (Eh)           Delta-E    RMSDP     MaxDP     DIISErr   Damp  Time(sec)
-------------------------------------------------------------------------------------------
               ***  Starting incremental Fock matrix formation  ***
    1    -1852.6820143500112863     0.00e+00  2.53e-04  3.35e-02  1.56e-01  0.850   6.9
Warning: op=0 Small HOMO/LUMO gap (   0.067) - skipping pre-diagonalization
         Will do a full diagonalization
    2    -1852.8103746788642638    -1.28e-01  3.37e-04  6.91e-02  1.10e-01  0.850   4.5
                               ***Turning on AO-DIIS***
    3    -1852.8820687882821403    -7.17e-02  1.76e-04  3.39e-02  6.81e-02  0.850   4.0
    4    -1852.9258362102168576    -4.38e-02  9.74e-05  1.41e-02  5.14e-02  0.850   3.9
    5    -1852.9572177166414804    -3.14e-02  6.22e-05  4.56e-03  4.25e-02  0.850   3.8
    6    -1852.9821407506501600    -2.49e-02  4.80e-05  3.65e-03  3.65e-02  0.850   4.3
    7    -1853.0028933617072653    -2.08e-02  4.20e-05  3.48e-03  3.14e-02  0.850   4.3
    8    -1853.0204521792988999    -1.76e-02  3.70e-05  3.08e-03  2.65e-02  0.850   4.3
    9    -1853.0351137009815830    -1.47e-02  2.11e-04  1.75e-02  2.21e-02  0.000   4.2
   10    -1853.1122458552722492    -7.71e-02  1.71e-05  2.95e-03  2.63e-03  0.000   4.8
                              *** Initializing SOSCF ***
---------------------------------------S-O-S-C-F--------------------------------------
Iteration    Energy (Eh)           Delta-E    RMSDP     MaxDP     MaxGrad    Time(sec)
--------------------------------------------------------------------------------------
   11    -1853.1123453111936215    -9.95e-05  9.09e-06  1.44e-03  5.84e-04     4.6
               *** Restarting incremental Fock matrix formation ***
   12    -1853.1123416539080608     3.66e-06  7.40e-06  6.60e-04  3.79e-04     7.9
   13    -1853.1123422831128664    -6.29e-07  5.36e-06  5.98e-04  3.91e-04     5.6
   14    -1853.1123465130344812    -4.23e-06  2.76e-06  2.65e-04  1.28e-04     5.0
   15    -1853.1123464769448219     3.61e-08  1.21e-06  1.40e-04  7.41e-05     4.9
   16    -1853.1123470652187279    -5.88e-07  7.57e-07  6.08e-05  2.07e-05     4.2
   17    -1853.1123470948118666    -2.96e-08  3.73e-07  4.82e-05  2.26e-05     4.4
   18    -1853.1123470995976277    -4.79e-09  2.22e-07  2.34e-05  5.79e-06     3.7
                 **** Energy Check signals convergence ****

               *****************************************************
               *                     SUCCESS                       *
               *           SCF CONVERGED AFTER  18 CYCLES          *
               *****************************************************

Recomputing exchange energy using gridx3       ... done (    8.855 sec)
Old exchange energy                            :    -19.918712319 Eh
New exchange energy                            :    -19.918692194 Eh
Exchange energy change after final integration :      0.000020125 Eh
Total energy after final integration           :  -1853.112326974 Eh

SMD CDS free energy correction energy :                 3.13137     Kcal/mol
Total Energy after SMD CDS correction =             -1853.107336823 Eh
             **** ENERGY FILE WAS UPDATED (rf_mecn_freq_r2s_C7_D_B.en.tmp) ****

----------------
TOTAL SCF ENERGY
----------------

Total Energy       :      -1853.10733682319506 Eh          -50425.61422 eV

Components:
Nuclear Repulsion  :       2648.71250188718341 Eh           72075.13141 eV
Electronic Energy  :      -4501.73973837990161 Eh         -122498.56599 eV
One Electron Energy:      -7872.34931493398108 Eh         -214217.51547 eV
Two Electron Energy:       3370.60957655407947 Eh           91718.94948 eV
CPCM Dielectric    :         -0.08511060687957 Eh              -2.31598 eV
SMD CDS (Gcds)     :          0.00499015097275 Eh               0.13579 eV

Virial components:
Potential Energy   :      -3700.08900577603890 Eh         -100684.54055 eV
Kinetic Energy     :       1846.98166895284385 Eh           50258.92633 eV
Virial Ratio       :          2.00331658292734

DFT components:
N(Alpha)           :       95.999950033583 electrons
N(Beta)            :       94.999942975561 electrons
N(Total)           :      190.999893009144 electrons
E(X)               :     -180.220929197345 Eh       
E(C)               :       -6.650246870532 Eh       
E(XC)              :     -186.871176067876 Eh       

CPCM Solvation Model Properties:
Surface-charge          :          0.99043467666346
Corrected charge        :          1.00000000000000
Outlying charge corr.   :          0.00000504269260 Eh               0.00014 eV
Free-energy (cav+disp)  :          0.00499015097275 Eh               0.13579 eV

---------------
SCF CONVERGENCE
---------------

  Last Energy change         ...    4.7858e-09  Tolerance :   1.0000e-08
  Last MAX-Density change    ...    2.3443e-05  Tolerance :   1.0000e-07
  Last RMS-Density change    ...    2.2194e-07  Tolerance :   5.0000e-09
  Last DIIS Error            ...    5.8372e-04  Tolerance :   5.0000e-07
  Last Orbital Gradient      ...    5.7895e-06  Tolerance :   1.0000e-05
  Last Orbital Rotation      ...    7.1891e-05  Tolerance :   1.0000e-05


----------------------
UHF SPIN CONTAMINATION
----------------------

Warning: in a DFT calculation there is little theoretical justification to 
         calculate <S**2> as in Hartree-Fock theory. We will do it anyways
         but you should keep in mind that the values have only limited relevance

Expectation value of <S**2>     :     0.756898
Ideal value S*(S+1) for S=0.5   :     0.750000
Deviation                       :     0.006898

----------------
ORBITAL ENERGIES
----------------
                 SPIN UP ORBITALS
  NO   OCC          E(Eh)            E(eV) 
   0   1.0000     -24.742709      -673.2833 
   1   1.0000     -24.726058      -672.8302 
   2   1.0000     -24.725308      -672.8098 
   3   1.0000     -24.724929      -672.7995 
   4   1.0000     -24.724213      -672.7800 
   5   1.0000     -24.723134      -672.7507 
   6   1.0000     -24.723103      -672.7498 
   7   1.0000     -24.721005      -672.6928 
   8   1.0000     -24.720549      -672.6803 
   9   1.0000     -24.718890      -672.6352 
  10   1.0000     -24.710683      -672.4119 
  11   1.0000     -24.710582      -672.4091 
  12   1.0000     -24.686186      -671.7453 
  13   1.0000     -24.685742      -671.7332 
  14   1.0000     -19.049300      -518.3578 
  15   1.0000     -19.047436      -518.3071 
  16   1.0000     -10.436472      -283.9908 
  17   1.0000     -10.382340      -282.5178 
  18   1.0000     -10.377045      -282.3738 
  19   1.0000     -10.373847      -282.2867 
  20   1.0000     -10.359049      -281.8840 
  21   1.0000     -10.322080      -280.8781 
  22   1.0000     -10.307040      -280.4688 
  23   1.0000     -10.233447      -278.4662 
  24   1.0000      -1.347917       -36.6787 
  25   1.0000      -1.331132       -36.2219 
  26   1.0000      -1.313841       -35.7514 
  27   1.0000      -1.306364       -35.5480 
  28   1.0000      -1.299307       -35.3560 
  29   1.0000      -1.296911       -35.2907 
  30   1.0000      -1.269458       -34.5437 
  31   1.0000      -1.262411       -34.3519 
  32   1.0000      -1.258650       -34.2496 
  33   1.0000      -1.253021       -34.0964 
  34   1.0000      -1.252298       -34.0768 
  35   1.0000      -1.248671       -33.9781 
  36   1.0000      -1.238993       -33.7147 
  37   1.0000      -1.210924       -32.9509 
  38   1.0000      -1.028964       -27.9995 
  39   1.0000      -0.944616       -25.7043 
  40   1.0000      -0.851176       -23.1617 
  41   1.0000      -0.823713       -22.4144 
  42   1.0000      -0.788310       -21.4510 
  43   1.0000      -0.749751       -20.4018 
  44   1.0000      -0.706975       -19.2378 
  45   1.0000      -0.670350       -18.2411 
  46   1.0000      -0.660600       -17.9758 
  47   1.0000      -0.629432       -17.1277 
  48   1.0000      -0.625412       -17.0183 
  49   1.0000      -0.623246       -16.9594 
  50   1.0000      -0.613189       -16.6857 
  51   1.0000      -0.609616       -16.5885 
  52   1.0000      -0.608249       -16.5513 
  53   1.0000      -0.593516       -16.1504 
  54   1.0000      -0.590263       -16.0619 
  55   1.0000      -0.584253       -15.8983 
  56   1.0000      -0.573475       -15.6050 
  57   1.0000      -0.568103       -15.4589 
  58   1.0000      -0.563777       -15.3411 
  59   1.0000      -0.554444       -15.0872 
  60   1.0000      -0.539784       -14.6883 
  61   1.0000      -0.522070       -14.2063 
  62   1.0000      -0.491114       -13.3639 
  63   1.0000      -0.489096       -13.3090 
  64   1.0000      -0.485684       -13.2161 
  65   1.0000      -0.480712       -13.0808 
  66   1.0000      -0.477243       -12.9864 
  67   1.0000      -0.473884       -12.8950 
  68   1.0000      -0.470484       -12.8025 
  69   1.0000      -0.466523       -12.6947 
  70   1.0000      -0.460625       -12.5342 
  71   1.0000      -0.455289       -12.3890 
  72   1.0000      -0.451863       -12.2958 
  73   1.0000      -0.449533       -12.2324 
  74   1.0000      -0.446306       -12.1446 
  75   1.0000      -0.441745       -12.0205 
  76   1.0000      -0.439691       -11.9646 
  77   1.0000      -0.435577       -11.8526 
  78   1.0000      -0.431669       -11.7463 
  79   1.0000      -0.427118       -11.6225 
  80   1.0000      -0.423586       -11.5264 
  81   1.0000      -0.420076       -11.4309 
  82   1.0000      -0.419112       -11.4046 
  83   1.0000      -0.417779       -11.3683 
  84   1.0000      -0.410592       -11.1728 
  85   1.0000      -0.403082       -10.9684 
  86   1.0000      -0.397676       -10.8213 
  87   1.0000      -0.391699       -10.6587 
  88   1.0000      -0.387802       -10.5526 
  89   1.0000      -0.375336       -10.2134 
  90   1.0000      -0.364781        -9.9262 
  91   1.0000      -0.327815        -8.9203 
  92   1.0000      -0.266166        -7.2427 
  93   1.0000      -0.241622        -6.5749 
  94   1.0000      -0.225329        -6.1315 
  95   1.0000      -0.223167        -6.0727 
  96   0.0000      -0.001976        -0.0538 
  97   0.0000       0.007701         0.2096 
  98   0.0000       0.021983         0.5982 
  99   0.0000       0.049697         1.3523 
 100   0.0000       0.073711         2.0058 
 101   0.0000       0.093152         2.5348 
 102   0.0000       0.107904         2.9362 
 103   0.0000       0.126119         3.4319 
 104   0.0000       0.130930         3.5628 
 105   0.0000       0.136984         3.7275 
 106   0.0000       0.140696         3.8285 

                 SPIN DOWN ORBITALS
  NO   OCC          E(Eh)            E(eV) 
   0   1.0000     -24.737393      -673.1387 
   1   1.0000     -24.726037      -672.8297 
   2   1.0000     -24.725266      -672.8087 
   3   1.0000     -24.724553      -672.7893 
   4   1.0000     -24.723966      -672.7733 
   5   1.0000     -24.722467      -672.7325 
   6   1.0000     -24.722148      -672.7238 
   7   1.0000     -24.721011      -672.6929 
   8   1.0000     -24.720537      -672.6800 
   9   1.0000     -24.717233      -672.5901 
  10   1.0000     -24.710687      -672.4120 
  11   1.0000     -24.710578      -672.4090 
  12   1.0000     -24.686182      -671.7452 
  13   1.0000     -24.685744      -671.7332 
  14   1.0000     -19.049281      -518.3573 
  15   1.0000     -19.047432      -518.3070 
  16   1.0000     -10.437339      -284.0144 
  17   1.0000     -10.383427      -282.5474 
  18   1.0000     -10.376374      -282.3555 
  19   1.0000     -10.373742      -282.2839 
  20   1.0000     -10.359002      -281.8828 
  21   1.0000     -10.322059      -280.8775 
  22   1.0000     -10.289959      -280.0040 
  23   1.0000     -10.233443      -278.4661 
  24   1.0000      -1.346332       -36.6356 
  25   1.0000      -1.330637       -36.2085 
  26   1.0000      -1.312640       -35.7188 
  27   1.0000      -1.305570       -35.5264 
  28   1.0000      -1.297093       -35.2957 
  29   1.0000      -1.291004       -35.1300 
  30   1.0000      -1.269449       -34.5435 
  31   1.0000      -1.261905       -34.3382 
  32   1.0000      -1.257731       -34.2246 
  33   1.0000      -1.251523       -34.0557 
  34   1.0000      -1.250431       -34.0260 
  35   1.0000      -1.248223       -33.9659 
  36   1.0000      -1.238990       -33.7146 
  37   1.0000      -1.210921       -32.9508 
  38   1.0000      -1.028946       -27.9990 
  39   1.0000      -0.944594       -25.7037 
  40   1.0000      -0.838658       -22.8211 
  41   1.0000      -0.815288       -22.1851 
  42   1.0000      -0.782697       -21.2983 
  43   1.0000      -0.748311       -20.3626 
  44   1.0000      -0.703519       -19.1437 
  45   1.0000      -0.664625       -18.0854 
  46   1.0000      -0.660004       -17.9596 
  47   1.0000      -0.627786       -17.0829 
  48   1.0000      -0.621316       -16.9069 
  49   1.0000      -0.621097       -16.9009 
  50   1.0000      -0.612724       -16.6731 
  51   1.0000      -0.607272       -16.5247 
  52   1.0000      -0.605408       -16.4740 
  53   1.0000      -0.592560       -16.1244 
  54   1.0000      -0.589384       -16.0379 
  55   1.0000      -0.582722       -15.8567 
  56   1.0000      -0.572816       -15.5871 
  57   1.0000      -0.566619       -15.4185 
  58   1.0000      -0.563293       -15.3280 
  59   1.0000      -0.553882       -15.0719 
  60   1.0000      -0.539775       -14.6880 
  61   1.0000      -0.491836       -13.3835 
  62   1.0000      -0.489554       -13.3214 
  63   1.0000      -0.487371       -13.2620 
  64   1.0000      -0.483768       -13.1640 
  65   1.0000      -0.478872       -13.0308 
  66   1.0000      -0.476452       -12.9649 
  67   1.0000      -0.471636       -12.8339 
  68   1.0000      -0.468067       -12.7367 
  69   1.0000      -0.465231       -12.6596 
  70   1.0000      -0.459426       -12.5016 
  71   1.0000      -0.454980       -12.3806 
  72   1.0000      -0.451411       -12.2835 
  73   1.0000      -0.446667       -12.1544 
  74   1.0000      -0.444161       -12.0862 
  75   1.0000      -0.441099       -12.0029 
  76   1.0000      -0.437227       -11.8975 
  77   1.0000      -0.434624       -11.8267 
  78   1.0000      -0.431002       -11.7281 
  79   1.0000      -0.426558       -11.6072 
  80   1.0000      -0.423088       -11.5128 
  81   1.0000      -0.419300       -11.4097 
  82   1.0000      -0.418131       -11.3779 
  83   1.0000      -0.417375       -11.3573 
  84   1.0000      -0.409078       -11.1316 
  85   1.0000      -0.401315       -10.9203 
  86   1.0000      -0.397660       -10.8209 
  87   1.0000      -0.389779       -10.6064 
  88   1.0000      -0.387549       -10.5457 
  89   1.0000      -0.375321       -10.2130 
  90   1.0000      -0.362372        -9.8606 
  91   1.0000      -0.325987        -8.8706 
  92   1.0000      -0.241610        -6.5745 
  93   1.0000      -0.225338        -6.1318 
  94   1.0000      -0.223235        -6.0745 
  95   0.0000      -0.121273        -3.3000 
  96   0.0000       0.000372         0.0101 
  97   0.0000       0.011407         0.3104 
  98   0.0000       0.026904         0.7321 
  99   0.0000       0.053290         1.4501 
 100   0.0000       0.083373         2.2687 
 101   0.0000       0.096362         2.6221 
 102   0.0000       0.109149         2.9701 
 103   0.0000       0.126505         3.4424 
 104   0.0000       0.136762         3.7215 
 105   0.0000       0.141503         3.8505 
*Only the first 10 virtual orbitals were printed.

                    ********************************
                    * MULLIKEN POPULATION ANALYSIS *
                    ********************************

--------------------------------------------
MULLIKEN ATOMIC CHARGES AND SPIN POPULATIONS
--------------------------------------------
   0 C :    0.212413    0.000176
   1 O :   -0.508676    0.000588
   2 O :   -0.523383    0.000108
   3 C :    0.343195    0.000567
   4 C :    0.300548    0.001941
   5 C :    0.321882    0.004618
   6 C :    0.301115    0.029659
   7 C :    0.386876   -0.020459
   8 C :    0.137284    0.846771
   9 C :    0.490228   -0.023510
  10 F :   -0.207322   -0.000007
  11 F :   -0.213848    0.000089
  12 F :   -0.179758    0.000019
  13 F :   -0.186633    0.000093
  14 F :   -0.172721   -0.000114
  15 F :   -0.172095    0.000232
  16 F :   -0.172139    0.000452
  17 F :   -0.172688    0.000264
  18 F :   -0.171647    0.016591
  19 F :   -0.170949    0.005984
  20 F :   -0.143312    0.093768
  21 F :   -0.170094    0.027972
  22 F :   -0.162527    0.004028
  23 F :   -0.165749    0.010170
Sum of atomic charges         :   -1.0000000
Sum of atomic spin populations:    1.0000000

-----------------------------------------------------
MULLIKEN REDUCED ORBITAL CHARGES AND SPIN POPULATIONS
-----------------------------------------------------
CHARGE
  0 C s       :     3.017516  s :     3.017516
      pz      :     0.845272  p :     2.495506
      px      :     0.865067
      py      :     0.785168
      dz2     :     0.028956  d :     0.250017
      dxz     :     0.020117
      dyz     :     0.068425
      dx2y2   :     0.056019
      dxy     :     0.076499
      f0      :     0.002606  f :     0.024548
      f+1     :     0.001910
      f-1     :     0.002987
      f+2     :     0.005171
      f-2     :     0.002127
      f+3     :     0.005479
      f-3     :     0.004268

  1 O s       :     3.801750  s :     3.801750
      pz      :     1.515840  p :     4.675977
      px      :     1.569958
      py      :     1.590179
      dz2     :     0.005675  d :     0.029107
      dxz     :     0.004000
      dyz     :     0.006778
      dx2y2   :     0.005853
      dxy     :     0.006801
      f0      :     0.000140  f :     0.001842
      f+1     :     0.000142
      f-1     :     0.000357
      f+2     :     0.000271
      f-2     :     0.000358
      f+3     :     0.000269
      f-3     :     0.000305

  2 O s       :     3.802702  s :     3.802702
      pz      :     1.642087  p :     4.689948
      px      :     1.679809
      py      :     1.368051
      dz2     :     0.003033  d :     0.028917
      dxz     :     0.000294
      dyz     :     0.008515
      dx2y2   :     0.008884
      dxy     :     0.008190
      f0      :     0.000214  f :     0.001816
      f+1     :     0.000033
      f-1     :     0.000259
      f+2     :     0.000338
      f-2     :     0.000030
      f+3     :     0.000494
      f-3     :     0.000448

  3 C s       :     3.114799  s :     3.114799
      pz      :     0.685224  p :     2.261091
      px      :     0.960510
      py      :     0.615357
      dz2     :     0.046571  d :     0.254626
      dxz     :     0.045654
      dyz     :     0.067371
      dx2y2   :     0.041433
      dxy     :     0.053596
      f0      :     0.005627  f :     0.026289
      f+1     :     0.004009
      f-1     :     0.003820
      f+2     :     0.004139
      f-2     :     0.001625
      f+3     :     0.004904
      f-3     :     0.002164

  4 C s       :     3.141817  s :     3.141817
      pz      :     0.623331  p :     2.248502
      px      :     0.953167
      py      :     0.672005
      dz2     :     0.052088  d :     0.281486
      dxz     :     0.059249
      dyz     :     0.073433
      dx2y2   :     0.040719
      dxy     :     0.055997
      f0      :     0.004089  f :     0.027647
      f+1     :     0.005269
      f-1     :     0.007174
      f+2     :     0.002391
      f-2     :     0.001730
      f+3     :     0.004384
      f-3     :     0.002611

  5 C s       :     3.138037  s :     3.138037
      pz      :     0.604099  p :     2.225498
      px      :     0.923971
      py      :     0.697428
      dz2     :     0.067791  d :     0.286779
      dxz     :     0.057397
      dyz     :     0.068168
      dx2y2   :     0.035616
      dxy     :     0.057807
      f0      :     0.003940  f :     0.027804
      f+1     :     0.004345
      f-1     :     0.007828
      f+2     :     0.002471
      f-2     :     0.003367
      f+3     :     0.003423
      f-3     :     0.002430

  6 C s       :     3.139480  s :     3.139480
      pz      :     0.571608  p :     2.241258
      px      :     0.950591
      py      :     0.719058
      dz2     :     0.080320  d :     0.290205
      dxz     :     0.062778
      dyz     :     0.055759
      dx2y2   :     0.034507
      dxy     :     0.056840
      f0      :     0.005847  f :     0.027943
      f+1     :     0.004077
      f-1     :     0.004720
      f+2     :     0.003855
      f-2     :     0.005154
      f+3     :     0.002321
      f-3     :     0.001969

  7 C s       :     3.048675  s :     3.048675
      pz      :     0.582151  p :     2.234436
      px      :     0.928097
      py      :     0.724188
      dz2     :     0.082294  d :     0.302326
      dxz     :     0.063982
      dyz     :     0.054497
      dx2y2   :     0.045134
      dxy     :     0.056419
      f0      :     0.005921  f :     0.027687
      f+1     :     0.003589
      f-1     :     0.004562
      f+2     :     0.004129
      f-2     :     0.004975
      f+3     :     0.002572
      f-3     :     0.001939

  8 C s       :     3.204837  s :     3.204837
      pz      :     0.637258  p :     2.489258
      px      :     0.891115
      py      :     0.960886
      dz2     :     0.033806  d :     0.150595
      dxz     :     0.052329
      dyz     :     0.034322
      dx2y2   :     0.013401
      dxy     :     0.016737
      f0      :     0.004032  f :     0.018026
      f+1     :     0.003759
      f-1     :     0.003497
      f+2     :     0.001982
      f-2     :     0.002029
      f+3     :     0.001360
      f-3     :     0.001366

  9 C s       :     2.998855  s :     2.998855
      pz      :     0.739036  p :     2.115389
      px      :     0.737343
      py      :     0.639010
      dz2     :     0.062699  d :     0.355500
      dxz     :     0.066897
      dyz     :     0.079161
      dx2y2   :     0.080276
      dxy     :     0.066467
      f0      :     0.006404  f :     0.040028
      f+1     :     0.004273
      f-1     :     0.005558
      f+2     :     0.004538
      f-2     :     0.006649
      f+3     :     0.004716
      f-3     :     0.007890

 10 F s       :     3.919957  s :     3.919957
      pz      :     1.898105  p :     5.270776
      px      :     1.907331
      py      :     1.465340
      dz2     :     0.002187  d :     0.015917
      dxz     :     0.000217
      dyz     :     0.003233
      dx2y2   :     0.006384
      dxy     :     0.003896
      f0      :     0.000055  f :     0.000672
      f+1     :     0.000013
      f-1     :     0.000134
      f+2     :     0.000094
      f-2     :     0.000006
      f+3     :     0.000154
      f-3     :     0.000217

 11 F s       :     3.922097  s :     3.922097
      pz      :     1.505946  p :     5.275450
      px      :     1.904627
      py      :     1.864877
      dz2     :     0.006730  d :     0.015636
      dxz     :     0.003730
      dyz     :     0.004044
      dx2y2   :     0.000586
      dxy     :     0.000546
      f0      :     0.000227  f :     0.000665
      f+1     :     0.000140
      f-1     :     0.000198
      f+2     :     0.000049
      f-2     :     0.000044
      f+3     :     0.000003
      f-3     :     0.000004

 12 F s       :     3.924544  s :     3.924544
      pz      :     1.859623  p :     5.237662
      px      :     1.894787
      py      :     1.483252
      dz2     :     0.002205  d :     0.016842
      dxz     :     0.000424
      dyz     :     0.004238
      dx2y2   :     0.005892
      dxy     :     0.004083
      f0      :     0.000069  f :     0.000710
      f+1     :     0.000010
      f-1     :     0.000123
      f+2     :     0.000138
      f-2     :     0.000036
      f+3     :     0.000154
      f-3     :     0.000182

 13 F s       :     3.926951  s :     3.926951
      pz      :     1.446464  p :     5.242386
      px      :     1.905384
      py      :     1.890538
      dz2     :     0.008788  d :     0.016598
      dxz     :     0.004035
      dyz     :     0.003403
      dx2y2   :     0.000231
      dxy     :     0.000140
      f0      :     0.000357  f :     0.000699
      f+1     :     0.000171
      f-1     :     0.000155
      f+2     :     0.000008
      f-2     :     0.000005
      f+3     :     0.000001
      f-3     :     0.000001

 14 F s       :     3.926948  s :     3.926948
      pz      :     1.783889  p :     5.227996
      px      :     1.899224
      py      :     1.544884
      dz2     :     0.002287  d :     0.017062
      dxz     :     0.001032
      dyz     :     0.005898
      dx2y2   :     0.004526
      dxy     :     0.003319
      f0      :     0.000079  f :     0.000715
      f+1     :     0.000004
      f-1     :     0.000140
      f+2     :     0.000198
      f-2     :     0.000080
      f+3     :     0.000101
      f-3     :     0.000114

 15 F s       :     3.926801  s :     3.926801
      pz      :     1.471438  p :     5.227516
      px      :     1.888992
      py      :     1.867085
      dz2     :     0.008010  d :     0.017061
      dxz     :     0.004212
      dyz     :     0.003965
      dx2y2   :     0.000398
      dxy     :     0.000475
      f0      :     0.000300  f :     0.000717
      f+1     :     0.000171
      f-1     :     0.000179
      f+2     :     0.000026
      f-2     :     0.000036
      f+3     :     0.000002
      f-3     :     0.000002

 16 F s       :     3.928618  s :     3.928618
      pz      :     1.646663  p :     5.225698
      px      :     1.897848
      py      :     1.681187
      dz2     :     0.003662  d :     0.017105
      dxz     :     0.002265
      dyz     :     0.006720
      dx2y2   :     0.002341
      dxy     :     0.002116
      f0      :     0.000095  f :     0.000718
      f+1     :     0.000033
      f-1     :     0.000234
      f+2     :     0.000166
      f-2     :     0.000115
      f+3     :     0.000038
      f-3     :     0.000037

 17 F s       :     3.929541  s :     3.929541
      pz      :     1.552514  p :     5.225280
      px      :     1.898245
      py      :     1.774521
      dz2     :     0.005630  d :     0.017151
      dxz     :     0.003115
      dyz     :     0.005960
      dx2y2   :     0.001185
      dxy     :     0.001261
      f0      :     0.000165  f :     0.000716
      f+1     :     0.000081
      f-1     :     0.000263
      f+2     :     0.000095
      f-2     :     0.000089
      f+3     :     0.000013
      f-3     :     0.000010

 18 F s       :     3.928600  s :     3.928600
      pz      :     1.635419  p :     5.225852
      px      :     1.893288
      py      :     1.697145
      dz2     :     0.003706  d :     0.016503
      dxz     :     0.002407
      dyz     :     0.006415
      dx2y2   :     0.002027
      dxy     :     0.001948
      f0      :     0.000094  f :     0.000691
      f+1     :     0.000044
      f-1     :     0.000226
      f+2     :     0.000146
      f-2     :     0.000117
      f+3     :     0.000034
      f-3     :     0.000031

 19 F s       :     3.930144  s :     3.930144
      pz      :     1.563644  p :     5.223238
      px      :     1.899663
      py      :     1.759931
      dz2     :     0.005189  d :     0.016862
      dxz     :     0.002867
      dyz     :     0.006088
      dx2y2   :     0.001311
      dxy     :     0.001407
      f0      :     0.000144  f :     0.000704
      f+1     :     0.000071
      f-1     :     0.000260
      f+2     :     0.000106
      f-2     :     0.000095
      f+3     :     0.000016
      f-3     :     0.000013

 20 F s       :     3.929169  s :     3.929169
      pz      :     1.494966  p :     5.194484
      px      :     1.868467
      py      :     1.831051
      dz2     :     0.007581  d :     0.018865
      dxz     :     0.004768
      dyz     :     0.005288
      dx2y2   :     0.000609
      dxy     :     0.000619
      f0      :     0.000272  f :     0.000794
      f+1     :     0.000196
      f-1     :     0.000211
      f+2     :     0.000053
      f-2     :     0.000055
      f+3     :     0.000004
      f-3     :     0.000003

 21 F s       :     3.922808  s :     3.922808
      pz      :     1.874476  p :     5.230053
      px      :     1.764030
      py      :     1.591547
      dz2     :     0.002249  d :     0.016501
      dxz     :     0.001501
      dyz     :     0.002829
      dx2y2   :     0.003959
      dxy     :     0.005964
      f0      :     0.000069  f :     0.000731
      f+1     :     0.000044
      f-1     :     0.000100
      f+2     :     0.000040
      f-2     :     0.000111
      f+3     :     0.000227
      f-3     :     0.000140

 22 F s       :     3.922831  s :     3.922831
      pz      :     1.853865  p :     5.221818
      px      :     1.699080
      py      :     1.668873
      dz2     :     0.002276  d :     0.017111
      dxz     :     0.002562
      dyz     :     0.002840
      dx2y2   :     0.003325
      dxy     :     0.006107
      f0      :     0.000082  f :     0.000767
      f+1     :     0.000068
      f-1     :     0.000070
      f+2     :     0.000043
      f-2     :     0.000171
      f+3     :     0.000172
      f-3     :     0.000161

 23 F s       :     3.924026  s :     3.924026
      pz      :     1.548922  p :     5.224051
      px      :     1.823818
      py      :     1.851311
      dz2     :     0.005678  d :     0.016922
      dxz     :     0.005201
      dyz     :     0.003803
      dx2y2   :     0.000947
      dxy     :     0.001293
      f0      :     0.000157  f :     0.000750
      f+1     :     0.000222
      f-1     :     0.000147
      f+2     :     0.000081
      f-2     :     0.000115
      f+3     :     0.000014
      f-3     :     0.000014


SPIN
  0 C s       :     0.000196  s :     0.000196
      pz      :     0.000017  p :    -0.000018
      px      :     0.000014
      py      :    -0.000049
      dz2     :     0.000005  d :    -0.000004
      dxz     :     0.000001
      dyz     :     0.000005
      dx2y2   :    -0.000018
      dxy     :     0.000003
      f0      :    -0.000000  f :     0.000002
      f+1     :     0.000000
      f-1     :     0.000000
      f+2     :     0.000000
      f-2     :     0.000001
      f+3     :     0.000001
      f-3     :     0.000000

  1 O s       :     0.000013  s :     0.000013
      pz      :     0.000325  p :     0.000577
      px      :     0.000144
      py      :     0.000108
      dz2     :    -0.000000  d :    -0.000001
      dxz     :    -0.000001
      dyz     :     0.000000
      dx2y2   :    -0.000000
      dxy     :    -0.000000
      f0      :    -0.000000  f :    -0.000000
      f+1     :     0.000000
      f-1     :    -0.000000
      f+2     :    -0.000000
      f-2     :    -0.000000
      f+3     :    -0.000000
      f-3     :    -0.000000

  2 O s       :    -0.000009  s :    -0.000009
      pz      :     0.000107  p :     0.000117
      px      :    -0.000056
      py      :     0.000066
      dz2     :     0.000000  d :    -0.000000
      dxz     :    -0.000000
      dyz     :    -0.000000
      dx2y2   :    -0.000001
      dxy     :     0.000000
      f0      :    -0.000000  f :     0.000000
      f+1     :    -0.000000
      f-1     :    -0.000000
      f+2     :     0.000000
      f-2     :    -0.000000
      f+3     :     0.000000
      f-3     :     0.000000

  3 C s       :    -0.000137  s :    -0.000137
      pz      :    -0.000079  p :     0.000649
      px      :     0.000756
      py      :    -0.000027
      dz2     :    -0.000006  d :     0.000053
      dxz     :     0.000001
      dyz     :    -0.000002
      dx2y2   :     0.000045
      dxy     :     0.000017
      f0      :    -0.000000  f :     0.000002
      f+1     :    -0.000000
      f-1     :     0.000000
      f+2     :     0.000000
      f-2     :     0.000001
      f+3     :     0.000001
      f-3     :     0.000000

  4 C s       :    -0.000141  s :    -0.000141
      pz      :     0.000075  p :     0.001830
      px      :     0.000927
      py      :     0.000829
      dz2     :     0.000026  d :     0.000242
      dxz     :    -0.000005
      dyz     :     0.000010
      dx2y2   :     0.000164
      dxy     :     0.000048
      f0      :    -0.000002  f :     0.000010
      f+1     :     0.000000
      f-1     :    -0.000000
      f+2     :     0.000003
      f-2     :     0.000004
      f+3     :     0.000007
      f-3     :    -0.000001

  5 C s       :    -0.001789  s :    -0.001789
      pz      :     0.000023  p :     0.005875
      px      :     0.002139
      py      :     0.003713
      dz2     :     0.000058  d :     0.000506
      dxz     :     0.000000
      dyz     :     0.000004
      dx2y2   :     0.000438
      dxy     :     0.000006
      f0      :    -0.000001  f :     0.000026
      f+1     :     0.000001
      f-1     :     0.000001
      f+2     :     0.000001
      f-2     :    -0.000001
      f+3     :     0.000023
      f-3     :     0.000000

  6 C s       :    -0.004078  s :    -0.004078
      pz      :     0.001214  p :     0.030584
      px      :     0.017058
      py      :     0.012313
      dz2     :     0.000320  d :     0.003186
      dxz     :     0.000070
      dyz     :    -0.000039
      dx2y2   :     0.002431
      dxy     :     0.000404
      f0      :    -0.000016  f :    -0.000034
      f+1     :     0.000011
      f-1     :    -0.000016
      f+2     :    -0.000009
      f-2     :    -0.000002
      f+3     :     0.000020
      f-3     :    -0.000022

  7 C s       :    -0.003170  s :    -0.003170
      pz      :    -0.005780  p :    -0.038443
      px      :    -0.020410
      py      :    -0.012253
      dz2     :     0.001182  d :     0.019800
      dxz     :     0.000094
      dyz     :    -0.000491
      dx2y2   :     0.014312
      dxy     :     0.004703
      f0      :     0.000051  f :     0.001354
      f+1     :     0.000063
      f-1     :     0.000178
      f+2     :     0.000068
      f-2     :    -0.000009
      f+3     :     0.000982
      f-3     :     0.000022

  8 C s       :     0.065342  s :     0.065342
      pz      :     0.019716  p :     0.782316
      px      :     0.154242
      py      :     0.608358
      dz2     :    -0.000391  d :     0.002147
      dxz     :     0.001551
      dyz     :     0.002041
      dx2y2   :    -0.000442
      dxy     :    -0.000612
      f0      :    -0.000463  f :    -0.003034
      f+1     :    -0.000225
      f-1     :    -0.000626
      f+2     :    -0.000364
      f-2     :    -0.000252
      f+3     :    -0.000323
      f-3     :    -0.000781

  9 C s       :    -0.015774  s :    -0.015774
      pz      :    -0.013756  p :    -0.022348
      px      :    -0.014255
      py      :     0.005663
      dz2     :     0.000957  d :     0.012778
      dxz     :     0.000900
      dyz     :     0.005141
      dx2y2   :    -0.000366
      dxy     :     0.006147
      f0      :     0.000049  f :     0.001835
      f+1     :     0.000080
      f-1     :     0.000187
      f+2     :     0.000302
      f-2     :     0.000811
      f+3     :     0.000224
      f-3     :     0.000181

 10 F s       :     0.000013  s :     0.000013
      pz      :    -0.000004  p :    -0.000022
      px      :    -0.000009
      py      :    -0.000009
      dz2     :     0.000000  d :     0.000002
      dxz     :    -0.000000
      dyz     :    -0.000000
      dx2y2   :     0.000000
      dxy     :     0.000002
      f0      :    -0.000000  f :     0.000000
      f+1     :     0.000000
      f-1     :     0.000000
      f+2     :    -0.000000
      f-2     :     0.000000
      f+3     :     0.000000
      f-3     :     0.000000

 11 F s       :     0.000008  s :     0.000008
      pz      :    -0.000009  p :     0.000080
      px      :     0.000083
      py      :     0.000006
      dz2     :     0.000000  d :     0.000002
      dxz     :     0.000002
      dyz     :     0.000000
      dx2y2   :    -0.000000
      dxy     :    -0.000000
      f0      :    -0.000000  f :     0.000000
      f+1     :     0.000000
      f-1     :     0.000000
      f+2     :    -0.000000
      f-2     :     0.000000
      f+3     :    -0.000000
      f-3     :    -0.000000

 12 F s       :     0.000052  s :     0.000052
      pz      :     0.000001  p :    -0.000037
      px      :     0.000007
      py      :    -0.000045
      dz2     :     0.000001  d :     0.000005
      dxz     :     0.000001
      dyz     :     0.000000
      dx2y2   :     0.000003
      dxy     :     0.000000
      f0      :    -0.000000  f :     0.000000
      f+1     :    -0.000000
      f-1     :     0.000000
      f+2     :     0.000000
      f-2     :     0.000000
      f+3     :     0.000000
[...]
 15:    128.06   0.001135    5.73  0.002765  (-0.041688 -0.007038 -0.031269)
 16:    149.59   0.000212    1.07  0.000443  (-0.018590  0.008976  0.004108)
 17:    167.58   0.001214    6.13  0.002260  (-0.029902 -0.003589  0.036786)
 18:    192.97   0.000459    2.32  0.000743  ( 0.027114  0.002761 -0.000409)
 19:    197.31   0.001751    8.85  0.002769  ( 0.012060  0.020466  0.046951)
 20:    210.18   0.000130    0.66  0.000194  ( 0.007332  0.010174 -0.006022)
 21:    229.79   0.000253    1.28  0.000344  ( 0.014634 -0.011185 -0.002184)
 22:    249.90   0.000013    0.06  0.000016  (-0.000174  0.002322  0.003211)
 23:    251.34   0.000088    0.45  0.000110  ( 0.006732 -0.003411 -0.007264)
 24:    262.24   0.000275    1.39  0.000328  (-0.009277  0.000341 -0.015542)
 25:    271.22   0.000431    2.18  0.000496  (-0.021567  0.003307 -0.004459)
 26:    306.56   0.000385    1.94  0.000392  ( 0.017327 -0.007933 -0.005337)
 27:    315.03   0.000122    0.62  0.000121  (-0.007393  0.008111  0.000828)
 28:    326.87   0.000042    0.21  0.000040  ( 0.002068  0.000171 -0.005993)
 29:    350.90   0.000505    2.55  0.000449  ( 0.015874  0.000494  0.014035)
 30:    355.90   0.000064    0.32  0.000056  (-0.001396 -0.001791 -0.007108)
 31:    366.71   0.000187    0.94  0.000159  ( 0.012534 -0.001411  0.000148)
 32:    372.49   0.000619    3.13  0.000519  ( 0.022480  0.000918  0.003551)
 33:    376.37   0.000005    0.03  0.000004  (-0.001801 -0.000947  0.000397)
 34:    409.94   0.000874    4.42  0.000665  (-0.025464 -0.003710 -0.001779)
 35:    437.34   0.001508    7.62  0.001076  ( 0.032693 -0.002635  0.000561)
 36:    472.50   0.000857    4.33  0.000566  (-0.012187 -0.011913 -0.016608)
 37:    499.77   0.006170   31.18  0.003852  (-0.060110  0.015424  0.001093)
 38:    540.79   0.004049   20.46  0.002337  ( 0.046042 -0.002423  0.014526)
 39:    553.20   0.009478   47.90  0.005346  (-0.073034  0.003504  0.000370)
 40:    558.08   0.004090   20.67  0.002287  ( 0.026400 -0.032886  0.022555)
 41:    570.88   0.004851   24.52  0.002652  ( 0.037283  0.031435 -0.016544)
 42:    585.50   0.001074    5.43  0.000572  ( 0.012827 -0.017483 -0.010107)
 43:    609.41   0.000673    3.40  0.000344  (-0.015002 -0.010852  0.001269)
 44:    636.78   0.001535    7.76  0.000752  ( 0.016385 -0.012888  0.017821)
 45:    662.57   0.048481  245.00  0.022834  ( 0.150266  0.015446 -0.003999)
 46:    679.98   0.000372    1.88  0.000171  ( 0.008700 -0.009302  0.002935)
 47:    723.74   0.001359    6.87  0.000586  (-0.003742 -0.009898  0.021768)
 48:    726.52   0.003412   17.25  0.001466  (-0.028460  0.013814 -0.021563)
 49:    780.09   0.002357   11.91  0.000943  (-0.027279  0.000940  0.014066)
 50:    804.04   0.019239   97.23  0.007467  (-0.054263 -0.028272  0.061020)
 51:    889.48   0.003973   20.08  0.001394  (-0.036847  0.004169 -0.004347)
 52:   1011.28   0.019728   99.70  0.006088  ( 0.051715 -0.031066  0.049478)
 53:   1077.80   0.008497   42.94  0.002460  (-0.040425 -0.023300 -0.016824)
 54:   1098.41   0.084823  428.66  0.024099  (-0.056408 -0.144362  0.008753)
 55:   1106.86   0.053290  269.31  0.015025  ( 0.013184  0.098478  0.071783)
 56:   1129.93   0.048989  247.57  0.013530  ( 0.020863 -0.069719  0.090740)
 57:   1137.72   0.058705  296.67  0.016102  ( 0.020326 -0.121446  0.030653)
 58:   1139.30   0.036436  184.14  0.009980  (-0.017994 -0.088705  0.042284)
 59:   1155.00   0.024070  121.64  0.006503  (-0.003850 -0.078109 -0.019682)
 60:   1163.57   0.014796   74.77  0.003968  (-0.005156 -0.009637  0.062039)
 61:   1170.64   0.158436  800.67  0.042235  ( 0.031296  0.050295  0.196789)
 62:   1177.72   0.015017   75.89  0.003979  (-0.000900  0.039989  0.048778)
 63:   1181.10   0.113928  575.74  0.030101  ( 0.067137 -0.057102 -0.149443)
 64:   1221.53   0.014958   75.59  0.003821  ( 0.001655 -0.002218  0.061756)
 65:   1233.14   0.000885    4.47  0.000224  (-0.008682 -0.011979 -0.002244)
 66:   1287.05   0.003445   17.41  0.000835  ( 0.014110 -0.018669 -0.016963)
 67:   1311.39   0.007724   39.03  0.001838  ( 0.037368  0.020137 -0.006014)
 68:   1354.91   0.039100  197.60  0.009006  ( 0.062701 -0.055667  0.044444)
 69:   1392.19   0.058022  293.22  0.013006  ( 0.103807  0.022505 -0.041514)
 70:   1440.94   0.015131   76.46  0.003277  ( 0.051098 -0.013642 -0.021902)
 71:   1758.85   0.160026  808.71  0.028393  ( 0.037831 -0.155592 -0.052466)

* The epsilon (eps) is given for a Dirac delta lineshape.
** The dipole moment derivative (T) already includes vibrational overlap.

The first frequency considered to be a vibration is 6
The total number of vibrations considered is 66


--------------------------
THERMOCHEMISTRY AT 298.15K
--------------------------

Temperature         ...   298.15 K
Pressure            ...     1.00 atm
Total Mass          ...   394.06 AMU
Quasi RRHO          ...     True
Cut-Off Frequency   ...     1.00 cm^-1

Throughout the following assumptions are being made:
  (1) The electronic state is orbitally nondegenerate
      but the spin degeneracy is treated
  (2) There are no thermally accessible electronically excited states
  (3) Hindered rotations indicated by low frequency modes are not
      treated as such but are treated as vibrations and this may
      cause some error
  (4) All equations used are the standard statistical mechanics
      equations for an ideal gas
  (5) All vibrations are strictly harmonic

freq.      19.09  E(vib)   ...       0.57 
freq.      24.11  E(vib)   ...       0.56 
freq.      30.68  E(vib)   ...       0.55 
freq.      41.69  E(vib)   ...       0.53 
freq.      43.67  E(vib)   ...       0.53 
freq.      58.24  E(vib)   ...       0.51 
freq.      63.39  E(vib)   ...       0.51 
freq.      72.75  E(vib)   ...       0.49 
freq.      99.47  E(vib)   ...       0.46 
freq.     128.06  E(vib)   ...       0.43 
freq.     149.59  E(vib)   ...       0.40 
freq.     167.58  E(vib)   ...       0.38 
freq.     192.97  E(vib)   ...       0.36 
freq.     197.31  E(vib)   ...       0.35 
freq.     210.18  E(vib)   ...       0.34 
freq.     229.79  E(vib)   ...       0.32 
freq.     249.90  E(vib)   ...       0.31 
freq.     251.34  E(vib)   ...       0.30 
freq.     262.24  E(vib)   ...       0.29 
freq.     271.22  E(vib)   ...       0.29 
freq.     306.56  E(vib)   ...       0.26 
freq.     315.03  E(vib)   ...       0.25 
freq.     326.87  E(vib)   ...       0.24 
freq.     350.90  E(vib)   ...       0.23 
freq.     355.90  E(vib)   ...       0.22 
freq.     366.71  E(vib)   ...       0.22 
freq.     372.49  E(vib)   ...       0.21 
freq.     376.37  E(vib)   ...       0.21 
freq.     409.94  E(vib)   ...       0.19 
freq.     437.34  E(vib)   ...       0.17 
freq.     472.50  E(vib)   ...       0.15 
freq.     499.77  E(vib)   ...       0.14 
freq.     540.79  E(vib)   ...       0.12 
freq.     553.20  E(vib)   ...       0.12 
freq.     558.08  E(vib)   ...       0.12 
freq.     570.88  E(vib)   ...       0.11 
freq.     585.50  E(vib)   ...       0.11 
freq.     609.41  E(vib)   ...       0.10 
freq.     636.78  E(vib)   ...       0.09 
freq.     662.57  E(vib)   ...       0.08 
freq.     679.98  E(vib)   ...       0.08 
freq.     723.74  E(vib)   ...       0.06 
freq.     726.52  E(vib)   ...       0.06 
freq.     780.09  E(vib)   ...       0.05 
freq.     804.04  E(vib)   ...       0.05 
freq.     889.48  E(vib)   ...       0.04 
freq.    1011.28  E(vib)   ...       0.02 
freq.    1077.80  E(vib)   ...       0.02 
freq.    1098.41  E(vib)   ...       0.02 
freq.    1106.86  E(vib)   ...       0.02 
freq.    1129.93  E(vib)   ...       0.01 
freq.    1137.72  E(vib)   ...       0.01 
freq.    1139.30  E(vib)   ...       0.01 
freq.    1155.00  E(vib)   ...       0.01 
freq.    1163.57  E(vib)   ...       0.01 
freq.    1170.64  E(vib)   ...       0.01 
freq.    1177.72  E(vib)   ...       0.01 
freq.    1181.10  E(vib)   ...       0.01 
freq.    1221.53  E(vib)   ...       0.01 
freq.    1233.14  E(vib)   ...       0.01 
freq.    1287.05  E(vib)   ...       0.01 
freq.    1311.39  E(vib)   ...       0.01 
freq.    1354.91  E(vib)   ...       0.01 
freq.    1392.19  E(vib)   ...       0.00 
freq.    1440.94  E(vib)   ...       0.00 
freq.    1758.85  E(vib)   ...       0.00 

------------
INNER ENERGY
------------

The inner energy is: U= E(el) + E(ZPE) + E(vib) + E(rot) + E(trans)
    E(el)   - is the total energy from the electronic structure calculation
              = E(kin-el) + E(nuc-el) + E(el-el) + E(nuc-nuc)
    E(ZPE)  - the the zero temperature vibrational energy from the frequency calculation
    E(vib)  - the the finite temperature correction to E(ZPE) due to population
              of excited vibrational states
    E(rot)  - is the rotational thermal energy
    E(trans)- is the translational thermal energy

Summary of contributions to the inner energy U:
Electronic energy                ...  -1853.11543331 Eh
Zero point energy                ...      0.09391523 Eh      58.93 kcal/mol
Thermal vibrational correction   ...      0.01975689 Eh      12.40 kcal/mol
Thermal rotational correction    ...      0.00141627 Eh       0.89 kcal/mol
Thermal translational correction ...      0.00141627 Eh       0.89 kcal/mol
-----------------------------------------------------------------------
Total thermal energy                  -1852.99892865 Eh


Summary of corrections to the electronic energy:
(perhaps to be used in another calculation)
Total thermal correction                  0.02258943 Eh      14.18 kcal/mol
Non-thermal (ZPE) correction              0.09391523 Eh      58.93 kcal/mol
-----------------------------------------------------------------------
Total correction                          0.11650466 Eh      73.11 kcal/mol


--------
ENTHALPY
--------

The enthalpy is H = U + kB*T
                kB is Boltzmann's constant
Total thermal energy              ...  -1852.99892865 Eh 
Thermal Enthalpy correction       ...      0.00094421 Eh       0.59 kcal/mol
-----------------------------------------------------------------------
Total Enthalpy                    ...  -1852.99798445 Eh


Note: Only C1 symmetry has been detected, increase convergence thresholds 
      if your molecule has a higher symmetry. Symmetry factor of 1.0 is   
      used for the rotational entropy correction. 
 

Note: Rotational entropy computed according to Herzberg 
Infrared and Raman Spectra, Chapter V,1, Van Nostrand Reinhold, 1945 
Point Group:  C1, Symmetry Number:   1  
Rotational constants in cm-1:     0.020965     0.004133     0.004054 

Vibrational entropy computed according to the QRRHO of S. Grimme
Chem.Eur.J. 2012 18 9955 using a reference frequency of 100.0 cm-1


-------
ENTROPY
-------

The entropy contributions are T*S = T*(S(el)+S(vib)+S(rot)+S(trans))
     S(el)   - electronic entropy
     S(vib)  - vibrational entropy
     S(rot)  - rotational entropy
     S(trans)- translational entropy
The entropies will be listed as multiplied by the temperature to get
units of energy

Electronic entropy                ...      0.00065446 Eh      0.41 kcal/mol
Vibrational entropy               ...      0.03591053 Eh     22.53 kcal/mol
Rotational entropy                ...      0.01652692 Eh     10.37 kcal/mol
Translational entropy             ...      0.02081341 Eh     13.06 kcal/mol
-----------------------------------------------------------------------
Final entropy term                ...      0.07390532 Eh     46.38 kcal/mol

In case the symmetry of your molecule has not been determined correctly
or in case you have a reason to use a different symmetry number we print 
out the resulting rotational entropy values for sn=1,12:

 non-linear molecules -----------------------------------
|  sn= 1 | S(rot)=       0.01652692 Eh     10.37 kcal/mol|
|  sn= 2 | S(rot)=       0.01587246 Eh      9.96 kcal/mol|
|  sn= 3 | S(rot)=       0.01548963 Eh      9.72 kcal/mol|
|  sn= 4 | S(rot)=       0.01521801 Eh      9.55 kcal/mol|
|  sn= 5 | S(rot)=       0.01500732 Eh      9.42 kcal/mol|
|  sn= 6 | S(rot)=       0.01483518 Eh      9.31 kcal/mol|
|  sn= 7 | S(rot)=       0.01468963 Eh      9.22 kcal/mol|
|  sn= 8 | S(rot)=       0.01456355 Eh      9.14 kcal/mol|
|  sn= 9 | S(rot)=       0.01445234 Eh      9.07 kcal/mol|
|  sn=10 | S(rot)=       0.01435286 Eh      9.01 kcal/mol|
|  sn=11 | S(rot)=       0.01426287 Eh      8.95 kcal/mol|
|  sn=12 | S(rot)=       0.01418072 Eh      8.90 kcal/mol|
 linear molecules ---------------------------------------
|  Dinfh | S(rot)=       0.01052639 Eh      6.61 kcal/mol|
|  Cinfv | S(rot)=       0.01118085 Eh      7.02 kcal/mol|
 --------------------------------------------------------


-------------------
GIBBS FREE ENERGY
-------------------

The Gibbs free energy is G = H - T*S

Total enthalpy                    ...  -1852.99798445 Eh 
Total entropy correction          ...     -0.07390532 Eh    -46.38 kcal/mol
-----------------------------------------------------------------------
Final Gibbs free energy         ...  -1853.07188976 Eh

For completeness - the Gibbs free energy minus the electronic energy
G-E(el)                           ...      0.04354355 Eh     27.32 kcal/mol


Maximum memory used throughout the entire PROP-calculation: 523.5 MB

--------------------------------
SUGGESTED CITATIONS FOR THIS RUN
--------------------------------

Below you find a list of papers that are relevant to this ORCA run
We neither can nor want to force you to cite these papers, but we appreciate if you do
You receive ORCA, which is the product of decades of hard work by many enthusiastic individuals, for free
The only thing we kindly ask in return is that you cite our papers,
We deeply appreciate it, if you show your appreciation for ORCA by not just citing the generic ORCA reference.

Please note that relegating all ORCA citations to the supporting information does *not* help us.
SI sections are not indexed - citations you put there will not count into any citation statistics
But we need these citations in order to attract the funding resources that allow us to do what we are doing

Therefore, if you are a happy ORCA user, please consider citing a few of the papers listed below in the main body of your paper

In addition to the list printed below, the program has created the file rf_mecn_freq_r2s_C7_D_B.bibtex that contains the list in bibtex format
You can import this file easily into all common literature databanks and citation aid programs


List of essential papers. We consider these as the minimum necessary citations

  1. Neese,F.
     Software update: the ORCA program system, version 5.0
     WIRES Comput. Molec. Sci., 2022 12(1)e1606
     doi.org/10.1002/wcms.1606

List of papers to cite with high priority. The work reported in these papers was absolutely
necessary for this run to complete.
Our perspective: the developers of density functionals and basis sets usually get cited in chemistry papers
Good! But without the algorithms to do something with them, the functionals or basis sets would not do anything.
Hence, in our opinion, the algorithm design and method developments papers are equally worthy of getting cited

  1. Neese,F.
     An improvement of the resolution of the identity approximation for the formation of the Coulomb matrix
     J. Comp. Chem., 2003 24(14)1740-1747
     doi.org/10.1002/jcc.10318
  2. Neese,F.; Wennmohs,F.; Hansen,A.; Becker,U.
     Efficient, approximate and parallel Hartree-Fock and hybrid DFT calculations. A 'chain-of-spheres' algorithm for the Hartree-Fock exchange
     Chem. Phys., 2009 356(1-3)98-109
     doi.org/10.1016/j.chemphys.2008.10.036
  3. Bykov,D.; Petrenko,T.; Izsak,R.; Kossmann,S.; Becker,U.; Valeev,E.; Neese,F.
     Efficient implementation of the analytic second derivatives of Hartree-Fock and hybrid DFT energies: a detailed analysis of different approximations
     Molec. Phys., 2015 113 1961-1977
     doi.org/10.1080/00268976.2015.1025114
  4. Garcia-Rates,M.; Neese,F.
     Efficient implementation of the analytical second derivatives of hartree-fock and hybrid DFT energies within the framework of the conductor-like polarizable continuum model
     J. Comput. Chem., 2019 40 1816-1828
     doi.org/10.1002/jcc.25833
  5. Garcia-Rates,M.; Neese,F.
     Effect of the Solute Cavity on the Solvation Energy and its Derivatives within the Framework of the Gaussian Charge Scheme
     J. Comput. Chem., 2020 41 922-939
     doi.org/10.1002/jcc.26139
  6. Helmich-Paris,B.; de Souza,B.; Neese,F.; Izsák,R.
     An improved chain of spheres for exchange algorithm
     J. Chem. Phys., 2021 155 104109
     doi.org/doi: 10.1063/5.0058766.
  7. Neese,F.
     The SHARK Integral Generation and Digestion System
     J. Comp. Chem., 2022  1-16
     doi.org/10.1002/jcc.26942
  8. Lehtola,S.; Steigemann,C.; Oliveira,M.; Marques,M.
     Recent developments in Libxc - A comprehensive library of functionals for density functional theory
     Software X, 2018 7 
     doi.org/10.1016/j.softx.2017.11.002
  9. Grimme,S.; Antony,J.; Ehrlich,S.; Krieg,H.
     A consistent and accurate ab initio parametrization of density functional dispersion correction (DFT-D) for the 94 elements H-Pu
     J. Chem. Phys., 2010 132 154104
     doi.org/10.1063/1.3382344
 10. Grimme,S.; Ehrlich,S.; Goerigk,L.
     Effect of the damping function in dispersion corrected density functional theory
     J. Comput. Chem., 2011 32(7)1456-1465
     doi.org/10.1002/jcc.21759
 11. Bursch,M.; Neugebauer,H.; Ehlert,S.; Grimme,S.
     Dispersion corrected r2SCAN based global hybrid functionals: r2SCANh, r2SCAN0, and r2SCAN50
     J. Phys. Chem., 2022 156(13)134105
     doi.org/10.1063/5.0086040

List of suggested additional citations. These are papers that are important in the 'surrounding' of 
of this run, or papers that preceded the highly important papers. If you like your results we are grateful for a citation.

  1. Izsak,R.; Neese,F.
     An overlap fitted chain of spheres exchange method
     J. Chem. Phys., 2011 135 144105
     doi.org/10.1063/1.3646921
  2. Izsak,R.; Hansen,A.; Neese,F.
     The resolution of identity and chain of spheres approximations for the LPNO-CCSD singles Fock term
     Molec. Phys., 2012 110 2413-2417
     doi.org/10.1080/00268976.2012.687466
  3. Neese,F.
     The ORCA program system
     WIRES Comput. Molec. Sci., 2012 2(1)73-78
     doi.org/10.1002/wcms.81
  4. Izsak,R.; Neese,F.; Klopper,W.
     Robust fitting techniques in the chain of spheres approximation to the Fock exchange: The role of the complementary space
     J. Chem. Phys., 2013 139 
     doi.org/10.1063/1.4819264
  5. Neese,F.
     Software update: the ORCA program system, version 4.0
     WIRES Comput. Molec. Sci., 2018 8(1)1-6
     doi.org/10.1002/wcms.1327
  6. Neese,F.; Wennmohs,F.; Becker,U.; Riplinger,C.
     The ORCA quantum chemistry program package
     J. Chem. Phys., 2020 152 Art. No. L224108
     doi.org/10.1063/5.0004608
  7. Wittmann,L.; Neugebauer,H.; Grimme,S.; Bursch,M.
     Dispersion-corrected r2SCAN based double-hybrid functionals
     J. Chem. Phys., 2023 159(22)224103
     doi.org/10.1063/5.0174988

List of optional additional citations

  1. Neese,F.
     Approximate second-order SCF convergence for spin unrestricted wavefunctions
     Chem. Phys. Lett., 2000 325(1-3)93-98
     doi.org/10.1016/s0009-2614(00)00662-x

Timings for individual modules:

Sum of individual times          ...     1364.471 sec (=  22.741 min)
Startup calculation              ...        3.826 sec (=   0.064 min)   0.3 %
SCF iterations                   ...       99.423 sec (=   1.657 min)   7.3 %
Property integrals               ...      421.600 sec (=   7.027 min)  30.9 %
SCF Response                     ...      576.258 sec (=   9.604 min)  42.2 %
Property calculations            ...      263.364 sec (=   4.389 min)  19.3 %
                             ****ORCA TERMINATED NORMALLY****
TOTAL RUN TIME: 0 days 0 hours 22 minutes 45 seconds 525 msec
