
                                 *****************
                                 * O   R   C   A *
                                 *****************

                                            #,                                       
                                            ###                                      
                                            ####                                     
                                            #####                                    
                                            ######                                   
                                           ########,                                 
                                     ,,################,,,,,                         
                               ,,#################################,,                 
                          ,,##########################################,,             
                       ,#########################################, ''#####,          
                    ,#############################################,,   '####,        
                  ,##################################################,,,,####,       
                ,###########''''           ''''###############################       
              ,#####''   ,,,,##########,,,,          '''####'''          '####       
            ,##' ,,,,###########################,,,                        '##       
           ' ,,###''''                  '''############,,,                           
         ,,##''                                '''############,,,,        ,,,,,,###''
      ,#''                                            '''#######################'''  
     '                                                          ''''####''''         
             ,#######,   #######,   ,#######,      ##                                
            ,#'     '#,  ##    ##  ,#'     '#,    #''#        ,####,   ,####,        
            ##       ##  ##   ,#'  ##            #'  '#       #'       #'  '#        
            ##       ##  #######   ##           ,######,      #####,   #    #        
            '#,     ,#'  ##    ##  '#,     ,#' ,#      #,     #,   #   #,  ,#        
             '#######'   ##     ##  '#######'  #'      '#     '####' # '####'        



                #########################################################
                #                        -***-                          #
                #          Department of theory and spectroscopy        #
                #                                                       #
                #                      Frank Neese                      #
                #                                                       #
                #     Directorship, Architecture, Infrastructure        #
                #                    SHARK, DRIVERS                     #
                #        Core code/Algorithms in most modules           #
                #                                                       #
                #        Max Planck Institute fuer Kohlenforschung      #
                #                Kaiser Wilhelm Platz 1                 #
                #                 D-45470 Muelheim/Ruhr                 #
                #                      Germany                          #
                #                                                       #
                #                  All rights reserved                  #
                #                        -***-                          #
                #########################################################


                         Program Version 6.0.1  -  RELEASE   -


 With contributions from (in alphabetic order):
[Max-Planck-Institut fuer Kohlenforschung]                               
  Daniel Aravena         : Magnetic Suceptibility                        
  Michael Atanasov       : Ab Initio Ligand Field Theory (pilot matlab implementation)
  Alexander A. Auer      : GIAO ZORA, VPT2 properties, NMR spectrum      
  Ute Becker             : All parallelization in ORCA, NUMFREQ, NUMCALC 
  Giovanni Bistoni       : ED, misc. LED, open-shell LED, HFLD           
  Martin Brehm           : Molecular dynamics                            
  Dmytro Bykov           : pre 5.0 version of the SCF Hessian            
  Marcos Casanova-Páez   : Triplet and SCS-CIS(D). UHF-(DLPNO)-IP/EA/STEOM-CCSD. UHF-CVS-IP/STEOM-CCSD   
  Vijay G. Chilkuri      : MRCI spin determinant printing, contributions to CSF-ICE 
  Pauline Colinet        : FMM embedding                                 
  Dipayan Datta          : RHF DLPNO-CCSD density                        
  Achintya Kumar Dutta   : EOM-CC, STEOM-CC                              
  Nicolas Foglia         : Exact transition moments, OPA infrastructure, MCD improvements    
  Dmitry Ganyushin       : Spin-Orbit,Spin-Spin,Magnetic field MRCI      
  Miquel Garcia-Rates    : C-PCM and meta-GGA Hessian, CCSD/C-PCM, Gaussian charge scheme 
  Tiago L. C. Gouveia    : GS-ROHF, GS-ROCIS                             
  Yang Guo               : DLPNO-NEVPT2, F12-NEVPT2, CIM, IAO-localization        
  Andreas Hansen         : Spin unrestricted coupled pair/coupled cluster methods 
  Ingolf Harden          : AUTO-CI MPn and infrastructure                
  Benjamin Helmich-Paris : MC-RPA, TRAH-(SCF,CASSCF), AVAS, COSX integrals, SCF dyn. polar. 
  Lee Huntington         : MR-EOM, pCC                                   
  Robert Izsak           : Overlap fitted RIJCOSX, COSX-SCS-MP3, EOM     
  Riya Kayal             : Wick's Theorem for AUTO-CI, AUTO-CI UHF-CCSDT 
  Emily Kempfer          : AUTO-CI, RHF CISDT and CCSDT                  
  Christian Kollmar      : KDIIS, OOCD, Brueckner-CCSD(T), CCSD density, CASPT2, CASPT2-K, improved NEVPT2 
  Axel Koslowski         : Symmetry handling                             
  Simone Kossmann        : meta-GGA functionals, TD-DFT gradient, OOMP2, (MP2 Hessian; deprecated post 5.0) 
  Lucas Lang             : DCDCAS                                        
  Marvin Lechner         : AUTO-CI (C++ implementation), FIC-MRCC        
  Spencer Leger          : CASSCF response                               
  Dagmar Lenk            : GEPOL surface, SMD, ORCA-2-JSON               
  Dimitrios Liakos       : Extrapolation schemes; Compound Job, initial MDCI parallelization 
  Dimitrios Manganas     : Further ROCIS development; embedding schemes. LFT, Crystal Embedding 
  Dimitrios Pantazis     : SARC Basis sets                               
  Anastasios Papadopoulos: AUTO-CI, single reference methods and gradients 
  Taras Petrenko         : pre 6.0 DFT Hessian and TD-DFT gradient, (ASA, deprecated), ECA, 1-Electron XAS/XES, NRVS 
  Peter Pinski           : DLPNO-MP2, DLPNO-MP2 Gradient                 
  Christoph Reimann      : Effective Core Potentials                     
  Marius Retegan         : Local ZFS, SOC                                
  Christoph Riplinger    : Optimizer, TS searches, QM/MM, DLPNO-CCSD(T), (RO)-DLPNO pert. Triples 
  Michael Roemelt        : Original ROCIS implementation                 
  Masaaki Saitow         : Open-shell DLPNO-CCSD energy and density      
  Barbara Sandhoefer     : DKH picture change effects                    
  Kantharuban Sivalingam : CASSCF convergence/infrastructure, NEVPT2 and variants, FIC-MRCI 
  Bernardo de Souza      : ESD, SOC TD-DFT                               
  Georgi L. Stoychev     : AutoAux, RI-MP2 NMR, DLPNO-MP2 response, X2C  
  Van Anh Tran           : RI-MP2 g-tensors                              
  Willem Van den Heuvel  : Paramagnetic NMR                              
  Zikuan Wang            : NOTCH, Electric field optimization            
  Frank Wennmohs         : Technical directorship and infrastructure     
  Hang Xu                : AUTO-CI-Response properties                   
                                                                         
[FACCTs GmbH]                                                            
  Markus Bursch, Miquel Garcia-Rates, Christoph Riplinger, Bernardo de Souza, Georgi L. Stoychev 
                                                                 
  APM, Basis sets (HGBS, AHGBS, def-TZVP (Ac-Lr), def2-XVPD (La-Lu)), CI-OPT, improved COSX, DLPNO-Multilevel,           
  DOCKER, DRACO, updates on ESD, GOAT, IRC, LR-CPCM, MBIS, meta-GGA TD-DFT gradient, ML-optimized integration grids, 
  MM, NACMEs, nearIR, NEB, NEB-TS, NL-DFT gradient (VV10), 2- and 3-layer-ONIOM, interface openCOSMO-RS, QMMM,   
  Crystal-QMMM, SF, symmetry and pop. for TD-DFT, r2SCAN hybrids, SOLVATOR                                   
                                                                         
[Other institutions]                                                     
  V. Asgeirsson          : NEB                                           
  Christoph Bannwarth    : sTDA-DFT, sTD-DFT, PBEh-3c, B97-3c, D3        
  Sebastian Ehlert       : rSCAN, r2SCAN, r2SCAN-3c, D4, dhf basis sets  
  Marvin Friede          : D4 for Fr, Ra, Ac-Lr                          
  Lars Goerigk           : TD-DFT with DH, B97 family of functionals     
  Stefan Grimme          : VdW corrections, initial TS optimization, DFT functionals, gCP, sTDA/sTD-DF 
  Waldemar Hujo          : DFT-NL                                        
  H. Jonsson             : NEB                                           
  Holger Kruse           : gCP                                           
  Marcel Mueller         : wB97X-3c, vDZP basis set                      
  Hagen Neugebauer       : wr2SCAN                                       
  Tobias Risthaus        : range-separated hybrid DFT                    
  Lukas Wittmann         : regularized MP2, r2SCAN double-hybrids, wr2SCAN        
                                                                         
We gratefully acknowledge several colleagues who have allowed us to      
interface, adapt or use parts of their codes:                            
  Ed Valeev, F. Pavosevic, A. Kumar             : LibInt (2-el integral package), F12 methods 
  Garnet Chan, S. Sharma, J. Yang, R. Olivares  : DMRG                   
  Ulf Ekstrom                                   : XCFun DFT Library      
  Mihaly Kallay                                 : mrcc  (arbitrary order and MRCC methods)
  Frank Weinhold                                : gennbo (NPA and NBO analysis)           
  Simon Mueller                                 : openCOSMO-RS                            
  Christopher J. Cramer and Donald G. Truhlar   : smd solvation model                     
  S Lehtola, MJT Oliveira, MAL Marques          : LibXC Library                           
  Liviu Ungur et al                             : ANISO software                          


 Your calculation uses the libint2 library for the computation of 2-el integrals
 For citations please refer to: http://libint.valeyev.net

 Your ORCA version has been built with support for libXC version: 6.2.2
 For citations please refer to: https://libxc.gitlab.io

 This ORCA versions uses:
   CBLAS   interface :  Fast vector & matrix operations
   LAPACKE interface :  Fast linear algebra routines
   SCALAPACK package :  Parallel linear algebra routines
   Shared memory     :  Shared parallel matrices
   BLAS/LAPACK       :  OpenBLAS 0.3.27  USE64BITINT DYNAMIC_ARCH NO_AFFINITY SkylakeX SINGLE_THREADED
        Core in use  :  SkylakeX
   Copyright (c) 2011-2014, The OpenBLAS Project


NOTE: MaxCore=8000 MB was set to SCF,MP2,MDCI,CIPSI,MRCI and CIS
      => If you want to overwrite this, your respective input block should be placed after the MaxCore statement
Your calculation utilizes the atom-pairwise dispersion correction
with the Becke-Johnson damping scheme (D3BJ)


Your calculation utilizes the SMD solvation module
Please cite in your paper:
A.V. Marenich, C.J. Cramer, D.G. Truhlar J. Phys. Chem. B, 113, (2009), 6378 

Warning: RI is on but no J-basis has been assigned. Assigning Def2/J (nothing to worry about!)
================================================================================

----- Orbital basis set information -----
Your calculation utilizes the basis: def2-TZVP
   F. Weigend and R. Ahlrichs, Phys. Chem. Chem. Phys. 7, 3297 (2005).

----- AuxJ basis set information -----
Your calculation utilizes the auxiliary basis: def2/J
   F. Weigend, Phys. Chem. Chem. Phys. 8, 1057 (2006).

================================================================================
                                        WARNINGS
                       Please study these warnings very carefully!
================================================================================


================================================================================
                                       INPUT FILE
================================================================================
NAME = rf_mecn_2H2O_freq_B3L_con_01.inp
|  1> !B3LYP def2-TZVP freq d3 TightSCF SlowConv defgrid2
|  2>  
|  3> %pal
|  4> nprocs 20
|  5> end
|  6>  
|  7> %scf
|  8> MaxIter 1500
|  9> end
| 10>  
| 11> %maxcore 8000
| 12>  
| 13> !CPCM
| 14> %cpcm smd true
| 15> SMDsolvent "ACETONITRILE"
| 16> end
| 17>  
| 18> * xyz -1 1
| 19> 6        7.418057000     27.544921000      3.038601000
| 20> 6        6.561153000     26.327061000      2.561106000
| 21> 6        7.405969000     25.080944000      2.130351000
| 22> 6        6.563991000     23.756975000      2.054407000
| 23> 6        7.240136000     22.645392000      1.176553000
| 24> 6        6.683882000     21.206524000      1.449355000
| 25> 6        6.972427000     20.170598000      0.323107000
| 26> 6        6.818648000     18.688986000      0.837739000
| 27> 9        8.388493000     27.809862000      2.160435000
| 28> 9        7.963387000     27.304424000      4.230417000
| 29> 9        6.627486000     28.615075000      3.139954000
| 30> 9        5.736146000     25.986896000      3.571368000
| 31> 9        5.822876000     26.732476000      1.511959000
| 32> 9        7.946636000     25.340905000      0.923270000
| 33> 9        8.403174000     24.900333000      3.018839000
| 34> 9        6.397831000     23.296039000      3.309830000
| 35> 9        5.351958000     24.035903000      1.533641000
| 36> 9        7.039541000     22.961545000     -0.119715000
| 37> 9        8.567605000     22.649520000      1.421671000
| 38> 9        7.245728000     20.757342000      2.597407000
| 39> 9        5.348646000     21.289776000      1.639096000
| 40> 9        6.109349000     20.410302000     -0.703867000
| 41> 9        8.226607000     20.405155000     -0.151374000
| 42> 8        7.877138000     18.069393000      1.020731000
| 43> 8        5.641919000     18.328037000      1.007619000
| 44> 8        3.071988000     19.210601000      0.405220000
| 45> 1        2.613362000     18.362625000      0.442175000
| 46> 1        4.007190000     18.993225000      0.598889000
| 47> 1        9.548171000     18.713452000      1.291504000
| 48> 8       10.453921000     18.979179000      1.555231000
| 49> 1       10.650800000     18.437376000      2.328701000
| 50> *
| 51> 
| 52>                          ****END OF INPUT****
================================================================================

                       ****************************
                       * Single Point Calculation *
                       ****************************

---------------------------------
CARTESIAN COORDINATES (ANGSTROEM)
---------------------------------
  C      7.418057   27.544921    3.038601
  C      6.561153   26.327061    2.561106
  C      7.405969   25.080944    2.130351
  C      6.563991   23.756975    2.054407
  C      7.240136   22.645392    1.176553
  C      6.683882   21.206524    1.449355
  C      6.972427   20.170598    0.323107
  C      6.818648   18.688986    0.837739
  F      8.388493   27.809862    2.160435
  F      7.963387   27.304424    4.230417
  F      6.627486   28.615075    3.139954
  F      5.736146   25.986896    3.571368
  F      5.822876   26.732476    1.511959
  F      7.946636   25.340905    0.923270
  F      8.403174   24.900333    3.018839
  F      6.397831   23.296039    3.309830
  F      5.351958   24.035903    1.533641
  F      7.039541   22.961545   -0.119715
  F      8.567605   22.649520    1.421671
  F      7.245728   20.757342    2.597407
  F      5.348646   21.289776    1.639096
  F      6.109349   20.410302   -0.703867
  F      8.226607   20.405155   -0.151374
  O      7.877138   18.069393    1.020731
  O      5.641919   18.328037    1.007619
  O      3.071988   19.210601    0.405220
  H      2.613362   18.362625    0.442175
  H      4.007190   18.993225    0.598889
  H      9.548171   18.713452    1.291504
  O     10.453921   18.979179    1.555231
  H     10.650800   18.437376    2.328701

----------------------------
CARTESIAN COORDINATES (A.U.)
----------------------------
  NO LB      ZA    FRAG     MASS         X           Y           Z
   0 C     6.0000    0    12.011   14.018096   52.052357    5.742124
   1 C     6.0000    0    12.011   12.398782   49.750935    4.839789
   2 C     6.0000    0    12.011   13.995253   47.396115    4.025780
   3 C     6.0000    0    12.011   12.404145   44.894177    3.882267
   4 C     6.0000    0    12.011   13.681874   42.793589    2.223363
   5 C     6.0000    0    12.011   12.630706   40.074523    2.738884
   6 C     6.0000    0    12.011   13.175978   38.116906    0.610584
   7 C     6.0000    0    12.011   12.885377   35.317065    1.583097
   8 F     9.0000    0    18.998   15.851954   52.553023    4.082630
   9 F     9.0000    0    18.998   15.048621   51.597884    7.994330
  10 F     9.0000    0    18.998   12.524133   54.074655    5.933653
  11 F     9.0000    0    18.998   10.839745   49.108117    6.748907
  12 F     9.0000    0    18.998   11.003641   50.517059    2.857188
  13 F     9.0000    0    18.998   15.016966   47.887370    1.744727
  14 F     9.0000    0    18.998   15.879698   47.054810    5.704779
  15 F     9.0000    0    18.998   12.090148   44.023134    6.254672
  16 F     9.0000    0    18.998   10.113735   45.421274    2.898161
  17 F     9.0000    0    18.998   13.302805   43.391032   -0.226229
  18 F     9.0000    0    18.998   16.190427   42.801390    2.686569
  19 F     9.0000    0    18.998   13.692442   39.225692    4.908388
  20 F     9.0000    0    18.998   10.107476   40.231846    3.097443
  21 F     9.0000    0    18.998   11.544996   38.569881   -1.330116
  22 F     9.0000    0    18.998   15.546034   38.560155   -0.286055
  23 O     8.0000    0    15.999   14.885634   34.146204    1.928902
  24 O     8.0000    0    15.999   10.661682   34.634971    1.904124
  25 O     8.0000    0    15.999    5.805216   36.302775    0.765755
  26 H     1.0000    0     1.008    4.938538   34.700332    0.835590
  27 H     1.0000    0     1.008    7.572492   35.891994    1.131736
  28 H     1.0000    0     1.008   18.043428   35.363299    2.440589
  29 O     8.0000    0    15.999   19.755048   35.865451    2.938961
  30 H     1.0000    0     1.008   20.127095   34.841591    4.400607

--------------------------------
INTERNAL COORDINATES (ANGSTROEM)
--------------------------------
 C      0   0   0     0.000000000000     0.00000000     0.00000000
 C      1   0   0     1.563799513953     0.00000000     0.00000000
 C      2   1   0     1.565909167727   114.08581693     0.00000000
 C      3   2   1     1.570855931198   113.25555522   163.37989486
 C      4   3   2     1.569527467816   113.14452881   160.16239921
 C      5   4   3     1.566582447605   113.58618372   161.41447730
 C      6   5   4     1.557188316166   114.78901860   161.22396883
 C      7   6   5     1.575965797474   111.78743421   161.48584435
 F      1   2   3     1.335333399243   110.60580807    49.16861403
 F      1   2   3     1.332534800208   110.90333051   288.03117541
 F      1   2   3     1.334355470018   108.85191296   168.58875966
 F      2   1   3     1.347953295155   107.64152159   121.86030709
 F      2   1   3     1.345408368698   107.70532299   239.19039589
 F      3   2   1     1.347941047291   108.01483839   284.86757509
 F      3   2   1     1.347757052102   108.93386742    42.68444844
 F      4   3   2     1.347649082894   108.01846416   281.40239175
 F      4   3   2     1.348340479637   109.03413406    39.29861402
 F      5   4   3     1.349259723425   107.89952440   282.68601248
 F      5   4   3     1.349916227130   108.65725353    40.32547094
 F      6   5   4     1.354791050880   107.74812611   282.06649168
 F      6   5   4     1.351217124773   108.58665232    38.96467812
 F      7   6   5     1.362731535694   108.10029481   283.27631134
 F      7   6   5     1.361292282359   107.94988277    38.56489971
 O      8   7   6     1.240073642093   115.76152757   254.56942384
 O      8   7   6     1.242511382017   114.21524635    74.00492705
 O     25   8   7     2.783226385700   138.83075010    11.90316584
 H     26  25   8     0.964762549272    98.73937663   156.43959401
 H     26  25   8     0.979470667116     5.84436096   342.39780101
 H     24   8   7     1.811209899514   129.19037141    21.34174093
 O     29  24   8     0.980074401032   171.60322659   126.89983372
 H     30  29  24     0.964659355602   104.60128107     4.12569684

---------------------------
INTERNAL COORDINATES (A.U.)
---------------------------
 C      0   0   0     0.000000000000     0.00000000     0.00000000
 C      1   0   0     2.955152809731     0.00000000     0.00000000
 C      2   1   0     2.959139477600   114.08581693     0.00000000
 C      3   2   1     2.968487505811   113.25555522   163.37989486
 C      4   3   2     2.965977073840   113.14452881   160.16239921
 C      5   4   3     2.960411792181   113.58618372   161.41447730
 C      6   5   4     2.942659456496   114.78901860   161.22396883
 C      7   6   5     2.978143753653   111.78743421   161.48584435
 F      1   2   3     2.523414422047   110.60580807    49.16861403
 F      1   2   3     2.518125836312   110.90333051   288.03117541
 F      1   2   3     2.521566403633   108.85191296   168.58875966
 F      2   1   3     2.547262569159   107.64152159   121.86030709
 F      2   1   3     2.542453355125   107.70532299   239.19039589
 F      3   2   1     2.547239424050   108.01483839   284.86757509
 F      3   2   1     2.546891723533   108.93386742    42.68444844
 F      4   3   2     2.546687691300   108.01846416   281.40239175
 F      4   3   2     2.547994241795   109.03413406    39.29861402
 F      5   4   3     2.549731360804   107.89952440   282.68601248
 F      5   4   3     2.550971973012   108.65725353    40.32547094
 F      6   5   4     2.560184054850   107.74812611   282.06649168
 F      6   5   4     2.553430313286   108.58665232    38.96467812
 F      7   6   5     2.575189396520   108.10029481   283.27631134
 F      7   6   5     2.572469601879   107.94988277    38.56489971
 O      8   7   6     2.343399569449   115.76152757   254.56942384
 O      8   7   6     2.348006230292   114.21524635    74.00492705
 O     25   8   7     5.259535637677   138.83075010    11.90316584
 H     26  25   8     1.823137002387    98.73937663   156.43959401
 H     26  25   8     1.850931317059     5.84436096   342.39780101
 H     24   8   7     3.422690681129   129.19037141    21.34174093
 O     29  24   8     1.852072208817   171.60322659   126.89983372
 H     30  29  24     1.822941994612   104.60128107     4.12569684

---------------------
BASIS SET INFORMATION
---------------------
There are 4 groups of distinct atoms

 Group   1 Type C   : 11s6p2d1f contracted to 5s3p2d1f pattern {62111/411/11/1}
 Group   2 Type F   : 11s6p2d1f contracted to 5s3p2d1f pattern {62111/411/11/1}
 Group   3 Type O   : 11s6p2d1f contracted to 5s3p2d1f pattern {62111/411/11/1}
 Group   4 Type H   : 5s1p contracted to 3s1p pattern {311/1}

Atom   0C    basis set group =>   1
Atom   1C    basis set group =>   1
Atom   2C    basis set group =>   1
Atom   3C    basis set group =>   1
Atom   4C    basis set group =>   1
Atom   5C    basis set group =>   1
Atom   6C    basis set group =>   1
Atom   7C    basis set group =>   1
Atom   8F    basis set group =>   2
Atom   9F    basis set group =>   2
Atom  10F    basis set group =>   2
Atom  11F    basis set group =>   2
Atom  12F    basis set group =>   2
Atom  13F    basis set group =>   2
Atom  14F    basis set group =>   2
Atom  15F    basis set group =>   2
Atom  16F    basis set group =>   2
Atom  17F    basis set group =>   2
Atom  18F    basis set group =>   2
Atom  19F    basis set group =>   2
Atom  20F    basis set group =>   2
Atom  21F    basis set group =>   2
Atom  22F    basis set group =>   2
Atom  23O    basis set group =>   3
Atom  24O    basis set group =>   3
Atom  25O    basis set group =>   3
Atom  26H    basis set group =>   4
Atom  27H    basis set group =>   4
Atom  28H    basis set group =>   4
Atom  29O    basis set group =>   3
Atom  30H    basis set group =>   4
---------------------------------
AUXILIARY/J BASIS SET INFORMATION
---------------------------------
There are 4 groups of distinct atoms

 Group   1 Type C   : 12s5p4d2f1g contracted to 6s4p3d1f1g pattern {711111/2111/211/2/1}
 Group   2 Type F   : 12s5p4d2f1g contracted to 6s4p3d1f1g pattern {711111/2111/211/2/1}
 Group   3 Type O   : 12s5p4d2f1g contracted to 6s4p3d1f1g pattern {711111/2111/211/2/1}
 Group   4 Type H   : 5s2p1d contracted to 3s1p1d pattern {311/2/1}

Atom   0C    basis set group =>   1
Atom   1C    basis set group =>   1
Atom   2C    basis set group =>   1
Atom   3C    basis set group =>   1
Atom   4C    basis set group =>   1
Atom   5C    basis set group =>   1
Atom   6C    basis set group =>   1
Atom   7C    basis set group =>   1
Atom   8F    basis set group =>   2
Atom   9F    basis set group =>   2
Atom  10F    basis set group =>   2
Atom  11F    basis set group =>   2
Atom  12F    basis set group =>   2
Atom  13F    basis set group =>   2
Atom  14F    basis set group =>   2
Atom  15F    basis set group =>   2
Atom  16F    basis set group =>   2
Atom  17F    basis set group =>   2
Atom  18F    basis set group =>   2
Atom  19F    basis set group =>   2
Atom  20F    basis set group =>   2
Atom  21F    basis set group =>   2
Atom  22F    basis set group =>   2
Atom  23O    basis set group =>   3
Atom  24O    basis set group =>   3
Atom  25O    basis set group =>   3
Atom  26H    basis set group =>   4
Atom  27H    basis set group =>   4
Atom  28H    basis set group =>   4
Atom  29O    basis set group =>   3
Atom  30H    basis set group =>   4


           ************************************************************
           *        Program running with 20 parallel MPI-processes    *
           *              working on a common directory               *
           ************************************************************
------------------------------------------------------------------------------
                             ORCA STARTUP CALCULATIONS
                           -- RI-GTO INTEGRALS CHOSEN --
------------------------------------------------------------------------------
------------------------------------------------------------------------------
                   ___                                                        
                  /   \      - P O W E R E D   B Y -                         
                 /     \                                                     
                 |  |  |   _    _      __       _____    __    __             
                 |  |  |  | |  | |    /  \     |  _  \  |  |  /  |          
                  \  \/   | |  | |   /    \    | | | |  |  | /  /          
                 / \  \   | |__| |  /  /\  \   | |_| |  |  |/  /          
                |  |  |   |  __  | /  /__\  \  |    /   |      \           
                |  |  |   | |  | | |   __   |  |    \   |  |\   \          
                \     /   | |  | | |  |  |  |  | |\  \  |  | \   \       
                 \___/    |_|  |_| |__|  |__|  |_| \__\ |__|  \__/        
                                                                              
                      - O R C A' S   B I G   F R I E N D -                    
                                      &                                       
                       - I N T E G R A L  F E E D E R -                       
                                                                              
 v1 FN, 2020, v2 2021, v3 2022-2024                                           
------------------------------------------------------------------------------


----------------------
SHARK INTEGRAL PACKAGE
----------------------

Number of atoms                             ...     31
Number of basis functions                   ...    861
Number of shells                            ...    313
Maximum angular momentum                    ...      3
Integral batch strategy                     ... SHARK/LIBINT Hybrid
RI-J (if used) integral strategy            ... SPLIT-RIJ (Revised 2003 algorithm where possible)
Printlevel                                  ...      1
Contraction scheme used                     ... SEGMENTED contraction
Prescreening option                         ... SCHWARTZ
   Thresh                                   ... 2.500e-11
   Tcut                                     ... 2.500e-12
   Tpresel                                  ... 2.500e-12 
Coulomb Range Separation                    ... NOT USED
Exchange Range Separation                   ... NOT USED
Multipole approximations                    ... NOT USED
Finite Nucleus Model                        ... NOT USED
CABS basis                                  ... NOT available
Auxiliary Coulomb fitting basis             ... AVAILABLE
   # of basis functions in Aux-J            ...   1367
   # of shells in Aux-J                     ...    425
   Maximum angular momentum in Aux-J        ...      4
Auxiliary J/K fitting basis                 ... NOT available
Auxiliary Correlation fitting basis         ... NOT available
Auxiliary 'external' fitting basis          ... NOT available

Checking pre-screening integrals            ... done (  0.0 sec) Dimension = 313
Check shell pair data                       ... done (  0.0 sec)
Shell pair information
Shell pair cut-off parameter TPreSel        ...   2.5e-12
Total number of shell pairs                 ...     49141
Shell pairs after pre-screening             ...     28040
Total number of primitive shell pairs       ...    159936
Primitive shell pairs kept                  ...     58053
          la=0 lb=0:   5677 shell pairs
          la=1 lb=0:   7837 shell pairs
          la=1 lb=1:   2634 shell pairs
          la=2 lb=0:   4088 shell pairs
          la=2 lb=1:   2883 shell pairs
          la=2 lb=2:    784 shell pairs
          la=3 lb=0:   1862 shell pairs
          la=3 lb=1:   1387 shell pairs
          la=3 lb=2:    716 shell pairs
          la=3 lb=3:    172 shell pairs

Calculating one electron integrals          ... done (  0.0 sec)
Calculating RI/J V-Matrix + Cholesky decomp.... done (  0.1 sec)
Calculating Nuclear repulsion               ... done (  0.0 sec) ENN=   3280.338471014237 Eh

Diagonalization of the overlap matrix:
Smallest eigenvalue                        ... 5.858e-05
Time for diagonalization                   ...    0.179 sec
Threshold for overlap eigenvalues          ... 1.000e-07
Number of eigenvalues below threshold      ... 0
Time for construction of square roots      ...    0.078 sec
Total time needed                          ...    0.265 sec

-------------------
DFT GRID GENERATION
-------------------

General Integration Accuracy     IntAcc      ... 4.388
Radial Grid Type                 RadialGrid  ... OptM3 with GC (2021)
Angular Grid (max. ang.)         AngularGrid ... 4 (Lebedev-302)
Angular grid pruning method      GridPruning ... 4 (adaptive)
Weight generation scheme         WeightScheme... mBecke (2022)
Basis function cutoff            BFCut       ... 1.0000e-11
Integration weight cutoff        WCut        ... 1.0000e-14
Partially contracted basis set               ... off
Rotationally invariant grid construction     ... off
Angular grids for H and He will be reduced by one unit

Total number of grid points                  ...   176624
Total number of batches                      ...     2777
Average number of points per batch           ...       63
Average number of grid points per atom       ...     5698

--------------------
COSX GRID GENERATION
--------------------

GRIDX 1
-------
General Integration Accuracy     IntAcc      ... 3.816
Radial Grid Type                 RadialGrid  ... OptM3 with GC (2021)
Angular Grid (max. ang.)         AngularGrid ... 1 (Lebedev-50)
Angular grid pruning method      GridPruning ... 4 (adaptive)
Weight generation scheme         WeightScheme... mBecke (2022)
Basis function cutoff            BFCut       ... 1.0000e-11
Integration weight cutoff        WCut        ... 1.0000e-14
Partially contracted basis set               ... on
Rotationally invariant grid construction     ... off
Angular grids for H and He will be reduced by one unit

Total number of grid points                  ...    22278
Total number of batches                      ...      188
Average number of points per batch           ...      118
Average number of grid points per atom       ...      719
UseSFitting                                  ... on

GRIDX 2
-------
General Integration Accuracy     IntAcc      ... 4.020
Radial Grid Type                 RadialGrid  ... OptM3 with GC (2021)
Angular Grid (max. ang.)         AngularGrid ... 2 (Lebedev-110)
Angular grid pruning method      GridPruning ... 4 (adaptive)
Weight generation scheme         WeightScheme... mBecke (2022)
Basis function cutoff            BFCut       ... 1.0000e-11
Integration weight cutoff        WCut        ... 1.0000e-14
Partially contracted basis set               ... on
Rotationally invariant grid construction     ... off
Angular grids for H and He will be reduced by one unit

Total number of grid points                  ...    51614
Total number of batches                      ...      419
Average number of points per batch           ...      123
Average number of grid points per atom       ...     1665
UseSFitting                                  ... on

GRIDX 3
-------
General Integration Accuracy     IntAcc      ... 4.338
Radial Grid Type                 RadialGrid  ... OptM3 with GC (2021)
Angular Grid (max. ang.)         AngularGrid ... 3 (Lebedev-194)
Angular grid pruning method      GridPruning ... 4 (adaptive)
Weight generation scheme         WeightScheme... mBecke (2022)
Basis function cutoff            BFCut       ... 1.0000e-11
Integration weight cutoff        WCut        ... 1.0000e-14
Partially contracted basis set               ... on
Rotationally invariant grid construction     ... off
Angular grids for H and He will be reduced by one unit

Total number of grid points                  ...   114038
Total number of batches                      ...      904
Average number of points per batch           ...      126
Average number of grid points per atom       ...     3679
UseSFitting                                  ... on
Initializing property integral containers    ... done (  0.0 sec)

SHARK setup successfully completed in   3.9 seconds

Maximum memory used throughout the entire STARTUP-calculation: 68.9 MB


           ************************************************************
           *        Program running with 20 parallel MPI-processes    *
           *              working on a common directory               *
           ************************************************************
-------------------------------------------------------------------------------
                                 ORCA GUESS
                   Start orbitals & Density for SCF / CASSCF
-------------------------------------------------------------------------------

------------
SCF SETTINGS
------------
Hamiltonian:
 Density Functional     Method          .... DFT(GTOs)
 Exchange Functional    Exchange        .... B88
   X-Alpha parameter    XAlpha          ....  0.666667
   Becke's b parameter  XBeta           ....  0.004200
 Correlation Functional Correlation     .... LYP
 LDA part of GGA corr.  LDAOpt          .... VWN-5
 Gradients option       PostSCFGGA      .... off
 Hybrid DFT is turned on
   Fraction HF Exchange ScalHFX         ....  0.200000
   Scaling of DF-GGA-X  ScalDFX         ....  0.720000
   Scaling of DF-GGA-C  ScalDFC         ....  0.810000
   Scaling of DF-LDA-C  ScalLDAC        ....  1.000000
   Perturbative correction              ....  0.000000
   NL short-range parameter             ....  4.800000
 RI-approximation to the Coulomb term is turned on
   Number of AuxJ basis functions       .... 1367
   RIJ-COSX (HFX calculated with COS-X)).... on


General Settings:
 Integral files         IntName         .... rf_mecn_2H2O_freq_B3L_con_01
 Hartree-Fock type      HFTyp           .... RHF
 Total Charge           Charge          ....   -1
 Multiplicity           Mult            ....    1
 Number of Electrons    NEL             ....  220
 Basis Dimension        Dim             ....  861
 Nuclear Repulsion      ENuc            ....   3280.3384710142 Eh

Convergence Acceleration:
 AO-DIIS                CNVDIIS         .... on
   Start iteration      DIISMaxIt       ....     0
   Startup error        DIISStart       ....  0.200000
   # of expansion vecs  DIISMaxEq       ....     5
   Bias factor          DIISBfac        ....   1.050
   Max. coefficient     DIISMaxC        ....  10.000
 MO-DIIS                CNVKDIIS        .... off
 Trust-Rad. Augm. Hess. CNVTRAH         .... auto
   Auto Start mean grad. ratio tolernc. ....  1.125000
   Auto Start start iteration           ....    50
   Auto Start num. interpolation iter.  ....    10
   Max. Number of Micro iterations      ....    24
   Max. Number of Macro iterations      .... Maxiter - #DIIS iter
   Number of Davidson start vectors     ....     2
   Converg. threshold    (grad. norm)   ....   1.000e-05
   Grad. Scal. Fac. for Micro threshold ....   0.100
   Minimum threshold for Micro iter.    ....   1.000e-02
   NR start threshold (gradient norm)   ....   1.000e-04
   Initial trust radius                 ....   0.400
   Minimum AH scaling param. (alpha)    ....   1.000
   Maximum AH scaling param. (alpha)    .... 1000.000
   Quad. conv. algorithm                .... NR
   White noise on init. David. guess    .... on
   Maximum white noise                  ....   0.010
   Pseudo random numbers                .... off
   Inactive MOs                         .... canonical
   Orbital update algorithm             .... Taylor
   Preconditioner                       .... Diag
   Full preconditioner red. dimension   ....   250
 SOSCF                  CNVSOSCF        .... on
   Start iteration      SOSCFMaxIt      ....   150
   Startup grad/error   SOSCFStart      ....  0.001000
   Hessian update       SOSCFHessUp     .... L-BFGS
 Level Shifting         CNVShift        .... on
   Level shift para.    LevelShift      ....    0.2500
   Turn off err/grad.   ShiftErr        ....    0.0000
 Zerner damping         CNVZerner       .... off
 Static damping         CNVDamp         .... on
   Fraction old density DampFac         ....    0.8500
   Max. Damping (<1)    DampMax         ....    0.9800
   Min. Damping (>=0)   DampMin         ....    0.0000
   Turn off err/grad.   DampErr         ....    0.0300

SCF Procedure:
 Maximum # iterations   MaxIter         ....  1500
 SCF integral mode      SCFMode         .... Direct
   Integral package                     .... SHARK and LIBINT hybrid scheme
 Reset frequency        DirectResetFreq ....    20
 Integral Threshold     Thresh          ....  2.500e-11 Eh
 Primitive CutOff       TCut            ....  2.500e-12 Eh

Convergence Tolerance:
 Convergence Check Mode ConvCheckMode   .... Total+1el-Energy
 Convergence forced     ConvForced      .... 0
 Energy Change          TolE            ....  1.000e-08 Eh
 1-El. energy change                    ....  1.000e-05 Eh
 Orbital Gradient       TolG            ....  1.000e-05
 Orbital Rotation angle TolX            ....  1.000e-05
 DIIS Error             TolErr          ....  5.000e-07

------------------------------
INITIAL GUESS: MODEL POTENTIAL
------------------------------
Loading Hartree-Fock densities                     ... done
Calculating cut-offs                               ... done
Initializing the effective Hamiltonian             ... done
Setting up the integral package (SHARK)            ... done
Starting the Coulomb interaction                   ... done (   0.2 sec)
Making the grid                                    ... done (   0.5 sec)
Mapping shells                                     ... done
Starting the XC term evaluation                    ... done (   0.1 sec)
  promolecular density results
     # of electrons  =    218.995615197
     EX              =   -225.925571139
     EC              =     -8.186328902
     EX+EC           =   -234.111900041
Transforming the Hamiltonian                       ... done (   0.1 sec)
Diagonalizing the Hamiltonian                      ... done (   0.2 sec)
Back transforming the eigenvectors                 ... done (   0.0 sec)
Now organizing SCF variables                       ... done
                      ------------------
                      INITIAL GUESS DONE (   1.3 sec)
                      ------------------
             **** ENERGY FILE WAS UPDATED (rf_mecn_2H2O_freq_B3L_con_01.en.tmp) ****
Finished Guess after   2.0 sec
Maximum memory used throughout the entire GUESS-calculation: 57.6 MB


           ************************************************************
           *        Program running with 20 parallel MPI-processes    *
           *              working on a common directory               *
           ************************************************************

-------------------------------------------------------------------------------------------
                                      ORCA LEAN-SCF
                              memory conserving SCF solver
-------------------------------------------------------------------------------------------

--------------------
CPCM SOLVATION MODEL
--------------------
CPCM parameters:
  Epsilon                                         ...      35.6880
  Refrac                                          ...       1.3442
  Rsolv                                           ...       1.3000
  Surface type                                    ... GAUSSIAN VDW
  Discretization scheme                           ... Constant charge density
    Threshold for H atoms                         ...       5.0000 (charges/Ang^2)
    Threshold for non-H atoms                     ...       5.0000 (charges/Ang^2)
  Epsilon function type                           ...         CPCM
Solvent:                                          ... ACETONITRILE
SMD-CDS solvent descriptors:
  Soln                                            ...       1.3442
  Soln25                                          ...       1.3416
  Sola                                            ...       0.0700
  Solb                                            ...       0.3200
  Solg                                            ...      41.2500
  Solc                                            ...       0.0000
  Solh                                            ...       0.0000
Radii:
  Scheme                                          ... Element-dependent radii
  Radius for C  used is    3.4960 Bohr (=   1.8500 Ang.)
  Radius for F  used is    3.2692 Bohr (=   1.7300 Ang.)
  Radius for O  used is    4.0969 Bohr (=   2.1680 Ang.)
  Radius for H  used is    2.2677 Bohr (=   1.2000 Ang.)
Calculating surface                               ...        done! (  0.0s)
Cavity surface points                             ...         2619
Cavity Volume                                     ...    2611.6613
Cavity Surface-area                               ...    1348.2374
Calculating surface distance matrix               ...        done! (  0.1s)
Performing Cholesky decomposition & store         ...        done! (  0.2s)
Overall time for CPCM initialization              ...                 0.2s

----------------------------------------D-I-I-S--------------------------------------------
Iteration    Energy (Eh)           Delta-E    RMSDP     MaxDP     DIISErr   Damp  Time(sec)
-------------------------------------------------------------------------------------------
               ***  Starting incremental Fock matrix formation  ***
    1    -2105.2851772938984141     0.00e+00  4.90e-04  4.67e-02  3.51e-01  0.850   8.0
Warning: op=0 Small HOMO/LUMO gap (   0.072) - skipping pre-diagonalization
         Will do a full diagonalization
    2    -2105.5171682185264217    -2.32e-01  5.90e-04  1.07e-01  2.46e-01  0.850   4.9
                               ***Turning on AO-DIIS***
    3    -2105.6446946869464227    -1.28e-01  3.14e-04  6.38e-02  1.54e-01  0.850   4.4
    4    -2105.7215870651716614    -7.69e-02  1.75e-04  3.18e-02  1.16e-01  0.850   4.4
    5    -2105.7762840862515077    -5.47e-02  1.08e-04  1.42e-02  9.48e-02  0.850   4.2
    6    -2105.8194355816940515    -4.32e-02  7.72e-05  5.35e-03  8.02e-02  0.850   4.1
    7    -2105.8550702284428553    -3.56e-02  6.41e-05  4.67e-03  6.86e-02  0.850   4.0
    8    -2105.8849216144644743    -2.99e-02  5.59e-05  4.15e-03  5.81e-02  0.850   3.9
    9    -2105.9097594690510959    -2.48e-02  4.80e-05  3.53e-03  4.85e-02  0.850   4.0
   10    -2105.9303635454580217    -2.06e-02  4.04e-05  2.98e-03  4.02e-02  0.850   4.0
   11    -2105.9475077222814434    -1.71e-02  3.37e-05  2.54e-03  3.35e-02  0.850   4.0
   12    -2105.9618364959351311    -1.43e-02  2.82e-05  2.19e-03  2.80e-02  0.850   4.1
   13    -2105.9738549483363386    -1.20e-02  1.58e-04  1.26e-02  2.35e-02  0.000   3.8
   14    -2106.0394609618615505    -6.56e-02  1.09e-05  1.46e-03  2.24e-03  0.000   4.2
                              *** Initializing SOSCF ***
---------------------------------------S-O-S-C-F--------------------------------------
Iteration    Energy (Eh)           Delta-E    RMSDP     MaxDP     MaxGrad    Time(sec)
--------------------------------------------------------------------------------------
   15    -2106.0394903855167286    -2.94e-05  6.44e-06  1.39e-03  3.87e-04     3.9
               *** Restarting incremental Fock matrix formation ***
   16    -2106.0395055216240507    -1.51e-05  6.68e-06  7.08e-04  5.30e-05     7.7
   17    -2106.0395052881422089     2.33e-07  1.33e-06  1.21e-04  9.31e-05     4.8
   18    -2106.0395057993400769    -5.11e-07  6.83e-07  1.26e-04  6.79e-06     3.9
   19    -2106.0395058204048837    -2.11e-08  3.52e-07  6.65e-05  1.00e-05     3.5
   20    -2106.0395058165595401     3.85e-09  2.44e-07  3.63e-05  3.08e-06     3.2
                 **** Energy Check signals convergence ****

               *****************************************************
               *                     SUCCESS                       *
               *           SCF CONVERGED AFTER  20 CYCLES          *
               *****************************************************

Recomputing exchange energy using gridx3       ... done (   10.417 sec)
Old exchange energy                            :    -45.389627705 Eh
New exchange energy                            :    -45.389637677 Eh
Exchange energy change after final integration :     -0.000009972 Eh
Total energy after final integration           :  -2106.039515789 Eh

SMD CDS free energy correction energy :                 2.78603     Kcal/mol
Total Energy after SMD CDS correction =             -2106.035075975 Eh
             **** ENERGY FILE WAS UPDATED (rf_mecn_2H2O_freq_B3L_con_01.en.tmp) ****

----------------
TOTAL SCF ENERGY
----------------

Total Energy       :      -2106.03507597506223 Eh          -57308.12791 eV

Components:
Nuclear Repulsion  :       3280.33847101423726 Eh           89262.54782 eV
Electronic Energy  :      -5386.29778905183048 Eh         -146568.61424 eV
One Electron Energy:      -9485.31515464171025 Eh         -258108.54734 eV
Two Electron Energy:       4099.01736558987977 Eh          111539.93310 eV
CPCM Dielectric    :         -0.08018777896664 Eh              -2.18202 eV
SMD CDS (Gcds)     :          0.00443981348189 Eh               0.12081 eV

Virial components:
Potential Energy   :      -4204.90641300591233 Eh         -114421.32057 eV
Kinetic Energy     :       2098.87133703085010 Eh           57113.19266 eV
Virial Ratio       :          2.00341313867974

DFT components:
N(Alpha)           :      109.999992347361 electrons
N(Beta)            :      109.999992347361 electrons
N(Total)           :      219.999984694721 electrons
E(X)               :     -180.888340589494 Eh       
E(C)               :       -9.613159558500 Eh       
E(XC)              :     -190.501500147994 Eh       

CPCM Solvation Model Properties:
Surface-charge          :          0.99007579894858
Corrected charge        :          1.00000000000000
Outlying charge corr.   :          0.00000494029709 Eh               0.00013 eV
Free-energy (cav+disp)  :          0.00443981348189 Eh               0.12081 eV

---------------
SCF CONVERGENCE
---------------

  Last Energy change         ...   -3.8453e-09  Tolerance :   1.0000e-08
  Last MAX-Density change    ...    3.6331e-05  Tolerance :   1.0000e-07
  Last RMS-Density change    ...    2.4415e-07  Tolerance :   5.0000e-09
  Last DIIS Error            ...    3.8711e-04  Tolerance :   5.0000e-07
  Last Orbital Gradient      ...    3.0759e-06  Tolerance :   1.0000e-05
  Last Orbital Rotation      ...    8.2516e-06  Tolerance :   1.0000e-05


----------------
ORBITAL ENERGIES
----------------

  NO   OCC          E(Eh)            E(eV) 
   0   2.0000     -24.744757      -673.3391 
   1   2.0000     -24.743787      -673.3127 
   2   2.0000     -24.743759      -673.3119 
   3   2.0000     -24.743408      -673.3023 
   4   2.0000     -24.743398      -673.3021 
   5   2.0000     -24.743223      -673.2973 
   6   2.0000     -24.742272      -673.2714 
   7   2.0000     -24.741169      -673.2414 
   8   2.0000     -24.741044      -673.2380 
   9   2.0000     -24.736801      -673.1226 
  10   2.0000     -24.736229      -673.1070 
  11   2.0000     -24.727803      -672.8777 
  12   2.0000     -24.727498      -672.8694 
  13   2.0000     -24.706593      -672.3006 
  14   2.0000     -24.705933      -672.2826 
  15   2.0000     -19.089177      -519.4429 
  16   2.0000     -19.088754      -519.4314 
  17   2.0000     -19.083935      -519.3003 
  18   2.0000     -19.082936      -519.2731 
  19   2.0000     -10.461178      -284.6631 
  20   2.0000     -10.408496      -283.2296 
  21   2.0000     -10.407184      -283.1939 
  22   2.0000     -10.405956      -283.1604 
  23   2.0000     -10.400098      -283.0010 
  24   2.0000     -10.387040      -282.6457 
  25   2.0000     -10.355012      -281.7742 
  26   2.0000     -10.275124      -279.6003 
  27   2.0000      -1.353654       -36.8348 
  28   2.0000      -1.331101       -36.2211 
  29   2.0000      -1.316485       -35.8234 
  30   2.0000      -1.307817       -35.5875 
  31   2.0000      -1.305085       -35.5132 
  32   2.0000      -1.295939       -35.2643 
  33   2.0000      -1.272156       -34.6171 
  34   2.0000      -1.267168       -34.4814 
  35   2.0000      -1.260787       -34.3078 
  36   2.0000      -1.260372       -34.2965 
  37   2.0000      -1.254084       -34.1254 
  38   2.0000      -1.250350       -34.0237 
  39   2.0000      -1.247238       -33.9391 
  40   2.0000      -1.238069       -33.6896 
  41   2.0000      -1.214185       -33.0397 
  42   2.0000      -1.047566       -28.5057 
  43   2.0000      -0.976100       -26.5610 
  44   2.0000      -0.973160       -26.4810 
  45   2.0000      -0.961162       -26.1546 
  46   2.0000      -0.847516       -23.0621 
  47   2.0000      -0.827055       -22.5053 
  48   2.0000      -0.798806       -21.7366 
  49   2.0000      -0.761943       -20.7335 
  50   2.0000      -0.720312       -19.6007 
  51   2.0000      -0.691100       -18.8058 
  52   2.0000      -0.674332       -18.3495 
  53   2.0000      -0.651630       -17.7318 
  54   2.0000      -0.646801       -17.6003 
  55   2.0000      -0.638438       -17.3728 
  56   2.0000      -0.631442       -17.1824 
  57   2.0000      -0.627521       -17.0757 
  58   2.0000      -0.625213       -17.0129 
  59   2.0000      -0.613389       -16.6912 
  60   2.0000      -0.609992       -16.5987 
  61   2.0000      -0.606355       -16.4998 
  62   2.0000      -0.598201       -16.2779 
  63   2.0000      -0.588002       -16.0004 
  64   2.0000      -0.586122       -15.9492 
  65   2.0000      -0.579951       -15.7813 
  66   2.0000      -0.574465       -15.6320 
  67   2.0000      -0.558408       -15.1951 
  68   2.0000      -0.518307       -14.1039 
  69   2.0000      -0.514419       -13.9980 
  70   2.0000      -0.513770       -13.9804 
  71   2.0000      -0.508862       -13.8468 
  72   2.0000      -0.504939       -13.7401 
  73   2.0000      -0.500869       -13.6293 
  74   2.0000      -0.498988       -13.5782 
  75   2.0000      -0.497692       -13.5429 
  76   2.0000      -0.494449       -13.4546 
  77   2.0000      -0.487945       -13.2777 
  78   2.0000      -0.483904       -13.1677 
  79   2.0000      -0.481667       -13.1068 
  80   2.0000      -0.478902       -13.0316 
  81   2.0000      -0.473257       -12.8780 
  82   2.0000      -0.471430       -12.8283 
  83   2.0000      -0.464372       -12.6362 
  84   2.0000      -0.463647       -12.6165 
  85   2.0000      -0.462155       -12.5759 
  86   2.0000      -0.453883       -12.3508 
  87   2.0000      -0.452869       -12.3232 
  88   2.0000      -0.450139       -12.2489 
  89   2.0000      -0.446129       -12.1398 
  90   2.0000      -0.444806       -12.1038 
  91   2.0000      -0.442593       -12.0436 
  92   2.0000      -0.441693       -12.0191 
  93   2.0000      -0.437608       -11.9079 
  94   2.0000      -0.436904       -11.8888 
  95   2.0000      -0.431774       -11.7492 
  96   2.0000      -0.426038       -11.5931 
  97   2.0000      -0.422285       -11.4910 
  98   2.0000      -0.417303       -11.3554 
  99   2.0000      -0.406048       -11.0491 
 100   2.0000      -0.403884       -10.9902 
 101   2.0000      -0.377385       -10.2692 
 102   2.0000      -0.358480        -9.7547 
 103   2.0000      -0.356440        -9.6992 
 104   2.0000      -0.345680        -9.4064 
 105   2.0000      -0.287401        -7.8206 
 106   2.0000      -0.285485        -7.7684 
 107   2.0000      -0.270493        -7.3605 
 108   2.0000      -0.260452        -7.0873 
 109   2.0000      -0.259493        -7.0612 
 110   0.0000      -0.011831        -0.3219 
 111   0.0000       0.002874         0.0782 
 112   0.0000       0.019646         0.5346 
 113   0.0000       0.044285         1.2050 
 114   0.0000       0.053230         1.4485 
 115   0.0000       0.058288         1.5861 
 116   0.0000       0.066454         1.8083 
 117   0.0000       0.093221         2.5367 
 118   0.0000       0.099855         2.7172 
 119   0.0000       0.101793         2.7699 
 120   0.0000       0.114302         3.1103 
*Only the first 10 virtual orbitals were printed.

                    ********************************
                    * MULLIKEN POPULATION ANALYSIS *
                    ********************************

-----------------------
MULLIKEN ATOMIC CHARGES
-----------------------
   0 C :    0.476063
   1 C :    0.324541
   2 C :    0.313000
   3 C :    0.331819
   4 C :    0.337273
   5 C :    0.301128
   6 C :    0.349121
   7 C :    0.245639
   8 F :   -0.155286
   9 F :   -0.152726
  10 F :   -0.152436
  11 F :   -0.165757
  12 F :   -0.162577
  13 F :   -0.168231
  14 F :   -0.167609
  15 F :   -0.168993
  16 F :   -0.169305
  17 F :   -0.173083
  18 F :   -0.174637
  19 F :   -0.186580
  20 F :   -0.181004
  21 F :   -0.208163
  22 F :   -0.204553
  23 O :   -0.488490
  24 O :   -0.501767
  25 O :   -0.726169
  26 H :    0.327592
  27 H :    0.350850
  28 H :    0.347239
  29 O :   -0.724720
  30 H :    0.327823
Sum of atomic charges:   -1.0000000

--------------------------------
MULLIKEN REDUCED ORBITAL CHARGES
--------------------------------
  0 C s       :     3.024006  s :     3.024006
      pz      :     0.648365  p :     2.114709
      px      :     0.690460
      py      :     0.775884
      dz2     :     0.072437  d :     0.344828
      dxz     :     0.068320
      dyz     :     0.073958
      dx2y2   :     0.067407
      dxy     :     0.062706
      f0      :     0.007831  f :     0.040394
      f+1     :     0.006437
      f-1     :     0.004323
      f+2     :     0.004515
      f-2     :     0.007597
      f+3     :     0.003965
      f-3     :     0.005724

  1 C s       :     3.129257  s :     3.129257
      pz      :     0.618208  p :     2.238381
      px      :     0.730769
      py      :     0.889404
      dz2     :     0.075303  d :     0.279704
      dxz     :     0.054911
      dyz     :     0.056744
      dx2y2   :     0.037172
      dxy     :     0.055573
      f0      :     0.005844  f :     0.028118
      f+1     :     0.004733
      f-1     :     0.002749
      f+2     :     0.005447
      f-2     :     0.004807
      f+3     :     0.002393
      f-3     :     0.002145

  2 C s       :     3.151721  s :     3.151721
      pz      :     0.596787  p :     2.221375
      px      :     0.711871
      py      :     0.912718
      dz2     :     0.072491  d :     0.285812
      dxz     :     0.056536
      dyz     :     0.064278
      dx2y2   :     0.032904
      dxy     :     0.059603
      f0      :     0.005438  f :     0.028092
      f+1     :     0.005780
      f-1     :     0.003461
      f+2     :     0.004168
      f-2     :     0.004643
      f+3     :     0.002327
      f-3     :     0.002276

  3 C s       :     3.148425  s :     3.148425
      pz      :     0.651442  p :     2.206849
      px      :     0.684349
      py      :     0.871058
      dz2     :     0.063185  d :     0.284853
      dxz     :     0.068854
      dyz     :     0.052257
      dx2y2   :     0.040882
      dxy     :     0.059675
      f0      :     0.004747  f :     0.028055
      f+1     :     0.006834
      f-1     :     0.003142
      f+2     :     0.003514
      f-2     :     0.003363
      f+3     :     0.003167
      f-3     :     0.003287

  4 C s       :     3.150088  s :     3.150088
      pz      :     0.651176  p :     2.202393
      px      :     0.648569
      py      :     0.902648
      dz2     :     0.048692  d :     0.282314
      dxz     :     0.074910
      dyz     :     0.058876
      dx2y2   :     0.039986
      dxy     :     0.059851
      f0      :     0.005322  f :     0.027932
      f+1     :     0.005688
      f-1     :     0.004020
      f+2     :     0.003819
      f-2     :     0.001940
      f+3     :     0.002412
      f-3     :     0.004733

  5 C s       :     3.156055  s :     3.156055
      pz      :     0.725557  p :     2.237112
      px      :     0.614208
      py      :     0.897347
      dz2     :     0.054966  d :     0.277900
      dxz     :     0.065457
      dyz     :     0.045156
      dx2y2   :     0.051533
      dxy     :     0.060788
      f0      :     0.005481  f :     0.027804
      f+1     :     0.003869
      f-1     :     0.003168
      f+2     :     0.005583
      f-2     :     0.002234
      f+3     :     0.002587
      f-3     :     0.004881

  6 C s       :     3.130784  s :     3.130784
      pz      :     0.704257  p :     2.238768
      px      :     0.565569
      py      :     0.968941
      dz2     :     0.048515  d :     0.254592
      dxz     :     0.052942
      dyz     :     0.045820
      dx2y2   :     0.050728
      dxy     :     0.056586
      f0      :     0.003686  f :     0.026736
      f+1     :     0.005349
      f-1     :     0.001986
      f+2     :     0.004449
      f-2     :     0.004128
      f+3     :     0.003054
      f-3     :     0.004085

  7 C s       :     3.062109  s :     3.062109
      pz      :     0.813152  p :     2.406329
      px      :     0.705286
      py      :     0.887891
      dz2     :     0.010029  d :     0.260699
      dxz     :     0.073107
      dyz     :     0.015937
      dx2y2   :     0.078866
      dxy     :     0.082760
      f0      :     0.002368  f :     0.025224
      f+1     :     0.002451
      f-1     :     0.001206
      f+2     :     0.002363
      f-2     :     0.003279
      f+3     :     0.008334
      f-3     :     0.005223

  8 F s       :     3.912416  s :     3.912416
      pz      :     1.701260  p :     5.225476
      px      :     1.649235
      py      :     1.874981
      dz2     :     0.002920  d :     0.016639
      dxz     :     0.006506
      dyz     :     0.001855
      dx2y2   :     0.002803
      dxy     :     0.002555
      f0      :     0.000085  f :     0.000756
      f+1     :     0.000200
      f-1     :     0.000030
      f+2     :     0.000187
      f-2     :     0.000130
      f+3     :     0.000058
      f-3     :     0.000066

  9 F s       :     3.910942  s :     3.910942
      pz      :     1.530331  p :     5.224215
      px      :     1.812154
      py      :     1.881730
      dz2     :     0.006199  d :     0.016800
      dxz     :     0.005325
      dyz     :     0.003480
      dx2y2   :     0.000798
      dxy     :     0.000998
      f0      :     0.000196  f :     0.000770
      f+1     :     0.000260
      f-1     :     0.000131
      f+2     :     0.000074
      f-2     :     0.000091
      f+3     :     0.000008
      f-3     :     0.000010

 10 F s       :     3.911344  s :     3.911344
      pz      :     1.890355  p :     5.223612
      px      :     1.740350
      py      :     1.592908
      dz2     :     0.002379  d :     0.016713
      dxz     :     0.001388
      dyz     :     0.002302
      dx2y2   :     0.003974
      dxy     :     0.006669
      f0      :     0.000065  f :     0.000767
      f+1     :     0.000063
      f-1     :     0.000104
      f+2     :     0.000018
      f-2     :     0.000103
      f+3     :     0.000240
      f-3     :     0.000175

 11 F s       :     3.916252  s :     3.916252
      pz      :     1.645233  p :     5.232261
      px      :     1.714729
      py      :     1.872300
      dz2     :     0.003614  d :     0.016532
      dxz     :     0.006068
      dyz     :     0.002777
      dx2y2   :     0.001867
      dxy     :     0.002206
      f0      :     0.000087  f :     0.000712
      f+1     :     0.000216
      f-1     :     0.000066
      f+2     :     0.000131
      f-2     :     0.000143
      f+3     :     0.000029
      f-3     :     0.000039

 12 F s       :     3.913989  s :     3.913989
      pz      :     1.621466  p :     5.231179
      px      :     1.746872
      py      :     1.862840
      dz2     :     0.004060  d :     0.016682
      dxz     :     0.005663
      dyz     :     0.003291
      dx2y2   :     0.001605
      dxy     :     0.002064
      f0      :     0.000099  f :     0.000726
      f+1     :     0.000213
      f-1     :     0.000096
      f+2     :     0.000112
      f-2     :     0.000151
      f+3     :     0.000025
      f-3     :     0.000030

 13 F s       :     3.916937  s :     3.916937
      pz      :     1.530950  p :     5.233954
      px      :     1.812550
      py      :     1.890454
      dz2     :     0.006090  d :     0.016627
      dxz     :     0.005051
      dyz     :     0.003566
      dx2y2   :     0.000837
      dxy     :     0.001084
      f0      :     0.000186  f :     0.000713
      f+1     :     0.000236
      f-1     :     0.000123
      f+2     :     0.000066
      f-2     :     0.000086
      f+3     :     0.000007
      f-3     :     0.000008

 14 F s       :     3.916677  s :     3.916677
      pz      :     1.700447  p :     5.233590
      px      :     1.634556
      py      :     1.898587
      dz2     :     0.002761  d :     0.016629
      dxz     :     0.006553
      dyz     :     0.001834
      dx2y2   :     0.002928
      dxy     :     0.002553
      f0      :     0.000079  f :     0.000714
      f+1     :     0.000193
      f-1     :     0.000021
      f+2     :     0.000188
      f-2     :     0.000116
      f+3     :     0.000057
      f-3     :     0.000059

 15 F s       :     3.916252  s :     3.916252
      pz      :     1.501942  p :     5.235417
      px      :     1.882604
      py      :     1.850871
      dz2     :     0.007054  d :     0.016609
      dxz     :     0.003217
      dyz     :     0.005055
      dx2y2   :     0.000653
      dxy     :     0.000631
      f0      :     0.000239  f :     0.000715
      f+1     :     0.000125
      f-1     :     0.000234
      f+2     :     0.000053
      f-2     :     0.000054
      f+3     :     0.000005
      f-3     :     0.000004

 16 F s       :     3.916345  s :     3.916345
      pz      :     1.831630  p :     5.235671
      px      :     1.518969
      py      :     1.885071
      dz2     :     0.002123  d :     0.016578
      dxz     :     0.004888
      dyz     :     0.000827
      dx2y2   :     0.004864
      dxy     :     0.003875
      f0      :     0.000079  f :     0.000712
      f+1     :     0.000115
      f-1     :     0.000011
      f+2     :     0.000155
      f-2     :     0.000077
      f+3     :     0.000135
      f-3     :     0.000140

 17 F s       :     3.915437  s :     3.915437
      pz      :     1.472914  p :     5.240453
      px      :     1.883804
      py      :     1.883735
      dz2     :     0.007825  d :     0.016483
      dxz     :     0.003416
      dyz     :     0.004411
      dx2y2   :     0.000451
      dxy     :     0.000380
      f0      :     0.000291  f :     0.000711
      f+1     :     0.000152
      f-1     :     0.000197
      f+2     :     0.000035
      f-2     :     0.000031
      f+3     :     0.000002
      f-3     :     0.000003

 18 F s       :     3.916252  s :     3.916252
      pz      :     1.879907  p :     5.241241
      px      :     1.452385
      py      :     1.908949
      dz2     :     0.002215  d :     0.016437
      dxz     :     0.003778
      dyz     :     0.000249
      dx2y2   :     0.006390
      dxy     :     0.003807
      f0      :     0.000065  f :     0.000707
      f+1     :     0.000133
      f-1     :     0.000010
      f+2     :     0.000121
      f-2     :     0.000014
      f+3     :     0.000217
      f-3     :     0.000147

 19 F s       :     3.916158  s :     3.916158
      pz      :     1.572511  p :     5.253644
      px      :     1.823670
      py      :     1.857463
      dz2     :     0.005033  d :     0.016083
      dxz     :     0.004475
      dyz     :     0.004143
      dx2y2   :     0.001181
      dxy     :     0.001251
      f0      :     0.000134  f :     0.000695
      f+1     :     0.000186
      f-1     :     0.000145
      f+2     :     0.000085
      f-2     :     0.000115
      f+3     :     0.000014
      f-3     :     0.000016

 20 F s       :     3.919287  s :     3.919287
      pz      :     1.885757  p :     5.244767
      px      :     1.454254
      py      :     1.904756
      dz2     :     0.002239  d :     0.016248
      dxz     :     0.003617
      dyz     :     0.000248
      dx2y2   :     0.006372
      dxy     :     0.003772
      f0      :     0.000063  f :     0.000701
      f+1     :     0.000137
      f-1     :     0.000010
      f+2     :     0.000106
      f-2     :     0.000016
      f+3     :     0.000221
      f-3     :     0.000149

 21 F s       :     3.913039  s :     3.913039
      pz      :     1.646521  p :     5.279056
      px      :     1.730385
      py      :     1.902151
      dz2     :     0.003323  d :     0.015395
      dxz     :     0.005968
      dyz     :     0.002458
      dx2y2   :     0.001918
      dxy     :     0.001728
      f0      :     0.000079  f :     0.000673
      f+1     :     0.000218
      f-1     :     0.000049
      f+2     :     0.000148
      f-2     :     0.000114
      f+3     :     0.000036
      f-3     :     0.000030

 22 F s       :     3.916072  s :     3.916072
      pz      :     1.842482  p :     5.272232
      px      :     1.529126
      py      :     1.900624
      dz2     :     0.001870  d :     0.015576
      dxz     :     0.004424
      dyz     :     0.000734
      dx2y2   :     0.004976
      dxy     :     0.003572
      f0      :     0.000069  f :     0.000674
      f+1     :     0.000104
      f-1     :     0.000004
      f+2     :     0.000147
      f-2     :     0.000062
      f+3     :     0.000158
      f-3     :     0.000129

 23 O s       :     3.812269  s :     3.812269
      pz      :     1.554413  p :     4.648801
      px      :     1.421837
      py      :     1.672550
      dz2     :     0.002705  d :     0.025752
      dxz     :     0.006012
      dyz     :     0.002703
      dx2y2   :     0.006446
      dxy     :     0.007886
      f0      :     0.000177  f :     0.001668
      f+1     :     0.000200
      f-1     :     0.000069
      f+2     :     0.000125
      f-2     :     0.000264
      f+3     :     0.000458
      f-3     :     0.000376

 24 O s       :     3.813712  s :     3.813712
      pz      :     1.561028  p :     4.661106
      px      :     1.353219
      py      :     1.746859
      dz2     :     0.002551  d :     0.025276
      dxz     :     0.007617
      dyz     :     0.001190
      dx2y2   :     0.006553
      dxy     :     0.007365
      f0      :     0.000177  f :     0.001673
      f+1     :     0.000221
      f-1     :     0.000035
      f+2     :     0.000271
      f-2     :     0.000116
      f+3     :     0.000431
      f-3     :     0.000421

 25 O s       :     3.794813  s :     3.794813
      pz      :     1.947860  p :     4.911183
      px      :     1.414562
      py      :     1.548761
      dz2     :     0.003668  d :     0.018945
      dxz     :     0.001098
      dyz     :     0.001852
      dx2y2   :     0.006737
      dxy     :     0.005590
      f0      :     0.000164  f :     0.001228
      f+1     :     0.000307
      f-1     :     0.000274
      f+2     :     0.000062
      f-2     :     0.000027
      f+3     :     0.000379
      f-3     :     0.000015

 26 H s       :     0.625564  s :     0.625564
      pz      :     0.015775  p :     0.046844
      px      :     0.013149
      py      :     0.017920

 27 H s       :     0.595695  s :     0.595695
      pz      :     0.014772  p :     0.053455
      px      :     0.027545
      py      :     0.011139

 28 H s       :     0.599027  s :     0.599027
      pz      :     0.012405  p :     0.053734
      px      :     0.027580
      py      :     0.013748

 29 O s       :     3.794662  s :     3.794662
      pz      :     1.574331  p :     4.909882
      px      :     1.561989
      py      :     1.773561
      dz2     :     0.003727  d :     0.018951
      dxz     :     0.000669
      dyz     :     0.006246
      dx2y2   :     0.004769
      dxy     :     0.003540
      f0      :     0.000087  f :     0.001225
      f+1     :     0.000132
      f-1     :     0.000389
      f+2     :     0.000243
      f-2     :     0.000114
      f+3     :     0.000108
      f-3     :     0.000152

 30 H s       :     0.625349  s :     0.625349
      pz      :     0.018485  p :     0.046828
      px      :     0.012121
      py      :     0.016223



                     *******************************
                     * LOEWDIN POPULATION ANALYSIS *
                     *******************************

----------------------
LOEWDIN ATOMIC CHARGES
----------------------
   0 C :   -0.663485
   1 C :   -0.463554
   2 C :   -0.456582
   3 C :   -0.454321
   4 C :   -0.453355
   5 C :   -0.454125
   6 C :   -0.441250
   7 C :   -0.648844
   8 F :    0.224824
   9 F :    0.226906
  10 F :    0.225958
  11 F :    0.223619
  12 F :    0.224933
  13 F :    0.224785
  14 F :    0.224512
  15 F :    0.223901
  16 F :    0.222887
  17 F :    0.219202
  18 F :    0.218141
  19 F :    0.208080
  20 F :    0.214842
  21 F :    0.171465
  22 F :    0.179694
  23 O :   -0.025331
  24 O :   -0.030235
  25 O :   -0.367201
  26 H :    0.156739
  27 H :    0.139277
  28 H :    0.139289
  29 O :   -0.367194
  30 H :    0.156423

-------------------------------
LOEWDIN REDUCED ORBITAL CHARGES
-------------------------------
  0 C s       :     2.758834  s :     2.758834
      pz      :     0.794624  p :     2.510432
      px      :     0.829134
      py      :     0.886673
      dz2     :     0.245125  d :     1.137824
      dxz     :     0.263964
      dyz     :     0.195332
      dx2y2   :     0.181574
      dxy     :     0.251829
      f0      :     0.044367  f :     0.256395
      f+1     :     0.044486
      f-1     :     0.031182
      f+2     :     0.033369
      f-2     :     0.040984
      f+3     :     0.028518
      f-3     :     0.033489

  1 C s       :     2.764536  s :     2.764536
      pz      :     0.770033  p :     2.604422
      px      :     0.854748
      py      :     0.979641
      dz2     :     0.207119  d :     0.915581
      dxz     :     0.231745
      dyz     :     0.169518
      dx2y2   :     0.107030
      dxy     :     0.200168
      f0      :     0.032719  f :     0.179016
      f+1     :     0.035832
      f-1     :     0.020413
      f+2     :     0.034729
      f-2     :     0.028492
      f+3     :     0.013680
      f-3     :     0.013150

  2 C s       :     2.761295  s :     2.761295
      pz      :     0.750225  p :     2.600268
      px      :     0.850244
      py      :     0.999799
      dz2     :     0.228394  d :     0.916163
      dxz     :     0.227645
      dyz     :     0.151694
      dx2y2   :     0.114680
      dxy     :     0.193748
      f0      :     0.032601  f :     0.178857
      f+1     :     0.039435
      f-1     :     0.023160
      f+2     :     0.030990
      f-2     :     0.026175
      f+3     :     0.013270
      f-3     :     0.013226

  3 C s       :     2.761641  s :     2.761641
      pz      :     0.799086  p :     2.599447
      px      :     0.828962
      py      :     0.971399
      dz2     :     0.211158  d :     0.914496
      dxz     :     0.199411
      dyz     :     0.172488
      dx2y2   :     0.143451
      dxy     :     0.187987
      f0      :     0.032693  f :     0.178737
      f+1     :     0.037613
      f-1     :     0.023202
      f+2     :     0.026180
      f-2     :     0.019392
      f+3     :     0.019663
      f-3     :     0.019995

  4 C s       :     2.762108  s :     2.762108
      pz      :     0.800771  p :     2.600074
      px      :     0.796066
      py      :     1.003237
      dz2     :     0.209659  d :     0.912981
      dxz     :     0.196855
      dyz     :     0.166353
      dx2y2   :     0.177528
      dxy     :     0.162586
      f0      :     0.035354  f :     0.178192
      f+1     :     0.035418
      f-1     :     0.024805
      f+2     :     0.023785
      f-2     :     0.013881
      f+3     :     0.019293
      f-3     :     0.025656

  5 C s       :     2.763646  s :     2.763646
      pz      :     0.857747  p :     2.600667
      px      :     0.761404
      py      :     0.981516
      dz2     :     0.187088  d :     0.912489
      dxz     :     0.192418
      dyz     :     0.167062
      dx2y2   :     0.204590
      dxy     :     0.161330
      f0      :     0.030609  f :     0.177324
      f+1     :     0.031345
      f-1     :     0.019191
      f+2     :     0.029720
      f-2     :     0.017162
      f+3     :     0.021628
      f-3     :     0.027668

  6 C s       :     2.778457  s :     2.778457
      pz      :     0.838780  p :     2.605064
      px      :     0.724454
      py      :     1.041830
      dz2     :     0.151105  d :     0.885387
      dxz     :     0.216697
      dyz     :     0.172222
      dx2y2   :     0.203899
      dxy     :     0.141464
      f0      :     0.023767  f :     0.172342
      f+1     :     0.036505
      f-1     :     0.012198
      f+2     :     0.027955
      f-2     :     0.025530
      f+3     :     0.021131
      f-3     :     0.025256

  7 C s       :     2.770508  s :     2.770508
      pz      :     0.790465  p :     2.708351
      px      :     0.989152
      py      :     0.928735
      dz2     :     0.070181  d :     1.015756
      dxz     :     0.234951
      dyz     :     0.066645
      dx2y2   :     0.356276
      dxy     :     0.287702
      f0      :     0.009885  f :     0.154229
      f+1     :     0.018212
      f-1     :     0.005617
      f+2     :     0.012506
      f-2     :     0.024131
      f+3     :     0.053549
      f-3     :     0.030329

  8 F s       :     3.595112  s :     3.595112
      pz      :     1.694237  p :     5.147605
      px      :     1.656017
      py      :     1.797352
      dz2     :     0.005058  d :     0.030816
      dxz     :     0.012738
      dyz     :     0.003315
      dx2y2   :     0.004844
      dxy     :     0.004861
      f0      :     0.000198  f :     0.001642
      f+1     :     0.000422
      f-1     :     0.000064
      f+2     :     0.000387
      f-2     :     0.000293
      f+3     :     0.000115
      f-3     :     0.000164

  9 F s       :     3.593766  s :     3.593766
      pz      :     1.580801  p :     5.146604
      px      :     1.760396
      py      :     1.805408
      dz2     :     0.011612  d :     0.031058
      dxz     :     0.010266
      dyz     :     0.006179
      dx2y2   :     0.001297
      dxy     :     0.001704
      f0      :     0.000414  f :     0.001666
      f+1     :     0.000552
      f-1     :     0.000291
      f+2     :     0.000158
      f-2     :     0.000213
      f+3     :     0.000016
      f-3     :     0.000022

 10 F s       :     3.595001  s :     3.595001
      pz      :     1.812610  p :     5.146406
      px      :     1.718824
      py      :     1.614972
      dz2     :     0.004546  d :     0.030969
      dxz     :     0.002317
      dyz     :     0.003553
      dx2y2   :     0.007599
      dxy     :     0.012955
      f0      :     0.000145  f :     0.001666
      f+1     :     0.000125
      f-1     :     0.000215
      f+2     :     0.000035
      f-2     :     0.000229
      f+3     :     0.000500
      f-3     :     0.000418

 11 F s       :     3.592658  s :     3.592658
      pz      :     1.656266  p :     5.151049
      px      :     1.692860
      py      :     1.801922
      dz2     :     0.006423  d :     0.031109
      dxz     :     0.011657
      dyz     :     0.005389
      dx2y2   :     0.003273
      dxy     :     0.004367
      f0      :     0.000211  f :     0.001565
      f+1     :     0.000433
      f-1     :     0.000146
      f+2     :     0.000282
      f-2     :     0.000332
      f+3     :     0.000062
      f-3     :     0.000098

 12 F s       :     3.591638  s :     3.591638
      pz      :     1.641345  p :     5.150452
      px      :     1.713793
      py      :     1.795313
      dz2     :     0.007235  d :     0.031387
      dxz     :     0.010912
      dyz     :     0.006442
      dx2y2   :     0.002839
      dxy     :     0.003959
      f0      :     0.000236  f :     0.001590
      f+1     :     0.000428
      f-1     :     0.000205
      f+2     :     0.000254
      f-2     :     0.000338
      f+3     :     0.000060
      f-3     :     0.000068

 13 F s       :     3.591432  s :     3.591432
      pz      :     1.581643  p :     5.150962
      px      :     1.758170
      py      :     1.811149
      dz2     :     0.011138  d :     0.031256
      dxz     :     0.009544
      dyz     :     0.007282
      dx2y2   :     0.001261
      dxy     :     0.002030
      f0      :     0.000405  f :     0.001565
[...]
 39:    360.73   0.000130    0.66  0.000113  ( 0.010236  0.002468 -0.001353)
 40:    363.95   0.000091    0.46  0.000078  ( 0.000583 -0.008108  0.003408)
 41:    368.99   0.001985   10.03  0.001679  ( 0.008249  0.038318 -0.011948)
 42:    369.69   0.000054    0.27  0.000045  (-0.002658 -0.002834  0.005491)
 43:    377.60   0.000166    0.84  0.000137  (-0.004383 -0.009802 -0.004667)
 44:    395.32   0.023503  118.77  0.018553  ( 0.113234  0.020870  0.072768)
 45:    404.06   0.003108   15.70  0.002400  ( 0.008044  0.008310 -0.047606)
 46:    415.77   0.009502   48.02  0.007132  (-0.079295 -0.020059 -0.021022)
 47:    465.60   0.002047   10.34  0.001372  ( 0.022009  0.009870  0.028108)
 48:    512.38   0.008738   44.16  0.005322  (-0.006691 -0.065981 -0.030394)
 49:    524.39   0.009023   45.60  0.005370  (-0.029803  0.062423  0.024183)
 50:    539.59   0.011891   60.09  0.006877  ( 0.007176  0.062113  0.054476)
 51:    554.76   0.006260   31.63  0.003521  ( 0.022751  0.054639 -0.004253)
 52:    556.51   0.004918   24.85  0.002758  ( 0.037555  0.034021 -0.013786)
 53:    577.68   0.000998    5.04  0.000539  (-0.012854  0.015513 -0.011535)
 54:    596.04   0.002644   13.36  0.001384  ( 0.003958  0.034125  0.014281)
 55:    609.04   0.000308    1.56  0.000158  ( 0.010587 -0.003467 -0.005810)
 56:    639.64   0.020601  104.11  0.010050  (-0.015053 -0.095510 -0.026489)
 57:    652.34   0.028031  141.66  0.013409  ( 0.025075 -0.020421 -0.111191)
 58:    662.44   0.020860  105.42  0.009827  (-0.001973 -0.097926 -0.015272)
 59:    681.39   0.004608   23.29  0.002110  (-0.006194  0.042783  0.015546)
 60:    693.54   0.036298  183.44  0.016333  (-0.072830  0.085105  0.061525)
 61:    719.63   0.000602    3.04  0.000261  ( 0.005613 -0.015039  0.001824)
 62:    727.40   0.003306   16.71  0.001418  (-0.008816 -0.035448 -0.009168)
 63:    768.76   0.001200    6.07  0.000487  ( 0.007902 -0.019945  0.005194)
 64:    807.87   0.016699   84.39  0.006450  (-0.007719 -0.069567  0.039385)
 65:    877.27   0.004758   24.04  0.001692  ( 0.004272 -0.040839 -0.002510)
 66:   1001.92   0.009439   47.70  0.002940  (-0.002398 -0.044031 -0.031552)
 67:   1091.64   0.014885   75.22  0.004255  ( 0.040415  0.043615 -0.026826)
 68:   1109.18   0.050006  252.71  0.014069  (-0.087543  0.015872 -0.078444)
 69:   1117.26   0.008184   41.36  0.002286  (-0.024327  0.003971  0.040968)
 70:   1122.06   0.014650   74.03  0.004074  (-0.004213 -0.012593  0.062434)
 71:   1128.63   0.060121  303.83  0.016623  (-0.110815 -0.035712  0.055388)
 72:   1137.78   0.110197  556.89  0.030224  ( 0.172933  0.000237 -0.017847)
 73:   1147.65   0.057736  291.77  0.015699  ( 0.064502 -0.020949  0.105355)
 74:   1150.58   0.013125   66.33  0.003560  (-0.059629 -0.001023  0.001769)
 75:   1156.16   0.126122  637.37  0.034042  (-0.064560  0.051430 -0.165012)
 76:   1160.56   0.080045  404.51  0.021523  (-0.113963  0.023774  0.089279)
 77:   1170.72   0.072686  367.32  0.019375  (-0.051046  0.059972 -0.114771)
 78:   1184.44   0.041897  211.73  0.011039  (-0.005954 -0.034263  0.099142)
 79:   1195.19   0.007264   36.71  0.001897  (-0.030518  0.015662 -0.026834)
 80:   1217.56   0.011505   58.14  0.002949  (-0.018676  0.048297 -0.016353)
 81:   1250.37   0.004329   21.87  0.001080  ( 0.027203 -0.018227  0.002845)
 82:   1266.72   0.002528   12.78  0.000623  ( 0.017256 -0.017968 -0.001479)
 83:   1289.49   0.007871   39.78  0.001905  (-0.009451  0.026279  0.033540)
 84:   1343.92   0.029389  148.52  0.006824  (-0.012622 -0.081166 -0.008782)
 85:   1393.45   0.033379  168.68  0.007475  (-0.008340 -0.085437  0.010299)
 86:   1648.87   0.027324  138.09  0.005171  ( 0.053105  0.042530 -0.023290)
 87:   1654.76   0.022729  114.86  0.004286  ( 0.023984 -0.059493  0.013107)
 88:   1712.52   0.226880  1146.56  0.041343  (-0.201798  0.022426 -0.010850)
 89:   3484.45   0.331428  1674.90  0.029682  (-0.167707 -0.004870 -0.039154)
 90:   3505.03   0.053776  271.76  0.004788  (-0.067722  0.013220 -0.005177)
 91:   3800.69   0.021871  110.53  0.001796  (-0.037992 -0.017428 -0.006974)
 92:   3801.94   0.014724   74.41  0.001209  ( 0.019193 -0.015541  0.024467)

* The epsilon (eps) is given for a Dirac delta lineshape.
** The dipole moment derivative (T) already includes vibrational overlap.

The first frequency considered to be a vibration is 6
The total number of vibrations considered is 87


--------------------------
THERMOCHEMISTRY AT 298.15K
--------------------------

Temperature         ...   298.15 K
Pressure            ...     1.00 atm
Total Mass          ...   449.09 AMU
Quasi RRHO          ...     True
Cut-Off Frequency   ...     1.00 cm^-1

Throughout the following assumptions are being made:
  (1) The electronic state is orbitally nondegenerate
  (2) There are no thermally accessible electronically excited states
  (3) Hindered rotations indicated by low frequency modes are not
      treated as such but are treated as vibrations and this may
      cause some error
  (4) All equations used are the standard statistical mechanics
      equations for an ideal gas
  (5) All vibrations are strictly harmonic

freq.      15.52  E(vib)   ...       0.57 
freq.      20.10  E(vib)   ...       0.56 
freq.      23.25  E(vib)   ...       0.56 
freq.      30.34  E(vib)   ...       0.55 
freq.      33.97  E(vib)   ...       0.55 
freq.      40.90  E(vib)   ...       0.54 
freq.      42.72  E(vib)   ...       0.53 
freq.      47.84  E(vib)   ...       0.53 
freq.      57.55  E(vib)   ...       0.51 
freq.      65.29  E(vib)   ...       0.50 
freq.      67.86  E(vib)   ...       0.50 
freq.      69.54  E(vib)   ...       0.50 
freq.      74.95  E(vib)   ...       0.49 
freq.      83.93  E(vib)   ...       0.48 
freq.     118.74  E(vib)   ...       0.44 
freq.     133.02  E(vib)   ...       0.42 
freq.     156.32  E(vib)   ...       0.40 
freq.     166.56  E(vib)   ...       0.39 
freq.     189.34  E(vib)   ...       0.36 
freq.     195.17  E(vib)   ...       0.36 
freq.     203.84  E(vib)   ...       0.35 
freq.     204.95  E(vib)   ...       0.35 
freq.     214.38  E(vib)   ...       0.34 
freq.     235.98  E(vib)   ...       0.32 
freq.     245.80  E(vib)   ...       0.31 
freq.     256.03  E(vib)   ...       0.30 
freq.     259.21  E(vib)   ...       0.30 
freq.     271.65  E(vib)   ...       0.29 
freq.     288.61  E(vib)   ...       0.27 
freq.     304.03  E(vib)   ...       0.26 
freq.     311.76  E(vib)   ...       0.25 
freq.     334.61  E(vib)   ...       0.24 
freq.     347.36  E(vib)   ...       0.23 
freq.     360.73  E(vib)   ...       0.22 
freq.     363.95  E(vib)   ...       0.22 
freq.     368.99  E(vib)   ...       0.21 
freq.     369.69  E(vib)   ...       0.21 
freq.     377.60  E(vib)   ...       0.21 
freq.     395.32  E(vib)   ...       0.20 
freq.     404.06  E(vib)   ...       0.19 
freq.     415.77  E(vib)   ...       0.18 
freq.     465.60  E(vib)   ...       0.16 
freq.     512.38  E(vib)   ...       0.13 
freq.     524.39  E(vib)   ...       0.13 
freq.     539.59  E(vib)   ...       0.12 
freq.     554.76  E(vib)   ...       0.12 
freq.     556.51  E(vib)   ...       0.12 
freq.     577.68  E(vib)   ...       0.11 
freq.     596.04  E(vib)   ...       0.10 
freq.     609.04  E(vib)   ...       0.10 
freq.     639.64  E(vib)   ...       0.09 
freq.     652.34  E(vib)   ...       0.08 
freq.     662.44  E(vib)   ...       0.08 
freq.     681.39  E(vib)   ...       0.08 
freq.     693.54  E(vib)   ...       0.07 
freq.     719.63  E(vib)   ...       0.07 
freq.     727.40  E(vib)   ...       0.06 
freq.     768.76  E(vib)   ...       0.06 
freq.     807.87  E(vib)   ...       0.05 
freq.     877.27  E(vib)   ...       0.04 
freq.    1001.92  E(vib)   ...       0.02 
freq.    1091.64  E(vib)   ...       0.02 
freq.    1109.18  E(vib)   ...       0.02 
freq.    1117.26  E(vib)   ...       0.01 
freq.    1122.06  E(vib)   ...       0.01 
freq.    1128.63  E(vib)   ...       0.01 
freq.    1137.78  E(vib)   ...       0.01 
freq.    1147.65  E(vib)   ...       0.01 
freq.    1150.58  E(vib)   ...       0.01 
freq.    1156.16  E(vib)   ...       0.01 
freq.    1160.56  E(vib)   ...       0.01 
freq.    1170.72  E(vib)   ...       0.01 
freq.    1184.44  E(vib)   ...       0.01 
freq.    1195.19  E(vib)   ...       0.01 
freq.    1217.56  E(vib)   ...       0.01 
freq.    1250.37  E(vib)   ...       0.01 
freq.    1266.72  E(vib)   ...       0.01 
freq.    1289.49  E(vib)   ...       0.01 
freq.    1343.92  E(vib)   ...       0.01 
freq.    1393.45  E(vib)   ...       0.00 
freq.    1648.87  E(vib)   ...       0.00 
freq.    1654.76  E(vib)   ...       0.00 
freq.    1712.52  E(vib)   ...       0.00 
freq.    3484.45  E(vib)   ...       0.00 
freq.    3505.03  E(vib)   ...       0.00 
freq.    3800.69  E(vib)   ...       0.00 
freq.    3801.94  E(vib)   ...       0.00 

------------
INNER ENERGY
------------

The inner energy is: U= E(el) + E(ZPE) + E(vib) + E(rot) + E(trans)
    E(el)   - is the total energy from the electronic structure calculation
              = E(kin-el) + E(nuc-el) + E(el-el) + E(nuc-nuc)
    E(ZPE)  - the the zero temperature vibrational energy from the frequency calculation
    E(vib)  - the the finite temperature correction to E(ZPE) due to population
              of excited vibrational states
    E(rot)  - is the rotational thermal energy
    E(trans)- is the translational thermal energy

Summary of contributions to the inner energy U:
Electronic energy                ...  -2106.08530081 Eh
Zero point energy                ...      0.14483917 Eh      90.89 kcal/mol
Thermal vibrational correction   ...      0.02738264 Eh      17.18 kcal/mol
Thermal rotational correction    ...      0.00141627 Eh       0.89 kcal/mol
Thermal translational correction ...      0.00141627 Eh       0.89 kcal/mol
-----------------------------------------------------------------------
Total thermal energy                  -2105.91024646 Eh


Summary of corrections to the electronic energy:
(perhaps to be used in another calculation)
Total thermal correction                  0.03021518 Eh      18.96 kcal/mol
Non-thermal (ZPE) correction              0.14483917 Eh      90.89 kcal/mol
-----------------------------------------------------------------------
Total correction                          0.17505435 Eh     109.85 kcal/mol


--------
ENTHALPY
--------

The enthalpy is H = U + kB*T
                kB is Boltzmann's constant
Total thermal energy              ...  -2105.91024646 Eh 
Thermal Enthalpy correction       ...      0.00094421 Eh       0.59 kcal/mol
-----------------------------------------------------------------------
Total Enthalpy                    ...  -2105.90930225 Eh


Note: Only C1 symmetry has been detected, increase convergence thresholds 
      if your molecule has a higher symmetry. Symmetry factor of 1.0 is   
      used for the rotational entropy correction. 
 

Note: Rotational entropy computed according to Herzberg 
Infrared and Raman Spectra, Chapter V,1, Van Nostrand Reinhold, 1945 
Point Group:  C1, Symmetry Number:   1  
Rotational constants in cm-1:     0.013012     0.003226     0.002937 

Vibrational entropy computed according to the QRRHO of S. Grimme
Chem.Eur.J. 2012 18 9955 using a reference frequency of 100.0 cm-1


-------
ENTROPY
-------

The entropy contributions are T*S = T*(S(el)+S(vib)+S(rot)+S(trans))
     S(el)   - electronic entropy
     S(vib)  - vibrational entropy
     S(rot)  - rotational entropy
     S(trans)- translational entropy
The entropies will be listed as multiplied by the temperature to get
units of energy

Electronic entropy                ...      0.00000000 Eh      0.00 kcal/mol
Vibrational entropy               ...      0.05077689 Eh     31.86 kcal/mol
Rotational entropy                ...      0.01702111 Eh     10.68 kcal/mol
Translational entropy             ...      0.02099854 Eh     13.18 kcal/mol
-----------------------------------------------------------------------
Final entropy term                ...      0.08879654 Eh     55.72 kcal/mol

In case the symmetry of your molecule has not been determined correctly
or in case you have a reason to use a different symmetry number we print 
out the resulting rotational entropy values for sn=1,12:

 non-linear molecules -----------------------------------
|  sn= 1 | S(rot)=       0.01702111 Eh     10.68 kcal/mol|
|  sn= 2 | S(rot)=       0.01636665 Eh     10.27 kcal/mol|
|  sn= 3 | S(rot)=       0.01598382 Eh     10.03 kcal/mol|
|  sn= 4 | S(rot)=       0.01571220 Eh      9.86 kcal/mol|
|  sn= 5 | S(rot)=       0.01550151 Eh      9.73 kcal/mol|
|  sn= 6 | S(rot)=       0.01532936 Eh      9.62 kcal/mol|
|  sn= 7 | S(rot)=       0.01518382 Eh      9.53 kcal/mol|
|  sn= 8 | S(rot)=       0.01505774 Eh      9.45 kcal/mol|
|  sn= 9 | S(rot)=       0.01494653 Eh      9.38 kcal/mol|
|  sn=10 | S(rot)=       0.01484705 Eh      9.32 kcal/mol|
|  sn=11 | S(rot)=       0.01475706 Eh      9.26 kcal/mol|
|  sn=12 | S(rot)=       0.01467491 Eh      9.21 kcal/mol|
 linear molecules ---------------------------------------
|  Dinfh | S(rot)=       0.01083073 Eh      6.80 kcal/mol|
|  Cinfv | S(rot)=       0.01148519 Eh      7.21 kcal/mol|
 --------------------------------------------------------


-------------------
GIBBS FREE ENERGY
-------------------

The Gibbs free energy is G = H - T*S

Total enthalpy                    ...  -2105.90930225 Eh 
Total entropy correction          ...     -0.08879654 Eh    -55.72 kcal/mol
-----------------------------------------------------------------------
Final Gibbs free energy         ...  -2105.99809880 Eh

For completeness - the Gibbs free energy minus the electronic energy
G-E(el)                           ...      0.08720202 Eh     54.72 kcal/mol


Maximum memory used throughout the entire PROP-calculation: 426.1 MB

--------------------------------
SUGGESTED CITATIONS FOR THIS RUN
--------------------------------

Below you find a list of papers that are relevant to this ORCA run
We neither can nor want to force you to cite these papers, but we appreciate if you do
You receive ORCA, which is the product of decades of hard work by many enthusiastic individuals, for free
The only thing we kindly ask in return is that you cite our papers,
We deeply appreciate it, if you show your appreciation for ORCA by not just citing the generic ORCA reference.

Please note that relegating all ORCA citations to the supporting information does *not* help us.
SI sections are not indexed - citations you put there will not count into any citation statistics
But we need these citations in order to attract the funding resources that allow us to do what we are doing

Therefore, if you are a happy ORCA user, please consider citing a few of the papers listed below in the main body of your paper

In addition to the list printed below, the program has created the file rf_mecn_2H2O_freq_B3L_con_01.bibtex that contains the list in bibtex format
You can import this file easily into all common literature databanks and citation aid programs


List of essential papers. We consider these as the minimum necessary citations

  1. Neese,F.
     Software update: the ORCA program system, version 5.0
     WIRES Comput. Molec. Sci., 2022 12(1)e1606
     doi.org/10.1002/wcms.1606

List of papers to cite with high priority. The work reported in these papers was absolutely
necessary for this run to complete.
Our perspective: the developers of density functionals and basis sets usually get cited in chemistry papers
Good! But without the algorithms to do something with them, the functionals or basis sets would not do anything.
Hence, in our opinion, the algorithm design and method developments papers are equally worthy of getting cited

  1. Neese,F.
     An improvement of the resolution of the identity approximation for the formation of the Coulomb matrix
     J. Comp. Chem., 2003 24(14)1740-1747
     doi.org/10.1002/jcc.10318
  2. Neese,F.; Wennmohs,F.; Hansen,A.; Becker,U.
     Efficient, approximate and parallel Hartree-Fock and hybrid DFT calculations. A 'chain-of-spheres' algorithm for the Hartree-Fock exchange
     Chem. Phys., 2009 356(1-3)98-109
     doi.org/10.1016/j.chemphys.2008.10.036
  3. Bykov,D.; Petrenko,T.; Izsak,R.; Kossmann,S.; Becker,U.; Valeev,E.; Neese,F.
     Efficient implementation of the analytic second derivatives of Hartree-Fock and hybrid DFT energies: a detailed analysis of different approximations
     Molec. Phys., 2015 113 1961-1977
     doi.org/10.1080/00268976.2015.1025114
  4. Garcia-Rates,M.; Neese,F.
     Efficient implementation of the analytical second derivatives of hartree-fock and hybrid DFT energies within the framework of the conductor-like polarizable continuum model
     J. Comput. Chem., 2019 40 1816-1828
     doi.org/10.1002/jcc.25833
  5. Garcia-Rates,M.; Neese,F.
     Effect of the Solute Cavity on the Solvation Energy and its Derivatives within the Framework of the Gaussian Charge Scheme
     J. Comput. Chem., 2020 41 922-939
     doi.org/10.1002/jcc.26139
  6. Helmich-Paris,B.; de Souza,B.; Neese,F.; Izsák,R.
     An improved chain of spheres for exchange algorithm
     J. Chem. Phys., 2021 155 104109
     doi.org/doi: 10.1063/5.0058766.
  7. Neese,F.
     The SHARK Integral Generation and Digestion System
     J. Comp. Chem., 2022  1-16
     doi.org/10.1002/jcc.26942
  8. Grimme,S.; Antony,J.; Ehrlich,S.; Krieg,H.
     A consistent and accurate ab initio parametrization of density functional dispersion correction (DFT-D) for the 94 elements H-Pu
     J. Chem. Phys., 2010 132 154104
     doi.org/10.1063/1.3382344
  9. Grimme,S.; Ehrlich,S.; Goerigk,L.
     Effect of the damping function in dispersion corrected density functional theory
     J. Comput. Chem., 2011 32(7)1456-1465
     doi.org/10.1002/jcc.21759

List of suggested additional citations. These are papers that are important in the 'surrounding' of 
of this run, or papers that preceded the highly important papers. If you like your results we are grateful for a citation.

  1. Izsak,R.; Neese,F.
     An overlap fitted chain of spheres exchange method
     J. Chem. Phys., 2011 135 144105
     doi.org/10.1063/1.3646921
  2. Izsak,R.; Hansen,A.; Neese,F.
     The resolution of identity and chain of spheres approximations for the LPNO-CCSD singles Fock term
     Molec. Phys., 2012 110 2413-2417
     doi.org/10.1080/00268976.2012.687466
  3. Neese,F.
     The ORCA program system
     WIRES Comput. Molec. Sci., 2012 2(1)73-78
     doi.org/10.1002/wcms.81
  4. Izsak,R.; Neese,F.; Klopper,W.
     Robust fitting techniques in the chain of spheres approximation to the Fock exchange: The role of the complementary space
     J. Chem. Phys., 2013 139 
     doi.org/10.1063/1.4819264
  5. Neese,F.
     Software update: the ORCA program system, version 4.0
     WIRES Comput. Molec. Sci., 2018 8(1)1-6
     doi.org/10.1002/wcms.1327
  6. Neese,F.; Wennmohs,F.; Becker,U.; Riplinger,C.
     The ORCA quantum chemistry program package
     J. Chem. Phys., 2020 152 Art. No. L224108
     doi.org/10.1063/5.0004608

List of optional additional citations

  1. Neese,F.
     Approximate second-order SCF convergence for spin unrestricted wavefunctions
     Chem. Phys. Lett., 2000 325(1-3)93-98
     doi.org/10.1016/s0009-2614(00)00662-x

Timings for individual modules:

Sum of individual times          ...     1175.691 sec (=  19.595 min)
Startup calculation              ...        4.570 sec (=   0.076 min)   0.4 %
SCF iterations                   ...      104.729 sec (=   1.745 min)   8.9 %
Property integrals               ...      252.757 sec (=   4.213 min)  21.5 %
SCF Response                     ...      490.521 sec (=   8.175 min)  41.7 %
Property calculations            ...      323.114 sec (=   5.385 min)  27.5 %
                             ****ORCA TERMINATED NORMALLY****
TOTAL RUN TIME: 0 days 0 hours 19 minutes 36 seconds 617 msec
