
                                 *****************
                                 * O   R   C   A *
                                 *****************

                                            #,                                       
                                            ###                                      
                                            ####                                     
                                            #####                                    
                                            ######                                   
                                           ########,                                 
                                     ,,################,,,,,                         
                               ,,#################################,,                 
                          ,,##########################################,,             
                       ,#########################################, ''#####,          
                    ,#############################################,,   '####,        
                  ,##################################################,,,,####,       
                ,###########''''           ''''###############################       
              ,#####''   ,,,,##########,,,,          '''####'''          '####       
            ,##' ,,,,###########################,,,                        '##       
           ' ,,###''''                  '''############,,,                           
         ,,##''                                '''############,,,,        ,,,,,,###''
      ,#''                                            '''#######################'''  
     '                                                          ''''####''''         
             ,#######,   #######,   ,#######,      ##                                
            ,#'     '#,  ##    ##  ,#'     '#,    #''#        ,####,   ,####,        
            ##       ##  ##   ,#'  ##            #'  '#       #'       #'  '#        
            ##       ##  #######   ##           ,######,      #####,   #    #        
            '#,     ,#'  ##    ##  '#,     ,#' ,#      #,     #,   #   #,  ,#        
             '#######'   ##     ##  '#######'  #'      '#     '####' # '####'        



                #########################################################
                #                        -***-                          #
                #          Department of theory and spectroscopy        #
                #                                                       #
                #                      Frank Neese                      #
                #                                                       #
                #     Directorship, Architecture, Infrastructure        #
                #                    SHARK, DRIVERS                     #
                #        Core code/Algorithms in most modules           #
                #                                                       #
                #        Max Planck Institute fuer Kohlenforschung      #
                #                Kaiser Wilhelm Platz 1                 #
                #                 D-45470 Muelheim/Ruhr                 #
                #                      Germany                          #
                #                                                       #
                #                  All rights reserved                  #
                #                        -***-                          #
                #########################################################


                         Program Version 6.0.1  -  RELEASE   -


 With contributions from (in alphabetic order):
[Max-Planck-Institut fuer Kohlenforschung]                               
  Daniel Aravena         : Magnetic Suceptibility                        
  Michael Atanasov       : Ab Initio Ligand Field Theory (pilot matlab implementation)
  Alexander A. Auer      : GIAO ZORA, VPT2 properties, NMR spectrum      
  Ute Becker             : All parallelization in ORCA, NUMFREQ, NUMCALC 
  Giovanni Bistoni       : ED, misc. LED, open-shell LED, HFLD           
  Martin Brehm           : Molecular dynamics                            
  Dmytro Bykov           : pre 5.0 version of the SCF Hessian            
  Marcos Casanova-Páez   : Triplet and SCS-CIS(D). UHF-(DLPNO)-IP/EA/STEOM-CCSD. UHF-CVS-IP/STEOM-CCSD   
  Vijay G. Chilkuri      : MRCI spin determinant printing, contributions to CSF-ICE 
  Pauline Colinet        : FMM embedding                                 
  Dipayan Datta          : RHF DLPNO-CCSD density                        
  Achintya Kumar Dutta   : EOM-CC, STEOM-CC                              
  Nicolas Foglia         : Exact transition moments, OPA infrastructure, MCD improvements    
  Dmitry Ganyushin       : Spin-Orbit,Spin-Spin,Magnetic field MRCI      
  Miquel Garcia-Rates    : C-PCM and meta-GGA Hessian, CCSD/C-PCM, Gaussian charge scheme 
  Tiago L. C. Gouveia    : GS-ROHF, GS-ROCIS                             
  Yang Guo               : DLPNO-NEVPT2, F12-NEVPT2, CIM, IAO-localization        
  Andreas Hansen         : Spin unrestricted coupled pair/coupled cluster methods 
  Ingolf Harden          : AUTO-CI MPn and infrastructure                
  Benjamin Helmich-Paris : MC-RPA, TRAH-(SCF,CASSCF), AVAS, COSX integrals, SCF dyn. polar. 
  Lee Huntington         : MR-EOM, pCC                                   
  Robert Izsak           : Overlap fitted RIJCOSX, COSX-SCS-MP3, EOM     
  Riya Kayal             : Wick's Theorem for AUTO-CI, AUTO-CI UHF-CCSDT 
  Emily Kempfer          : AUTO-CI, RHF CISDT and CCSDT                  
  Christian Kollmar      : KDIIS, OOCD, Brueckner-CCSD(T), CCSD density, CASPT2, CASPT2-K, improved NEVPT2 
  Axel Koslowski         : Symmetry handling                             
  Simone Kossmann        : meta-GGA functionals, TD-DFT gradient, OOMP2, (MP2 Hessian; deprecated post 5.0) 
  Lucas Lang             : DCDCAS                                        
  Marvin Lechner         : AUTO-CI (C++ implementation), FIC-MRCC        
  Spencer Leger          : CASSCF response                               
  Dagmar Lenk            : GEPOL surface, SMD, ORCA-2-JSON               
  Dimitrios Liakos       : Extrapolation schemes; Compound Job, initial MDCI parallelization 
  Dimitrios Manganas     : Further ROCIS development; embedding schemes. LFT, Crystal Embedding 
  Dimitrios Pantazis     : SARC Basis sets                               
  Anastasios Papadopoulos: AUTO-CI, single reference methods and gradients 
  Taras Petrenko         : pre 6.0 DFT Hessian and TD-DFT gradient, (ASA, deprecated), ECA, 1-Electron XAS/XES, NRVS 
  Peter Pinski           : DLPNO-MP2, DLPNO-MP2 Gradient                 
  Christoph Reimann      : Effective Core Potentials                     
  Marius Retegan         : Local ZFS, SOC                                
  Christoph Riplinger    : Optimizer, TS searches, QM/MM, DLPNO-CCSD(T), (RO)-DLPNO pert. Triples 
  Michael Roemelt        : Original ROCIS implementation                 
  Masaaki Saitow         : Open-shell DLPNO-CCSD energy and density      
  Barbara Sandhoefer     : DKH picture change effects                    
  Kantharuban Sivalingam : CASSCF convergence/infrastructure, NEVPT2 and variants, FIC-MRCI 
  Bernardo de Souza      : ESD, SOC TD-DFT                               
  Georgi L. Stoychev     : AutoAux, RI-MP2 NMR, DLPNO-MP2 response, X2C  
  Van Anh Tran           : RI-MP2 g-tensors                              
  Willem Van den Heuvel  : Paramagnetic NMR                              
  Zikuan Wang            : NOTCH, Electric field optimization            
  Frank Wennmohs         : Technical directorship and infrastructure     
  Hang Xu                : AUTO-CI-Response properties                   
                                                                         
[FACCTs GmbH]                                                            
  Markus Bursch, Miquel Garcia-Rates, Christoph Riplinger, Bernardo de Souza, Georgi L. Stoychev 
                                                                 
  APM, Basis sets (HGBS, AHGBS, def-TZVP (Ac-Lr), def2-XVPD (La-Lu)), CI-OPT, improved COSX, DLPNO-Multilevel,           
  DOCKER, DRACO, updates on ESD, GOAT, IRC, LR-CPCM, MBIS, meta-GGA TD-DFT gradient, ML-optimized integration grids, 
  MM, NACMEs, nearIR, NEB, NEB-TS, NL-DFT gradient (VV10), 2- and 3-layer-ONIOM, interface openCOSMO-RS, QMMM,   
  Crystal-QMMM, SF, symmetry and pop. for TD-DFT, r2SCAN hybrids, SOLVATOR                                   
                                                                         
[Other institutions]                                                     
  V. Asgeirsson          : NEB                                           
  Christoph Bannwarth    : sTDA-DFT, sTD-DFT, PBEh-3c, B97-3c, D3        
  Sebastian Ehlert       : rSCAN, r2SCAN, r2SCAN-3c, D4, dhf basis sets  
  Marvin Friede          : D4 for Fr, Ra, Ac-Lr                          
  Lars Goerigk           : TD-DFT with DH, B97 family of functionals     
  Stefan Grimme          : VdW corrections, initial TS optimization, DFT functionals, gCP, sTDA/sTD-DF 
  Waldemar Hujo          : DFT-NL                                        
  H. Jonsson             : NEB                                           
  Holger Kruse           : gCP                                           
  Marcel Mueller         : wB97X-3c, vDZP basis set                      
  Hagen Neugebauer       : wr2SCAN                                       
  Tobias Risthaus        : range-separated hybrid DFT                    
  Lukas Wittmann         : regularized MP2, r2SCAN double-hybrids, wr2SCAN        
                                                                         
We gratefully acknowledge several colleagues who have allowed us to      
interface, adapt or use parts of their codes:                            
  Ed Valeev, F. Pavosevic, A. Kumar             : LibInt (2-el integral package), F12 methods 
  Garnet Chan, S. Sharma, J. Yang, R. Olivares  : DMRG                   
  Ulf Ekstrom                                   : XCFun DFT Library      
  Mihaly Kallay                                 : mrcc  (arbitrary order and MRCC methods)
  Frank Weinhold                                : gennbo (NPA and NBO analysis)           
  Simon Mueller                                 : openCOSMO-RS                            
  Christopher J. Cramer and Donald G. Truhlar   : smd solvation model                     
  S Lehtola, MJT Oliveira, MAL Marques          : LibXC Library                           
  Liviu Ungur et al                             : ANISO software                          


 Your calculation uses the libint2 library for the computation of 2-el integrals
 For citations please refer to: http://libint.valeyev.net

 Your ORCA version has been built with support for libXC version: 6.2.2
 For citations please refer to: https://libxc.gitlab.io

 This ORCA versions uses:
   CBLAS   interface :  Fast vector & matrix operations
   LAPACKE interface :  Fast linear algebra routines
   SCALAPACK package :  Parallel linear algebra routines
   Shared memory     :  Shared parallel matrices
   BLAS/LAPACK       :  OpenBLAS 0.3.27  USE64BITINT DYNAMIC_ARCH NO_AFFINITY SkylakeX SINGLE_THREADED
        Core in use  :  SkylakeX
   Copyright (c) 2011-2014, The OpenBLAS Project


NOTE: MaxCore=8000 MB was set to SCF,MP2,MDCI,CIPSI,MRCI and CIS
      => If you want to overwrite this, your respective input block should be placed after the MaxCore statement
Your calculation utilizes the atom-pairwise dispersion correction
with the Becke-Johnson damping scheme (D3BJ)


Your calculation utilizes the SMD solvation module
Please cite in your paper:
A.V. Marenich, C.J. Cramer, D.G. Truhlar J. Phys. Chem. B, 113, (2009), 6378 

Warning: RI is on but no J-basis has been assigned. Assigning Def2/J (nothing to worry about!)
================================================================================

----- Orbital basis set information -----
Your calculation utilizes the basis: def2-TZVP
   F. Weigend and R. Ahlrichs, Phys. Chem. Chem. Phys. 7, 3297 (2005).

----- AuxJ basis set information -----
Your calculation utilizes the auxiliary basis: def2/J
   F. Weigend, Phys. Chem. Chem. Phys. 8, 1057 (2006).

================================================================================
                                        WARNINGS
                       Please study these warnings very carefully!
================================================================================



WARNING: SCAN, rSCAN, or r2SCAN functional requested.
  ===> : libXC variant has now been activated.



WARNING: your system is open-shell and RHF/RKS was chosen
  ===> : WILL SWITCH to UHF/UKS


WARNING: Geometry Optimization
  ===> : Switching off AutoStart
         For restart on a previous wavefunction, please use MOREAD

================================================================================
                                       INPUT FILE
================================================================================
NAME = rf_mecn_opt_r2s_C2_P_B.inp
|  1> !r2scanh def2-TZVP opt d3 TightSCF SlowConv defgrid2
|  2>  
|  3> %pal
|  4> nprocs 20
|  5> end
|  6>  
|  7> %scf
|  8> MaxIter 1500
|  9> end
| 10>  
| 11> %maxcore 8000
| 12>  
| 13> !CPCM
| 14> %cpcm smd true
| 15> SMDsolvent "ACETONITRILE"
| 16> end
| 17>  
| 18> * xyz 0 2
| 19> 6        4.790427000     -0.033865800     -0.529943200
| 20> 8        5.449345000     -1.206924000     -0.894594600
| 21> 8        4.978223000      1.323071000     -0.737377200
| 22> 6        3.506687600     -0.338741600      0.376153800
| 23> 6        2.222300000      0.400524800     -0.110681600
| 24> 6        0.900506800     -0.386389800      0.175703000
| 25> 6       -0.395261200      0.487294000      0.065549000
| 26> 6       -1.705693600     -0.364773800     -0.068373600
| 27> 6       -3.005136200      0.445344800      0.258164000
| 28> 6       -4.319880200     -0.214526000     -0.270540800
| 29> 9        3.211587400     -1.692050400      0.412735200
| 30> 9        2.125696800      1.616867800      0.483236600
| 31> 9        2.314152400      0.589704000     -1.455769200
| 32> 9        0.794028800     -1.413561400     -0.700839000
| 33> 9        0.958350600     -0.884509000      1.435093400
| 34> 9       -0.498373400      1.260265600      1.173340200
| 35> 9       -0.299075000      1.289512600     -1.020910800
| 36> 9       -1.641790400     -1.418189000      0.779523800
| 37> 9       -1.792381400     -0.831391600     -1.336863600
| 38> 9       -2.918792200      1.679227200     -0.295171200
| 39> 9       -3.119771000      0.573779800      1.598579800
| 40> 9       -4.383115600     -1.504377600      0.089127600
| 41> 9       -5.365669800      0.430528600      0.260394200
| 42> 9       -4.396020400     -0.128550600     -1.602941800
| 43> 1        5.903122371     -2.014774547     -1.145719253
| 44> *
| 45> 
| 46>                          ****END OF INPUT****
================================================================================

                       *****************************
                       * Geometry Optimization Run *
                       *****************************

Geometry optimization settings:
Update method            Update   .... BFGS
Choice of coordinates    CoordSys .... (2022) Redundant Internals
Initial Hessian          InHess   .... Almloef's Model
Max. no of cycles        MaxIter  .... 75

Convergence Tolerances:
Energy Change            TolE     ....  5.0000e-06 Eh
Max. Gradient            TolMAXG  ....  3.0000e-04 Eh/bohr
RMS Gradient             TolRMSG  ....  1.0000e-04 Eh/bohr
Max. Displacement        TolMAXD  ....  4.0000e-03 bohr
RMS Displacement         TolRMSD  ....  2.0000e-03 bohr
Strict Convergence                .... False

------------------------------------------------------------------------------
                        ORCA OPTIMIZATION COORDINATE SETUP
------------------------------------------------------------------------------

The optimization will be done in redundant internal coordinates (2022)
Making redundant internal coordinates   ...  (2022 redundants) done
Evaluating the initial hessian          ...  (Almloef) done
Evaluating the coordinates              ...  done
Calculating the B-matrix                .... done
Calculating the G-matrix                .... done
Diagonalizing the G-matrix              .... done
Small eigenvalue found = 4.736e-03
Small eigenvalue found = 1.221e-02
Small eigenvalue found = 2.954e-02
The first mode is                       ....   38
The number of degrees of freedom        ....   69

    -----------------------------------------------------------------
                    Redundant Internal Coordinates


    -----------------------------------------------------------------
         Definition                    Initial Value    Approx d2E/dq
    -----------------------------------------------------------------
      1. B(O   1,C   0)                  1.3940         0.551454   
      2. B(O   2,C   0)                  1.3855         0.568952   
      3. B(C   3,C   0)                  1.6006         0.288221   
      4. B(C   4,C   3)                  1.5599         0.334759   
      5. B(C   5,C   4)                  1.5647         0.328824   
      6. B(C   6,C   5)                  1.5667         0.326486   
      7. B(C   7,C   6)                  1.5688         0.323927   
      8. B(C   8,C   7)                  1.5657         0.327637   
      9. B(C   9,C   8)                  1.5632         0.330714   
     10. B(F  10,C   3)                  1.3856         0.528443   
     11. B(F  11,C   4)                  1.3570         0.586881   
     12. B(F  12,C   4)                  1.3614         0.577499   
     13. B(F  13,C   5)                  1.3545         0.592326   
     14. B(F  14,C   5)                  1.3556         0.590092   
     15. B(F  15,C   6)                  1.3547         0.591865   
     16. B(F  16,C   6)                  1.3540         0.593567   
     17. B(F  17,C   7)                  1.3538         0.593973   
     18. B(F  18,C   7)                  1.3544         0.592672   
     19. B(F  19,C   8)                  1.3550         0.591238   
     20. B(F  20,C   8)                  1.3514         0.599114   
     21. B(F  21,C   9)                  1.3406         0.623533   
     22. B(F  22,C   9)                  1.3385         0.628179   
     23. B(F  23,C   9)                  1.3373         0.630929   
     24. B(H  24,O   1)                  0.9600         0.519956   
     25. A(O   1,C   0,O   2)          136.1318         0.413163   
     26. A(O   2,C   0,C   3)          112.3347         0.371210   
     27. A(O   1,C   0,C   3)          111.5249         0.369222   
     28. L(C   0,O   1,H  24,C   3, 2) 180.0000         0.362759   
     29. L(C   0,O   1,H  24,C   3, 1) 180.0000         0.362759   
     30. A(C   4,C   3,F  10)          107.2033         0.374492   
     31. A(C   0,C   3,C   4)          113.1687         0.341363   
     32. A(C   0,C   3,F  10)          111.8265         0.364982   
     33. A(C   3,C   4,F  12)          108.5818         0.380286   
     34. A(C   3,C   4,F  11)          110.2926         0.381351   
     35. A(C   3,C   4,C   5)          113.5839         0.349005   
     36. A(F  11,C   4,F  12)          108.2194         0.415201   
     37. A(C   5,C   4,F  11)          108.0911         0.380169   
     38. A(C   5,C   4,F  12)          107.9208         0.379109   
     39. A(F  13,C   5,F  14)          109.0206         0.417483   
     40. A(C   6,C   5,F  14)          107.7906         0.380059   
     41. A(C   4,C   5,F  14)          108.5900         0.380529   
     42. A(C   6,C   5,F  13)          108.2026         0.380308   
     43. A(C   4,C   5,F  13)          109.2282         0.380779   
     44. A(C   4,C   5,C   6)          113.9128         0.347536   
     45. A(C   5,C   6,C   7)          113.2023         0.346660   
     46. A(F  15,C   6,F  16)          108.8752         0.417862   
     47. A(C   7,C   6,F  16)          108.2186         0.379927   
     48. A(C   5,C   6,F  16)          109.1523         0.380446   
     49. A(C   7,C   6,F  15)          108.4284         0.379738   
     50. A(C   5,C   6,F  15)          108.8835         0.380256   
     51. A(C   8,C   7,F  18)          108.6915         0.380579   
     52. A(C   6,C   7,F  18)          108.6955         0.379828   
     53. A(C   8,C   7,F  17)          108.1296         0.380723   
     54. A(F  17,C   7,F  18)          108.7561         0.418014   
     55. A(C   6,C   7,F  17)          109.2524         0.379972   
     56. A(C   6,C   7,C   8)          113.2298         0.346865   
     57. A(F  19,C   8,F  20)          108.8987         0.418476   
     58. A(C   7,C   8,C   9)          114.1471         0.348078   
     59. A(C   9,C   8,F  20)          107.7127         0.381912   
     60. A(C   7,C   8,F  20)          109.0521         0.381293   
     61. A(C   9,C   8,F  19)          107.4499         0.381036   
     62. A(C   7,C   8,F  19)          109.4572         0.380419   
     63. A(F  22,C   9,F  23)          108.6464         0.426961   
     64. A(F  21,C   9,F  23)          109.0552         0.426394   
     65. A(C   8,C   9,F  23)          110.9604         0.385362   
     66. A(F  21,C   9,F  22)          108.6877         0.426061   
     67. A(C   8,C   9,F  22)          108.6349         0.385069   
     68. A(C   8,C   9,F  21)          110.7995         0.384572   
     69. D(C   4,C   3,C   0,O   1)   -131.0839         0.006172   
     70. D(F  10,C   3,C   0,O   1)     -9.8890         0.006172   
     71. D(C   4,C   3,C   0,O   2)     49.8076         0.006172   
     72. D(F  10,C   3,C   0,O   2)    171.0025         0.006172   
     73. D(C   5,C   4,C   3,C   0)    148.6429         0.008543   
     74. D(F  11,C   4,C   3,C   0)    -89.8453         0.008543   
     75. D(F  12,C   4,C   3,C   0)     28.5784         0.008543   
     76. D(F  11,C   4,C   3,F  10)    146.3851         0.008543   
     77. D(C   5,C   4,C   3,F  10)     24.8733         0.008543   
     78. D(F  13,C   5,C   4,F  11)    162.3014         0.008811   
     79. D(C   6,C   5,C   4,F  12)    -75.6292         0.008811   
     80. D(C   6,C   5,C   4,F  11)     41.2001         0.008811   
     81. D(F  13,C   5,C   4,C   3)    -74.9661         0.008811   
     82. D(F  13,C   5,C   4,F  12)     45.4721         0.008811   
     83. D(C   6,C   5,C   4,C   3)    163.9326         0.008811   
     84. D(F  15,C   6,C   5,F  14)     44.2190         0.008700   
     85. D(F  15,C   6,C   5,F  13)    161.9826         0.008700   
     86. D(F  15,C   6,C   5,C   4)    -76.3465         0.008700   
     87. D(C   7,C   6,C   5,F  14)    -76.4529         0.008700   
     88. D(C   7,C   6,C   5,F  13)     41.3107         0.008700   
     89. D(C   7,C   6,C   5,C   4)    162.9815         0.008700   
     90. D(F  17,C   7,C   6,F  15)    -79.1358         0.008578   
     91. D(F  17,C   7,C   6,C   5)     41.7939         0.008578   
     92. D(C   8,C   7,C   6,F  16)    -76.5134         0.008578   
     93. D(C   8,C   7,C   6,F  15)     41.4341         0.008578   
     94. D(F  17,C   7,C   6,F  16)    162.9167         0.008578   
     95. D(C   8,C   7,C   6,C   5)    162.3638         0.008578   
     96. D(F  19,C   8,C   7,C   6)     41.9584         0.008755   
     97. D(C   9,C   8,C   7,F  18)     41.5227         0.008755   
     98. D(C   9,C   8,C   7,F  17)    -76.3785         0.008755   
     99. D(C   9,C   8,C   7,C   6)    162.4166         0.008755   
    100. D(F  19,C   8,C   7,F  18)    -78.9355         0.008755   
    101. D(F  19,C   8,C   7,F  17)    163.1633         0.008755   
    102. D(F  22,C   9,C   8,F  19)    -69.0724         0.008903   
    103. D(F  22,C   9,C   8,C   7)    169.3552         0.008903   
    104. D(F  21,C   9,C   8,F  20)    -71.2185         0.008903   
    105. D(F  21,C   9,C   8,F  19)    171.5999         0.008903   
    106. D(F  22,C   9,C   8,F  20)     48.1091         0.008903   
    107. D(F  21,C   9,C   8,C   7)     50.0276         0.008903   
    -----------------------------------------------------------------

Number of atoms                         .... 25
Number of degrees of freedom            .... 107


         *************************************************************
         *                GEOMETRY OPTIMIZATION CYCLE   1            *
         *************************************************************
---------------------------------
CARTESIAN COORDINATES (ANGSTROEM)
---------------------------------
  C      4.790427   -0.033866   -0.529943
  O      5.449345   -1.206924   -0.894595
  O      4.978223    1.323071   -0.737377
  C      3.506688   -0.338742    0.376154
  C      2.222300    0.400525   -0.110682
  C      0.900507   -0.386390    0.175703
  C     -0.395261    0.487294    0.065549
  C     -1.705694   -0.364774   -0.068374
  C     -3.005136    0.445345    0.258164
  C     -4.319880   -0.214526   -0.270541
  F      3.211587   -1.692050    0.412735
  F      2.125697    1.616868    0.483237
  F      2.314152    0.589704   -1.455769
  F      0.794029   -1.413561   -0.700839
  F      0.958351   -0.884509    1.435093
  F     -0.498373    1.260266    1.173340
  F     -0.299075    1.289513   -1.020911
  F     -1.641790   -1.418189    0.779524
  F     -1.792381   -0.831392   -1.336864
  F     -2.918792    1.679227   -0.295171
  F     -3.119771    0.573780    1.598580
  F     -4.383116   -1.504378    0.089128
  F     -5.365670    0.430529    0.260394
  F     -4.396020   -0.128551   -1.602942
  H      5.903122   -2.014775   -1.145719

----------------------------
CARTESIAN COORDINATES (A.U.)
----------------------------
  NO LB      ZA    FRAG     MASS         X           Y           Z
   0 C     6.0000    0    12.011    9.052595   -0.063997   -1.001448
   1 O     8.0000    0    15.999   10.297770   -2.280756   -1.690539
   2 O     8.0000    0    15.999    9.407478    2.500242   -1.393441
   3 C     6.0000    0    12.011    6.626679   -0.640129    0.710828
   4 C     6.0000    0    12.011    4.199538    0.756882   -0.209158
   5 C     6.0000    0    12.011    1.701711   -0.730171    0.332031
   6 C     6.0000    0    12.011   -0.746935    0.920852    0.123870
   7 C     6.0000    0    12.011   -3.223294   -0.689323   -0.129207
   8 C     6.0000    0    12.011   -5.678884    0.841580    0.487859
   9 C     6.0000    0    12.011   -8.163391   -0.405395   -0.511248
  10 F     9.0000    0    18.998    6.069021   -3.197512    0.779956
  11 F     9.0000    0    18.998    4.016985    3.055437    0.913185
  12 F     9.0000    0    18.998    4.373114    1.114379   -2.751005
  13 F     9.0000    0    18.998    1.500497   -2.671244   -1.324394
  14 F     9.0000    0    18.998    1.811020   -1.671480    2.711934
  15 F     9.0000    0    18.998   -0.941789    2.381557    2.217292
  16 F     9.0000    0    18.998   -0.565170    2.436826   -1.929242
  17 F     9.0000    0    18.998   -3.102534   -2.679989    1.473086
  18 F     9.0000    0    18.998   -3.387110   -1.571102   -2.526306
  19 F     9.0000    0    18.998   -5.515718    3.173280   -0.557793
  20 F     9.0000    0    18.998   -5.895513    1.084287    3.020878
  21 F     9.0000    0    18.998   -8.282888   -2.842862    0.168427
  22 F     9.0000    0    18.998  -10.139646    0.813581    0.492074
  23 F     9.0000    0    18.998   -8.307275   -0.242925   -3.029121
  24 H     1.0000    0     1.008   11.155285   -3.807372   -2.165096

--------------------------------
INTERNAL COORDINATES (ANGSTROEM)
--------------------------------
 C      0   0   0     0.000000000000     0.00000000     0.00000000
 O      1   0   0     1.393990356793     0.00000000     0.00000000
 O      1   2   0     1.385486802956   136.13177198     0.00000000
 C      1   2   3     1.600608594862   111.52489317   181.18992567
 C      4   1   2     1.559863783763   113.16872737   228.91614990
 C      5   4   1     1.564732561934   113.58394786   148.64287440
 C      6   5   4     1.566675459667   113.91280616   163.93256239
 C      7   6   5     1.568817348692   113.20226571   162.98152714
 C      8   7   6     1.565717094808   113.22984595   162.36375422
 C      9   8   7     1.563173062643   114.14707705   162.41661495
 F      4   1   2     1.385592665621   111.82651119   350.11101305
 F      5   4   1     1.357041377479   110.29260564   270.15468021
 F      5   4   1     1.361428031433   108.58179722    28.57841973
 F      6   5   4     1.354527570075   109.22822656   285.03385927
 F      6   5   4     1.355556277776   108.59004089    43.81583148
 F      7   6   5     1.354739297058   108.88346185   283.65347401
 F      7   6   5     1.353957667090   109.15230848    42.38718856
 F      8   7   6     1.353771473879   109.25240264    41.79387651
 F      8   7   6     1.354368423305   108.69554158   283.25540020
 F      9   8   7     1.355028009646   109.45719767    41.95842364
 F      9   8   7     1.351425618925   109.05210362   282.91820052
 F     10   9   8     1.340551089588   110.79953142    50.02756898
 F     10   9   8     1.338530275591   108.63493714   169.35523750
 F     10   9   8     1.337341214598   110.96044107   288.72891896
 H      2   1   3     0.960000000033   180.00000000     0.00000000

---------------------------
INTERNAL COORDINATES (A.U.)
---------------------------
 C      0   0   0     0.000000000000     0.00000000     0.00000000
 O      1   0   0     2.634260007667     0.00000000     0.00000000
 O      1   2   0     2.618190619750   136.13177198     0.00000000
 C      1   2   3     3.024711891890   111.52489317   181.18992567
 C      4   1   2     2.947715357535   113.16872737   228.91614990
 C      5   4   1     2.956916014884   113.58394786   148.64287440
 C      6   5   4     2.960587559506   113.91280616   163.93256239
 C      7   6   5     2.964635143173   113.20226571   162.98152714
 C      8   7   6     2.958776512386   113.22984595   162.36375422
 C      9   8   7     2.953968988318   114.14707705   162.41661495
 F      4   1   2     2.618390671194   111.82651119   350.11101305
 F      5   4   1     2.564436555835   110.29260564   270.15468021
 F      5   4   1     2.572726130452   108.58179722    28.57841973
 F      6   5   4     2.559686148288   109.22822656   285.03385927
 F      6   5   4     2.561630124115   108.59004089    43.81583148
 F      7   6   5     2.560086254300   108.88346185   283.65347401
 F      7   6   5     2.558609187723   109.15230848    42.38718856
 F      8   7   6     2.558257333546   109.25240264    41.79387651
 F      8   7   6     2.559385404477   108.69554158   283.25540020
 F      9   8   7     2.560631842023   109.45719767    41.95842364
 F      9   8   7     2.553824310132   109.05210362   282.91820052
 F     10   9   8     2.533274427850   110.79953142    50.02756898
 F     10   9   8     2.529455642830   108.63493714   169.35523750
 F     10   9   8     2.527208643196   110.96044107   288.72891896
 H      2   1   3     1.814137088628   180.00000000     0.00000000

---------------------
BASIS SET INFORMATION
---------------------
There are 4 groups of distinct atoms

 Group   1 Type C   : 11s6p2d1f contracted to 5s3p2d1f pattern {62111/411/11/1}
 Group   2 Type O   : 11s6p2d1f contracted to 5s3p2d1f pattern {62111/411/11/1}
 Group   3 Type F   : 11s6p2d1f contracted to 5s3p2d1f pattern {62111/411/11/1}
 Group   4 Type H   : 5s1p contracted to 3s1p pattern {311/1}

Atom   0C    basis set group =>   1
Atom   1O    basis set group =>   2
Atom   2O    basis set group =>   2
Atom   3C    basis set group =>   1
Atom   4C    basis set group =>   1
Atom   5C    basis set group =>   1
Atom   6C    basis set group =>   1
Atom   7C    basis set group =>   1
Atom   8C    basis set group =>   1
Atom   9C    basis set group =>   1
Atom  10F    basis set group =>   3
Atom  11F    basis set group =>   3
Atom  12F    basis set group =>   3
Atom  13F    basis set group =>   3
Atom  14F    basis set group =>   3
Atom  15F    basis set group =>   3
Atom  16F    basis set group =>   3
Atom  17F    basis set group =>   3
Atom  18F    basis set group =>   3
Atom  19F    basis set group =>   3
Atom  20F    basis set group =>   3
Atom  21F    basis set group =>   3
Atom  22F    basis set group =>   3
Atom  23F    basis set group =>   3
Atom  24H    basis set group =>   4
---------------------------------
AUXILIARY/J BASIS SET INFORMATION
---------------------------------
There are 4 groups of distinct atoms

 Group   1 Type C   : 12s5p4d2f1g contracted to 6s4p3d1f1g pattern {711111/2111/211/2/1}
 Group   2 Type O   : 12s5p4d2f1g contracted to 6s4p3d1f1g pattern {711111/2111/211/2/1}
 Group   3 Type F   : 12s5p4d2f1g contracted to 6s4p3d1f1g pattern {711111/2111/211/2/1}
 Group   4 Type H   : 5s2p1d contracted to 3s1p1d pattern {311/2/1}

Atom   0C    basis set group =>   1
Atom   1O    basis set group =>   2
Atom   2O    basis set group =>   2
Atom   3C    basis set group =>   1
Atom   4C    basis set group =>   1
Atom   5C    basis set group =>   1
Atom   6C    basis set group =>   1
Atom   7C    basis set group =>   1
Atom   8C    basis set group =>   1
Atom   9C    basis set group =>   1
Atom  10F    basis set group =>   3
Atom  11F    basis set group =>   3
Atom  12F    basis set group =>   3
Atom  13F    basis set group =>   3
Atom  14F    basis set group =>   3
Atom  15F    basis set group =>   3
Atom  16F    basis set group =>   3
Atom  17F    basis set group =>   3
Atom  18F    basis set group =>   3
Atom  19F    basis set group =>   3
Atom  20F    basis set group =>   3
Atom  21F    basis set group =>   3
Atom  22F    basis set group =>   3
Atom  23F    basis set group =>   3
Atom  24H    basis set group =>   4


           ************************************************************
           *        Program running with 20 parallel MPI-processes    *
           *              working on a common directory               *
           ************************************************************
------------------------------------------------------------------------------
                             ORCA STARTUP CALCULATIONS
                           -- RI-GTO INTEGRALS CHOSEN --
------------------------------------------------------------------------------
------------------------------------------------------------------------------
                   ___                                                        
                  /   \      - P O W E R E D   B Y -                         
                 /     \                                                     
                 |  |  |   _    _      __       _____    __    __             
                 |  |  |  | |  | |    /  \     |  _  \  |  |  /  |          
                  \  \/   | |  | |   /    \    | | | |  |  | /  /          
                 / \  \   | |__| |  /  /\  \   | |_| |  |  |/  /          
                |  |  |   |  __  | /  /__\  \  |    /   |      \           
                |  |  |   | |  | | |   __   |  |    \   |  |\   \          
                \     /   | |  | | |  |  |  |  | |\  \  |  | \   \       
                 \___/    |_|  |_| |__|  |__|  |_| \__\ |__|  \__/        
                                                                              
                      - O R C A' S   B I G   F R I E N D -                    
                                      &                                       
                       - I N T E G R A L  F E E D E R -                       
                                                                              
 v1 FN, 2020, v2 2021, v3 2022-2024                                           
------------------------------------------------------------------------------


----------------------
SHARK INTEGRAL PACKAGE
----------------------

Number of atoms                             ...     25
Number of basis functions                   ...    750
Number of shells                            ...    268
Maximum angular momentum                    ...      3
Integral batch strategy                     ... SHARK/LIBINT Hybrid
RI-J (if used) integral strategy            ... SPLIT-RIJ (Revised 2003 algorithm where possible)
Printlevel                                  ...      1
Contraction scheme used                     ... SEGMENTED contraction
Prescreening option                         ... SCHWARTZ
   Thresh                                   ... 2.500e-11
   Tcut                                     ... 2.500e-12
   Tpresel                                  ... 2.500e-12 
Coulomb Range Separation                    ... NOT USED
Exchange Range Separation                   ... NOT USED
Multipole approximations                    ... NOT USED
Finite Nucleus Model                        ... NOT USED
CABS basis                                  ... NOT available
Auxiliary Coulomb fitting basis             ... AVAILABLE
   # of basis functions in Aux-J            ...   1187
   # of shells in Aux-J                     ...    365
   Maximum angular momentum in Aux-J        ...      4
Auxiliary J/K fitting basis                 ... NOT available
Auxiliary Correlation fitting basis         ... NOT available
Auxiliary 'external' fitting basis          ... NOT available

Checking pre-screening integrals            ... done (  0.0 sec) Dimension = 268
Check shell pair data                       ... done (  0.0 sec)
Shell pair information
Shell pair cut-off parameter TPreSel        ...   2.5e-12
Total number of shell pairs                 ...     36046
Shell pairs after pre-screening             ...     22313
Total number of primitive shell pairs       ...    118872
Primitive shell pairs kept                  ...     47303
          la=0 lb=0:   4253 shell pairs
          la=1 lb=0:   6089 shell pairs
          la=1 lb=1:   2103 shell pairs
          la=2 lb=0:   3314 shell pairs
          la=2 lb=1:   2425 shell pairs
          la=2 lb=2:    684 shell pairs
          la=3 lb=0:   1503 shell pairs
          la=3 lb=1:   1165 shell pairs
          la=3 lb=2:    627 shell pairs
          la=3 lb=3:    150 shell pairs

Calculating one electron integrals          ... done (  0.0 sec)
Calculating RI/J V-Matrix + Cholesky decomp.... done (  0.1 sec)
Calculating Nuclear repulsion               ... done (  0.0 sec) ENN=   2653.036024569685 Eh

Diagonalization of the overlap matrix:
Smallest eigenvalue                        ... 6.221e-05
Time for diagonalization                   ...    0.115 sec
Threshold for overlap eigenvalues          ... 1.000e-07
Number of eigenvalues below threshold      ... 0
Time for construction of square roots      ...    0.057 sec
Total time needed                          ...    0.177 sec

-------------------
DFT GRID GENERATION
-------------------

General Integration Accuracy     IntAcc      ... 4.388
Radial Grid Type                 RadialGrid  ... OptM3 with GC (2021)
Angular Grid (max. ang.)         AngularGrid ... 4 (Lebedev-302)
Angular grid pruning method      GridPruning ... 4 (adaptive)
Weight generation scheme         WeightScheme... mBecke (2022)
Basis function cutoff            BFCut       ... 1.0000e-11
Integration weight cutoff        WCut        ... 1.0000e-14
Partially contracted basis set               ... off
Rotationally invariant grid construction     ... off
Angular grids for H and He will be reduced by one unit

Total number of grid points                  ...   148712
Total number of batches                      ...     2334
Average number of points per batch           ...       63
Average number of grid points per atom       ...     5948

--------------------
COSX GRID GENERATION
--------------------

GRIDX 1
-------
General Integration Accuracy     IntAcc      ... 3.816
Radial Grid Type                 RadialGrid  ... OptM3 with GC (2021)
Angular Grid (max. ang.)         AngularGrid ... 1 (Lebedev-50)
Angular grid pruning method      GridPruning ... 4 (adaptive)
Weight generation scheme         WeightScheme... mBecke (2022)
Basis function cutoff            BFCut       ... 1.0000e-11
Integration weight cutoff        WCut        ... 1.0000e-14
Partially contracted basis set               ... on
Rotationally invariant grid construction     ... off
Angular grids for H and He will be reduced by one unit

Total number of grid points                  ...    18712
Total number of batches                      ...      158
Average number of points per batch           ...      118
Average number of grid points per atom       ...      748
UseSFitting                                  ... on

GRIDX 2
-------
General Integration Accuracy     IntAcc      ... 4.020
Radial Grid Type                 RadialGrid  ... OptM3 with GC (2021)
Angular Grid (max. ang.)         AngularGrid ... 2 (Lebedev-110)
Angular grid pruning method      GridPruning ... 4 (adaptive)
Weight generation scheme         WeightScheme... mBecke (2022)
Basis function cutoff            BFCut       ... 1.0000e-11
Integration weight cutoff        WCut        ... 1.0000e-14
Partially contracted basis set               ... on
Rotationally invariant grid construction     ... off
Angular grids for H and He will be reduced by one unit

Total number of grid points                  ...    44091
Total number of batches                      ...      359
Average number of points per batch           ...      122
Average number of grid points per atom       ...     1764
UseSFitting                                  ... on

GRIDX 3
-------
General Integration Accuracy     IntAcc      ... 4.338
Radial Grid Type                 RadialGrid  ... OptM3 with GC (2021)
Angular Grid (max. ang.)         AngularGrid ... 3 (Lebedev-194)
Angular grid pruning method      GridPruning ... 4 (adaptive)
Weight generation scheme         WeightScheme... mBecke (2022)
Basis function cutoff            BFCut       ... 1.0000e-11
Integration weight cutoff        WCut        ... 1.0000e-14
Partially contracted basis set               ... on
Rotationally invariant grid construction     ... off
Angular grids for H and He will be reduced by one unit

Total number of grid points                  ...    97624
Total number of batches                      ...      774
Average number of points per batch           ...      126
Average number of grid points per atom       ...     3905
UseSFitting                                  ... on
Initializing property integral containers    ... done (  0.0 sec)

SHARK setup successfully completed in   3.9 seconds

Maximum memory used throughout the entire STARTUP-calculation: 57.3 MB


           ************************************************************
           *        Program running with 20 parallel MPI-processes    *
           *              working on a common directory               *
           ************************************************************
-------------------------------------------------------------------------------
                                 ORCA GUESS
                   Start orbitals & Density for SCF / CASSCF
-------------------------------------------------------------------------------

------------
SCF SETTINGS
------------
Hamiltonian:
 Density Functional     Method          .... DFT(GTOs)
  Functional kind                       .... Exchange
  Functional name                       .... Re-regularized SCAN exchange by Furness et al
  Functional family                     .... MGGA
  Functional refs                              
    [ 0] J. W. Furness, A. D. Kaplan, J. Ning, J. P. Perdew, and J. Sun.,  J. Phys. Chem. Lett. 11, 8208-8215 (2020), doi: 10.1021/acs.jpclett.0c02405
    [ 1] J. W. Furness, A. D. Kaplan, J. Ning, J. P. Perdew, and J. Sun.,  J. Phys. Chem. Lett. 11, 9248-9248 (2020), doi: 10.1021/acs.jpclett.0c03077
  Functional external parameters        .... 6
    Parameter  0 _c1        =  6.670000e-01 : c1 parameter        
    Parameter  1 _c2        =  8.000000e-01 : c2 parameter        
    Parameter  2 _d         =  1.240000e+00 : d parameter         
    Parameter  3 _k1        =  6.500000e-02 : k1 parameter        
    Parameter  4 _eta       =  1.000000e-03 : eta parameter       
    Parameter  5 _dp2       =  3.610000e-01 : dp2 parameter       
  Functional kind                       .... Correlation
  Functional name                       .... Re-regularized SCAN correlation by Furness et al
  Functional family                     .... MGGA
  Functional refs                              
    [ 0] J. W. Furness, A. D. Kaplan, J. Ning, J. P. Perdew, and J. Sun.,  J. Phys. Chem. Lett. 11, 8208-8215 (2020), doi: 10.1021/acs.jpclett.0c02405
    [ 1] J. W. Furness, A. D. Kaplan, J. Ning, J. P. Perdew, and J. Sun.,  J. Phys. Chem. Lett. 11, 9248-9248 (2020), doi: 10.1021/acs.jpclett.0c03077
  Functional external parameters        .... 1
    Parameter  0 _eta       =  1.000000e-03 : Regularization parameter
 Gradients option       PostSCFGGA      .... off
 Hybrid DFT is turned on
   Fraction HF Exchange ScalHFX         ....  0.100000
   Scaling of DF-GGA-X  ScalDFX         ....  0.900000
   Scaling of DF-GGA-C  ScalDFC         ....  1.000000
   Scaling of DF-LDA-C  ScalLDAC        ....  1.000000
   Perturbative correction              ....  0.000000
   NL short-range parameter             .... 11.900000
 RI-approximation to the Coulomb term is turned on
   Number of AuxJ basis functions       .... 1187
   RIJ-COSX (HFX calculated with COS-X)).... on


General Settings:
 Integral files         IntName         .... rf_mecn_opt_r2s_C2_P_B
 Hartree-Fock type      HFTyp           .... UHF
 Total Charge           Charge          ....    0
 Multiplicity           Mult            ....    2
 Number of Electrons    NEL             ....  191
 Basis Dimension        Dim             ....  750
 Nuclear Repulsion      ENuc            ....   2653.0360245697 Eh

Convergence Acceleration:
 AO-DIIS                CNVDIIS         .... on
   Start iteration      DIISMaxIt       ....     0
   Startup error        DIISStart       ....  0.200000
   # of expansion vecs  DIISMaxEq       ....     5
   Bias factor          DIISBfac        ....   1.050
   Max. coefficient     DIISMaxC        ....  10.000
 MO-DIIS                CNVKDIIS        .... off
 Trust-Rad. Augm. Hess. CNVTRAH         .... auto
   Auto Start mean grad. ratio tolernc. ....  1.125000
   Auto Start start iteration           ....    50
   Auto Start num. interpolation iter.  ....    10
   Max. Number of Micro iterations      ....    24
   Max. Number of Macro iterations      .... Maxiter - #DIIS iter
   Number of Davidson start vectors     ....     2
   Converg. threshold    (grad. norm)   ....   1.000e-05
   Grad. Scal. Fac. for Micro threshold ....   0.100
   Minimum threshold for Micro iter.    ....   1.000e-02
   NR start threshold (gradient norm)   ....   1.000e-04
   Initial trust radius                 ....   0.400
   Minimum AH scaling param. (alpha)    ....   1.000
   Maximum AH scaling param. (alpha)    .... 1000.000
   Quad. conv. algorithm                .... NR
   White noise on init. David. guess    .... on
   Maximum white noise                  ....   0.010
   Pseudo random numbers                .... off
   Inactive MOs                         .... canonical
   Orbital update algorithm             .... Taylor
   Preconditioner                       .... Diag
   Full preconditioner red. dimension   ....   250
 SOSCF                  CNVSOSCF        .... on
   Start iteration      SOSCFMaxIt      ....   150
   Startup grad/error   SOSCFStart      ....  0.001000
   Hessian update       SOSCFHessUp     .... L-BFGS
 Level Shifting         CNVShift        .... on
   Level shift para.    LevelShift      ....    0.2500
   Turn off err/grad.   ShiftErr        ....    0.0000
 Zerner damping         CNVZerner       .... off
 Static damping         CNVDamp         .... on
   Fraction old density DampFac         ....    0.8500
   Max. Damping (<1)    DampMax         ....    0.9800
   Min. Damping (>=0)   DampMin         ....    0.0000
   Turn off err/grad.   DampErr         ....    0.0300

SCF Procedure:
 Maximum # iterations   MaxIter         ....  1500
 SCF integral mode      SCFMode         .... Direct
   Integral package                     .... SHARK and LIBINT hybrid scheme
 Reset frequency        DirectResetFreq ....    20
 Integral Threshold     Thresh          ....  2.500e-11 Eh
 Primitive CutOff       TCut            ....  2.500e-12 Eh

Convergence Tolerance:
 Convergence Check Mode ConvCheckMode   .... Total+1el-Energy
 Convergence forced     ConvForced      .... 0
 Energy Change          TolE            ....  1.000e-08 Eh
 1-El. energy change                    ....  1.000e-05 Eh
 Orbital Gradient       TolG            ....  1.000e-05
 Orbital Rotation angle TolX            ....  1.000e-05
 DIIS Error             TolErr          ....  5.000e-07

------------------------------
INITIAL GUESS: MODEL POTENTIAL
------------------------------
Loading Hartree-Fock densities                     ... done
Calculating cut-offs                               ... done
Initializing the effective Hamiltonian             ... done
Setting up the integral package (SHARK)            ... done
Starting the Coulomb interaction                   ... done (   0.2 sec)
Making the grid                                    ... done (   0.6 sec)
Mapping shells                                     ... done
Starting the XC term evaluation                    ... done (   0.1 sec)
  promolecular density results
     # of electrons  =    190.999799884
     EX              =   -197.388948699
     EC              =     -6.686210561
     EX+EC           =   -204.075159260
Transforming the Hamiltonian                       ... done (   0.1 sec)
Diagonalizing the Hamiltonian                      ... done (   0.1 sec)
Back transforming the eigenvectors                 ... done (   0.0 sec)
Now organizing SCF variables                       ... done
                      ------------------
                      INITIAL GUESS DONE (   1.2 sec)
                      ------------------
             **** ENERGY FILE WAS UPDATED (rf_mecn_opt_r2s_C2_P_B.en.tmp) ****
Finished Guess after   2.0 sec
Maximum memory used throughout the entire GUESS-calculation: 46.3 MB


           ************************************************************
           *        Program running with 20 parallel MPI-processes    *
           *              working on a common directory               *
           ************************************************************

-------------------------------------------------------------------------------------------
                                      ORCA LEAN-SCF
                              memory conserving SCF solver
-------------------------------------------------------------------------------------------

--------------------
CPCM SOLVATION MODEL
--------------------
CPCM parameters:
  Epsilon                                         ...      35.6880
  Refrac                                          ...       1.3442
  Rsolv                                           ...       1.3000
  Surface type                                    ... GAUSSIAN VDW
  Discretization scheme                           ... Constant charge density
    Threshold for H atoms                         ...       5.0000 (charges/Ang^2)
    Threshold for non-H atoms                     ...       5.0000 (charges/Ang^2)
  Epsilon function type                           ...         CPCM
Solvent:                                          ... ACETONITRILE
SMD-CDS solvent descriptors:
  Soln                                            ...       1.3442
  Soln25                                          ...       1.3416
  Sola                                            ...       0.0700
  Solb                                            ...       0.3200
  Solg                                            ...      41.2500
  Solc                                            ...       0.0000
  Solh                                            ...       0.0000
Radii:
  Scheme                                          ... Element-dependent radii
  Radius for C  used is    3.4960 Bohr (=   1.8500 Ang.)
  Radius for O  used is    4.0969 Bohr (=   2.1680 Ang.)
  Radius for F  used is    3.2692 Bohr (=   1.7300 Ang.)
  Radius for H  used is    2.2677 Bohr (=   1.2000 Ang.)
Calculating surface                               ...        done! (  0.0s)
Cavity surface points                             ...         2142
Cavity Volume                                     ...    2127.0562
Cavity Surface-area                               ...    1106.2742
Calculating surface distance matrix               ...        done! (  0.0s)
Performing Cholesky decomposition & store         ...        done! (  0.1s)
Overall time for CPCM initialization              ...                 0.2s

----------------------------------------D-I-I-S--------------------------------------------
Iteration    Energy (Eh)           Delta-E    RMSDP     MaxDP     DIISErr   Damp  Time(sec)
-------------------------------------------------------------------------------------------
               ***  Starting incremental Fock matrix formation  ***
    1    -1853.0174714151444277     0.00e+00  2.19e-04  1.64e-02  1.51e-01  0.850   7.9
Warning: op=1 Small HOMO/LUMO gap (   0.005) - skipping pre-diagonalization
         Will do a full diagonalization
    2    -1853.1556864439062338    -1.38e-01  2.10e-04  1.83e-02  9.46e-02  0.850   5.6
                               ***Turning on AO-DIIS***
    3    -1853.2262201318117150    -7.05e-02  9.43e-05  5.01e-03  5.30e-02  0.850   4.7
    4    -1853.2679211699969528    -4.17e-02  6.16e-05  3.95e-03  3.93e-02  0.850   4.6
    5    -1853.2975905721796153    -2.97e-02  5.01e-05  4.09e-03  3.16e-02  0.850   4.5
    6    -1853.3212973989629972    -2.37e-02  4.39e-05  3.82e-03  2.90e-02  0.850   4.4
    7    -1853.3412878453636949    -2.00e-02  2.69e-04  2.27e-02  2.48e-02  0.000   4.1
    8    -1853.4483673595168511    -1.07e-01  5.41e-05  7.93e-03  1.37e-02  0.000   4.7
    9    -1853.4485987051466509    -2.31e-04  2.02e-05  3.03e-03  1.21e-02  0.000   4.0
   10    -1853.4495541990227139    -9.55e-04  1.02e-05  1.22e-03  3.43e-03  0.000   4.0
   11    -1853.4496761812788463    -1.22e-04  6.58e-06  9.25e-04  1.25e-03  0.000   3.8
                              *** Initializing SOSCF ***
---------------------------------------S-O-S-C-F--------------------------------------
Iteration    Energy (Eh)           Delta-E    RMSDP     MaxDP     MaxGrad    Time(sec)
--------------------------------------------------------------------------------------
   12    -1853.4497086333813058    -3.25e-05  4.50e-06  5.10e-04  6.37e-04     4.1
               *** Restarting incremental Fock matrix formation ***
   13    -1853.4497343375542187    -2.57e-05  5.58e-06  8.17e-04  5.61e-04     7.5
   14    -1853.4497459534086374    -1.16e-05  1.21e-05  1.76e-03  4.45e-04     4.4
   15    -1853.4497521190905900    -6.17e-06  3.95e-06  3.83e-04  3.81e-04     4.7
   16    -1853.4497558537768782    -3.73e-06  3.68e-06  4.71e-04  2.90e-04     4.5
   17    -1853.4497544585028663     1.40e-06  2.29e-06  3.24e-04  4.18e-04     4.5
   18    -1853.4497570217481552    -2.56e-06  1.10e-06  8.81e-05  6.77e-05     4.3
   19    -1853.4497569200657381     1.02e-07  6.34e-07  5.26e-05  8.15e-05     4.1
   20    -1853.4497571531210269    -2.33e-07  1.98e-07  1.59e-05  8.90e-06     3.9
   21    -1853.4497571409483498     1.22e-08  1.23e-07  1.23e-05  7.11e-06     3.3
   22    -1853.4497571625779528    -2.16e-08  1.03e-07  7.07e-06  2.03e-06     3.4
                  *** Gradient check signals convergence ***

               *****************************************************
               *                     SUCCESS                       *
               *           SCF CONVERGED AFTER  22 CYCLES          *
               *****************************************************

Recomputing exchange energy using gridx3       ... done (    8.738 sec)
Old exchange energy                            :    -19.884589114 Eh
New exchange energy                            :    -19.884598246 Eh
Exchange energy change after final integration :     -0.000009132 Eh
Total energy after final integration           :  -1853.449766295 Eh

SMD CDS free energy correction energy :                 3.61262     Kcal/mol
Total Energy after SMD CDS correction =             -1853.444009225 Eh
             **** ENERGY FILE WAS UPDATED (rf_mecn_opt_r2s_C2_P_B.en.tmp) ****

----------------
TOTAL SCF ENERGY
----------------

Total Energy       :      -1853.44400922462569 Eh          -50434.77555 eV

Components:
Nuclear Repulsion  :       2653.03602456968474 Eh           72192.78044 eV
Electronic Energy  :      -4506.46968247366203 Eh         -122627.27431 eV
One Electron Energy:      -7857.73587229328950 Eh         -213819.86348 eV
Two Electron Energy:       3351.26618981962793 Eh           91192.58917 eV
CPCM Dielectric    :         -0.01609925860133 Eh              -0.43808 eV
SMD CDS (Gcds)     :          0.00575707000959 Eh               0.15666 eV

Virial components:
Potential Energy   :      -3699.23763292308286 Eh         -100661.37352 eV
Kinetic Energy     :       1845.79362369845740 Eh           50226.59797 eV
Virial Ratio       :          2.00414476755578

DFT components:
N(Alpha)           :       95.999974498072 electrons
N(Beta)            :       94.999964936586 electrons
N(Total)           :      190.999939434657 electrons
E(X)               :     -179.970597157889 Eh       
E(C)               :       -6.628209849089 Eh       
E(XC)              :     -186.598807006978 Eh       

CPCM Solvation Model Properties:
Surface-charge          :         -0.00861032182970
Corrected charge        :          0.00000000000000
Outlying charge corr.   :          0.00000404877954 Eh               0.00011 eV
Free-energy (cav+disp)  :          0.00575707000959 Eh               0.15666 eV

---------------
SCF CONVERGENCE
---------------

  Last Energy change         ...    2.1630e-08  Tolerance :   1.0000e-08
  Last MAX-Density change    ...    7.0681e-06  Tolerance :   1.0000e-07
  Last RMS-Density change    ...    1.0306e-07  Tolerance :   5.0000e-09
  Last DIIS Error            ...    6.3736e-04  Tolerance :   5.0000e-07
  Last Orbital Gradient      ...    2.0295e-06  Tolerance :   1.0000e-05
  Last Orbital Rotation      ...    1.1940e-05  Tolerance :   1.0000e-05


----------------------
UHF SPIN CONTAMINATION
----------------------

Warning: in a DFT calculation there is little theoretical justification to 
         calculate <S**2> as in Hartree-Fock theory. We will do it anyways
         but you should keep in mind that the values have only limited relevance

Expectation value of <S**2>     :     0.764792
Ideal value S*(S+1) for S=0.5   :     0.750000
Deviation                       :     0.014792

----------------
ORBITAL ENERGIES
----------------
                 SPIN UP ORBITALS
  NO   OCC          E(Eh)            E(eV) 
   0   1.0000     -24.735648      -673.0912 
   1   1.0000     -24.735293      -673.0815 
   2   1.0000     -24.734944      -673.0720 
   3   1.0000     -24.734679      -673.0648 
   4   1.0000     -24.734229      -673.0526 
   5   1.0000     -24.734208      -673.0520 
   6   1.0000     -24.733933      -673.0445 
   7   1.0000     -24.733545      -673.0340 
   8   1.0000     -24.733316      -673.0277 
   9   1.0000     -24.731985      -672.9915 
  10   1.0000     -24.730208      -672.9432 
  11   1.0000     -24.725109      -672.8044 
  12   1.0000     -24.724742      -672.7944 
  13   1.0000     -24.723872      -672.7708 
  14   1.0000     -19.184955      -522.0492 
  15   1.0000     -19.153675      -521.1980 
  16   1.0000     -10.447053      -284.2788 
  17   1.0000     -10.396615      -282.9063 
  18   1.0000     -10.395501      -282.8760 
  19   1.0000     -10.394200      -282.8406 
  20   1.0000     -10.391962      -282.7797 
  21   1.0000     -10.390150      -282.7304 
  22   1.0000     -10.382085      -282.5109 
  23   1.0000     -10.331210      -281.1265 
  24   1.0000      -1.356967       -36.9250 
  25   1.0000      -1.336444       -36.3665 
  26   1.0000      -1.322209       -35.9791 
  27   1.0000      -1.312235       -35.7077 
  28   1.0000      -1.311123       -35.6775 
  29   1.0000      -1.304046       -35.4849 
  30   1.0000      -1.272571       -34.6284 
  31   1.0000      -1.267321       -34.4856 
  32   1.0000      -1.265475       -34.4353 
  33   1.0000      -1.265214       -34.4282 
  34   1.0000      -1.260996       -34.3134 
  35   1.0000      -1.256592       -34.1936 
  36   1.0000      -1.255478       -34.1633 
  37   1.0000      -1.248559       -33.9750 
  38   1.0000      -1.086572       -29.5671 
  39   1.0000      -1.001532       -27.2531 
  40   1.0000      -0.850818       -23.1519 
  41   1.0000      -0.832899       -22.6643 
  42   1.0000      -0.806551       -21.9474 
  43   1.0000      -0.770240       -20.9593 
  44   1.0000      -0.732280       -19.9264 
  45   1.0000      -0.702103       -19.1052 
  46   1.0000      -0.680534       -18.5183 
  47   1.0000      -0.664299       -18.0765 
  48   1.0000      -0.641596       -17.4587 
  49   1.0000      -0.636860       -17.3298 
  50   1.0000      -0.629119       -17.1192 
  51   1.0000      -0.621323       -16.9071 
  52   1.0000      -0.617792       -16.8110 
  53   1.0000      -0.615270       -16.7423 
  54   1.0000      -0.604473       -16.4485 
  55   1.0000      -0.596261       -16.2251 
  56   1.0000      -0.594769       -16.1845 
  57   1.0000      -0.588885       -16.0244 
  58   1.0000      -0.576449       -15.6860 
  59   1.0000      -0.571222       -15.5437 
  60   1.0000      -0.564443       -15.3593 
  61   1.0000      -0.554663       -15.0932 
  62   1.0000      -0.505944       -13.7674 
  63   1.0000      -0.505049       -13.7431 
  64   1.0000      -0.502049       -13.6614 
  65   1.0000      -0.495434       -13.4815 
  66   1.0000      -0.494988       -13.4693 
  67   1.0000      -0.487905       -13.2766 
  68   1.0000      -0.486169       -13.2293 
  69   1.0000      -0.483928       -13.1684 
  70   1.0000      -0.478139       -13.0108 
  71   1.0000      -0.475481       -12.9385 
  72   1.0000      -0.472658       -12.8617 
  73   1.0000      -0.469073       -12.7641 
  74   1.0000      -0.465587       -12.6693 
  75   1.0000      -0.460250       -12.5240 
  76   1.0000      -0.453876       -12.3506 
  77   1.0000      -0.450707       -12.2644 
  78   1.0000      -0.448090       -12.1931 
  79   1.0000      -0.442844       -12.0504 
  80   1.0000      -0.440897       -11.9974 
  81   1.0000      -0.438673       -11.9369 
  82   1.0000      -0.434989       -11.8366 
  83   1.0000      -0.433475       -11.7955 
  84   1.0000      -0.429277       -11.6812 
  85   1.0000      -0.428561       -11.6617 
  86   1.0000      -0.427471       -11.6321 
  87   1.0000      -0.424556       -11.5528 
  88   1.0000      -0.417820       -11.3695 
  89   1.0000      -0.407426       -11.0866 
  90   1.0000      -0.380508       -10.3542 
  91   1.0000      -0.353889        -9.6298 
  92   1.0000      -0.338728        -9.2173 
  93   1.0000      -0.336289        -9.1509 
  94   1.0000      -0.304388        -8.2828 
  95   1.0000      -0.291605        -7.9350 
  96   0.0000      -0.079649        -2.1674 
  97   0.0000      -0.032504        -0.8845 
  98   0.0000      -0.012412        -0.3378 
  99   0.0000      -0.001737        -0.0473 
 100   0.0000       0.023888         0.6500 
 101   0.0000       0.028185         0.7670 
 102   0.0000       0.066667         1.8141 
 103   0.0000       0.079032         2.1506 
 104   0.0000       0.105729         2.8770 
 105   0.0000       0.108512         2.9528 
 106   0.0000       0.118917         3.2359 

                 SPIN DOWN ORBITALS
  NO   OCC          E(Eh)            E(eV) 
   0   1.0000     -24.735648      -673.0912 
   1   1.0000     -24.735293      -673.0816 
   2   1.0000     -24.734944      -673.0720 
   3   1.0000     -24.734679      -673.0648 
   4   1.0000     -24.734232      -673.0527 
   5   1.0000     -24.734204      -673.0519 
   6   1.0000     -24.733933      -673.0445 
   7   1.0000     -24.733545      -673.0340 
   8   1.0000     -24.733316      -673.0277 
   9   1.0000     -24.731996      -672.9918 
  10   1.0000     -24.730146      -672.9415 
  11   1.0000     -24.723729      -672.7669 
  12   1.0000     -24.723201      -672.7525 
  13   1.0000     -24.720535      -672.6799 
  14   1.0000     -19.184896      -522.0476 
  15   1.0000     -19.149049      -521.0721 
  16   1.0000     -10.447053      -284.2788 
  17   1.0000     -10.396616      -282.9063 
  18   1.0000     -10.395498      -282.8759 
  19   1.0000     -10.394200      -282.8406 
  20   1.0000     -10.391988      -282.7804 
  21   1.0000     -10.390208      -282.7319 
  22   1.0000     -10.383409      -282.5469 
  23   1.0000     -10.314450      -280.6705 
  24   1.0000      -1.356967       -36.9249 
  25   1.0000      -1.336357       -36.3641 
  26   1.0000      -1.321912       -35.9710 
  27   1.0000      -1.312145       -35.7053 
  28   1.0000      -1.310970       -35.6733 
  29   1.0000      -1.303029       -35.4572 
  30   1.0000      -1.272565       -34.6283 
  31   1.0000      -1.267281       -34.4845 
  32   1.0000      -1.265463       -34.4350 
  33   1.0000      -1.260924       -34.3115 
  34   1.0000      -1.256940       -34.2031 
  35   1.0000      -1.256489       -34.1908 
  36   1.0000      -1.255372       -34.1604 
  37   1.0000      -1.246989       -33.9323 
  38   1.0000      -1.086284       -29.5593 
  39   1.0000      -0.994046       -27.0494 
  40   1.0000      -0.850317       -23.1383 
  41   1.0000      -0.829640       -22.5756 
  42   1.0000      -0.799157       -21.7462 
  43   1.0000      -0.762133       -20.7387 
  44   1.0000      -0.730530       -19.8787 
  45   1.0000      -0.700570       -19.0635 
  46   1.0000      -0.679272       -18.4839 
  47   1.0000      -0.658511       -17.9190 
  48   1.0000      -0.641531       -17.4569 
  49   1.0000      -0.636249       -17.3132 
  50   1.0000      -0.629088       -17.1184 
  51   1.0000      -0.621139       -16.9021 
  52   1.0000      -0.617225       -16.7955 
  53   1.0000      -0.614223       -16.7139 
  54   1.0000      -0.603657       -16.4263 
  55   1.0000      -0.595618       -16.2076 
  56   1.0000      -0.594014       -16.1639 
  57   1.0000      -0.587897       -15.9975 
  58   1.0000      -0.575516       -15.6606 
  59   1.0000      -0.569146       -15.4872 
  60   1.0000      -0.560109       -15.2414 
  61   1.0000      -0.550221       -14.9723 
  62   1.0000      -0.505204       -13.7473 
  63   1.0000      -0.501922       -13.6580 
  64   1.0000      -0.496046       -13.4981 
  65   1.0000      -0.494557       -13.4576 
  66   1.0000      -0.488342       -13.2885 
  67   1.0000      -0.486458       -13.2372 
  68   1.0000      -0.485449       -13.2097 
  69   1.0000      -0.478172       -13.0117 
  70   1.0000      -0.476938       -12.9781 
  71   1.0000      -0.473640       -12.8884 
  72   1.0000      -0.469671       -12.7804 
  73   1.0000      -0.468042       -12.7361 
  74   1.0000      -0.464692       -12.6449 
  75   1.0000      -0.458709       -12.4821 
  76   1.0000      -0.450767       -12.2660 
  77   1.0000      -0.449381       -12.2283 
  78   1.0000      -0.443960       -12.0808 
  79   1.0000      -0.442700       -12.0465 
  80   1.0000      -0.440787       -11.9944 
  81   1.0000      -0.438334       -11.9277 
  82   1.0000      -0.434760       -11.8304 
  83   1.0000      -0.433218       -11.7885 
  84   1.0000      -0.429051       -11.6751 
  85   1.0000      -0.428042       -11.6476 
  86   1.0000      -0.425758       -11.5855 
  87   1.0000      -0.423717       -11.5299 
  88   1.0000      -0.416087       -11.3223 
  89   1.0000      -0.404703       -11.0125 
  90   1.0000      -0.377175       -10.2635 
  91   1.0000      -0.350239        -9.5305 
  92   1.0000      -0.334480        -9.1017 
  93   1.0000      -0.322116        -8.7652 
  94   1.0000      -0.297149        -8.0858 
  95   0.0000      -0.156489        -4.2583 
  96   0.0000      -0.060778        -1.6538 
  97   0.0000      -0.027503        -0.7484 
  98   0.0000      -0.011580        -0.3151 
  99   0.0000      -0.001488        -0.0405 
 100   0.0000       0.024927         0.6783 
 101   0.0000       0.037728         1.0266 
 102   0.0000       0.070315         1.9134 
 103   0.0000       0.085494         2.3264 
 104   0.0000       0.106508         2.8982 
 105   0.0000       0.110377         3.0035 
*Only the first 10 virtual orbitals were printed.

                    ********************************
                    * MULLIKEN POPULATION ANALYSIS *
                    ********************************

--------------------------------------------
MULLIKEN ATOMIC CHARGES AND SPIN POPULATIONS
--------------------------------------------
   0 C :    0.412304   -0.083877
   1 O :   -0.471897    0.005647
   2 O :   -0.409311    0.146388
   3 C :    0.157511    0.835069
   4 C :    0.381775   -0.013683
   5 C :    0.334171    0.000585
   6 C :    0.317398    0.000260
   7 C :    0.301168   -0.000052
   8 C :    0.332889   -0.000002
   9 C :    0.470583   -0.000004
  10 F :   -0.169182    0.078353
  11 F :   -0.176136    0.001869
  12 F :   -0.169045    0.028535
  13 F :   -0.166734   -0.000085
  14 F :   -0.167493    0.000546
  15 F :   -0.163776   -0.000018
  16 F :   -0.163635    0.000066
  17 F :   -0.163472    0.000012
  18 F :   -0.163299   -0.000002
  19 F :   -0.163260    0.000001
  20 F :   -0.159805   -0.000001
  21 F :   -0.156099    0.000000
  22 F :   -0.152597    0.000000
  23 F :   -0.153870    0.000000
  24 H :    0.461813    0.000393
Sum of atomic charges         :    0.0000000
Sum of atomic spin populations:    1.0000000

-----------------------------------------------------
MULLIKEN REDUCED ORBITAL CHARGES AND SPIN POPULATIONS
-----------------------------------------------------
CHARGE
  0 C s       :     3.148412  s :     3.148412
      pz      :     0.762855  p :     2.208136
      px      :     0.799303
      py      :     0.645977
      dz2     :     0.020261  d :     0.212972
      dxz     :     0.016354
      dyz     :     0.058147
      dx2y2   :     0.051418
      dxy     :     0.066792
      f0      :     0.001807  f :     0.018177
      f+1     :     0.001307
      f-1     :     0.002334
      f+2     :     0.002582
      f-2     :     0.001925
      f+3     :     0.003802
      f-3     :     0.004419

  1 O s       :     3.684502  s :     3.684502
      pz      :     1.734026  p :     4.769690
      px      :     1.686418
      py      :     1.349246
      dz2     :     0.001761  d :     0.014828
      dxz     :     0.001216
      dyz     :     0.003126
      dx2y2   :     0.003319
      dxy     :     0.005407
      f0      :     0.000284  f :     0.002877
      f+1     :     0.000133
      f-1     :     0.000386
      f+2     :     0.000245
      f-2     :     0.000443
      f+3     :     0.000927
      f-3     :     0.000460

  2 O s       :     3.897921  s :     3.897921
      pz      :     1.562966  p :     4.485185
      px      :     1.681493
      py      :     1.240726
      dz2     :     0.003281  d :     0.024902
      dxz     :     0.000329
      dyz     :     0.006388
      dx2y2   :     0.009217
      dxy     :     0.005688
      f0      :     0.000117  f :     0.001303
      f+1     :     0.000019
      f-1     :     0.000233
      f+2     :     0.000218
      f-2     :     0.000030
      f+3     :     0.000293
      f-3     :     0.000393

  3 C s       :     3.299293  s :     3.299293
      pz      :     0.890624  p :     2.389504
      px      :     0.894438
      py      :     0.604442
      dz2     :     0.013679  d :     0.139448
      dxz     :     0.016790
      dyz     :     0.033317
      dx2y2   :     0.034016
      dxy     :     0.041645
      f0      :     0.002001  f :     0.014244
      f+1     :     0.001081
      f-1     :     0.001079
      f+2     :     0.002596
      f-2     :     0.001187
      f+3     :     0.003494
      f-3     :     0.002806

  4 C s       :     3.104365  s :     3.104365
      pz      :     0.602483  p :     2.203824
      px      :     0.907756
      py      :     0.693585
      dz2     :     0.060608  d :     0.283117
      dxz     :     0.062402
      dyz     :     0.068880
      dx2y2   :     0.033292
      dxy     :     0.057935
      f0      :     0.003503  f :     0.026920
      f+1     :     0.004748
      f-1     :     0.007898
      f+2     :     0.002143
      f-2     :     0.002643
      f+3     :     0.003485
      f-3     :     0.002501

  5 C s       :     3.147692  s :     3.147692
      pz      :     0.584192  p :     2.203535
      px      :     0.909461
      py      :     0.709882
      dz2     :     0.075894  d :     0.287491
      dxz     :     0.061608
      dyz     :     0.059581
      dx2y2   :     0.031897
      dxy     :     0.058511
      f0      :     0.004759  f :     0.027111
      f+1     :     0.004317
      f-1     :     0.005980
      f+2     :     0.003080
      f-2     :     0.004289
      f+3     :     0.002526
      f-3     :     0.002160

  6 C s       :     3.145736  s :     3.145736
      pz      :     0.580267  p :     2.222793
      px      :     0.924789
      py      :     0.717737
      dz2     :     0.081684  d :     0.286976
      dxz     :     0.061454
      dyz     :     0.054674
      dx2y2   :     0.031452
      dxy     :     0.057713
      f0      :     0.005934  f :     0.027097
      f+1     :     0.003851
      f-1     :     0.004199
      f+2     :     0.003952
      f-2     :     0.005140
      f+3     :     0.002081
      f-3     :     0.001941

  7 C s       :     3.147441  s :     3.147441
      pz      :     0.588379  p :     2.237058
      px      :     0.938906
      py      :     0.709773
      dz2     :     0.075094  d :     0.287238
      dxz     :     0.061480
      dyz     :     0.061083
      dx2y2   :     0.031784
      dxy     :     0.057798
      f0      :     0.004579  f :     0.027094
      f+1     :     0.004291
      f-1     :     0.006322
      f+2     :     0.002932
      f-2     :     0.004212
      f+3     :     0.002610
      f-3     :     0.002148

  8 C s       :     3.110064  s :     3.110064
      pz      :     0.617477  p :     2.246966
      px      :     0.939893
      py      :     0.689596
      dz2     :     0.059100  d :     0.282945
      dxz     :     0.060050
      dyz     :     0.072229
      dx2y2   :     0.033052
      dxy     :     0.058514
      f0      :     0.003467  f :     0.027137
      f+1     :     0.004912
      f-1     :     0.008114
      f+2     :     0.002098
      f-2     :     0.002377
      f+3     :     0.003739
      f-3     :     0.002428

  9 C s       :     3.030741  s :     3.030741
      pz      :     0.646734  p :     2.107560
      px      :     0.802000
      py      :     0.658826
      dz2     :     0.066770  d :     0.351800
      dxz     :     0.068581
      dyz     :     0.085618
      dx2y2   :     0.063517
      dxy     :     0.067315
      f0      :     0.004506  f :     0.039316
      f+1     :     0.007838
      f-1     :     0.008794
      f+2     :     0.004350
      f-2     :     0.003046
      f+3     :     0.007303
      f-3     :     0.003479

 10 F s       :     3.933940  s :     3.933940
      pz      :     1.862120  p :     5.219236
      px      :     1.887508
      py      :     1.469608
      dz2     :     0.001959  d :     0.015404
      dxz     :     0.000294
      dyz     :     0.003697
      dx2y2   :     0.005495
      dxy     :     0.003959
      f0      :     0.000058  f :     0.000602
      f+1     :     0.000014
      f-1     :     0.000110
      f+2     :     0.000079
      f-2     :     0.000017
      f+3     :     0.000157
      f-3     :     0.000166

 11 F s       :     3.929242  s :     3.929242
      pz      :     1.808968  p :     5.229836
      px      :     1.901359
      py      :     1.519509
      dz2     :     0.002067  d :     0.016379
      dxz     :     0.000752
      dyz     :     0.005356
      dx2y2   :     0.004849
      dxy     :     0.003355
      f0      :     0.000076  f :     0.000680
      f+1     :     0.000004
      f-1     :     0.000120
      f+2     :     0.000181
      f-2     :     0.000062
      f+3     :     0.000107
      f-3     :     0.000130

 12 F s       :     3.930754  s :     3.930754
      pz      :     1.444036  p :     5.221325
      px      :     1.898561
      py      :     1.878727
      dz2     :     0.008380  d :     0.016292
      dxz     :     0.003777
      dyz     :     0.003558
      dx2y2   :     0.000272
      dxy     :     0.000305
      f0      :     0.000330  f :     0.000674
      f+1     :     0.000153
      f-1     :     0.000160
      f+2     :     0.000011
      f-2     :     0.000018
      f+3     :     0.000001
      f-3     :     0.000001

 13 F s       :     3.929444  s :     3.929444
      pz      :     1.703178  p :     5.219906
      px      :     1.898518
      py      :     1.618211
      dz2     :     0.002731  d :     0.016694
      dxz     :     0.001661
      dyz     :     0.006573
      dx2y2   :     0.003135
      dxy     :     0.002595
      f0      :     0.000078  f :     0.000689
      f+1     :     0.000014
      f-1     :     0.000184
      f+2     :     0.000188
      f-2     :     0.000105
      f+3     :     0.000060
      f-3     :     0.000061

 14 F s       :     3.930056  s :     3.930056
      pz      :     1.495776  p :     5.220106
      px      :     1.902187
      py      :     1.822143
      dz2     :     0.006858  d :     0.016641
      dxz     :     0.003360
      dyz     :     0.004986
      dx2y2   :     0.000635
      dxy     :     0.000802
      f0      :     0.000228  f :     0.000690
      f+1     :     0.000110
      f-1     :     0.000234
      f+2     :     0.000051
      f-2     :     0.000060
      f+3     :     0.000005
      f-3     :     0.000004

 15 F s       :     3.930035  s :     3.930035
      pz      :     1.587521  p :     5.216312
      px      :     1.897154
      py      :     1.731637
      dz2     :     0.004578  d :     0.016740
      dxz     :     0.002668
      dyz     :     0.006342
      dx2y2   :     0.001562
      dxy     :     0.001591
      f0      :     0.000119  f :     0.000690
      f+1     :     0.000056
      f-1     :     0.000252
      f+2     :     0.000123
      f-2     :     0.000102
      f+3     :     0.000021
      f-3     :     0.000018

 16 F s       :     3.930148  s :     3.930148
      pz      :     1.598599  p :     5.216013
      px      :     1.897938
      py      :     1.719476
      dz2     :     0.004351  d :     0.016783
      dxz     :     0.002568
      dyz     :     0.006461
      dx2y2   :     0.001706
      dxy     :     0.001696
      f0      :     0.000111  f :     0.000692
      f+1     :     0.000050
      f-1     :     0.000250
      f+2     :     0.000132
      f-2     :     0.000105
      f+3     :     0.000024
      f-3     :     0.000021

 17 F s       :     3.930482  s :     3.930482
      pz      :     1.714463  p :     5.215488
      px      :     1.898819
      py      :     1.602207
      dz2     :     0.002629  d :     0.016809
      dxz     :     0.001548
[...]
      dz2     :    -0.000000  d :     0.000001
      dxz     :     0.000002
      dyz     :    -0.000000
      dx2y2   :     0.000000
      dxy     :    -0.000000
      f0      :     0.000000  f :    -0.000000
      f+1     :    -0.000000
      f-1     :    -0.000000
      f+2     :    -0.000000
      f-2     :    -0.000000
      f+3     :    -0.000000
      f-3     :    -0.000000

 17 F s       :     0.000002  s :     0.000002
      pz      :    -0.000001  p :     0.000010
      px      :     0.000006
      py      :     0.000006
      dz2     :     0.000000  d :     0.000000
      dxz     :     0.000000
      dyz     :     0.000000
      dx2y2   :     0.000000
      dxy     :    -0.000000
      f0      :     0.000000  f :    -0.000000
      f+1     :     0.000000
      f-1     :    -0.000000
      f+2     :    -0.000000
      f-2     :    -0.000000
      f+3     :     0.000000
      f-3     :    -0.000000

 18 F s       :     0.000000  s :     0.000000
      pz      :     0.000002  p :     0.000008
      px      :     0.000008
      py      :    -0.000002
      dz2     :    -0.000000  d :    -0.000001
      dxz     :    -0.000000
      dyz     :    -0.000000
      dx2y2   :     0.000000
      dxy     :    -0.000000
      f0      :    -0.000000  f :    -0.000000
      f+1     :    -0.000000
      f-1     :    -0.000000
      f+2     :     0.000000
      f-2     :    -0.000000
      f+3     :    -0.000000
      f-3     :    -0.000000

 19 F s       :     0.000000  s :     0.000000
      pz      :    -0.000000  p :     0.000002
      px      :     0.000001
      py      :     0.000001
      dz2     :     0.000000  d :    -0.000000
      dxz     :    -0.000000
      dyz     :    -0.000000
      dx2y2   :    -0.000000
      dxy     :     0.000000
      f0      :    -0.000000  f :    -0.000000
      f+1     :     0.000000
      f-1     :    -0.000000
      f+2     :     0.000000
      f-2     :    -0.000000
      f+3     :    -0.000000
      f-3     :    -0.000000

 20 F s       :    -0.000000  s :    -0.000000
      pz      :     0.000001  p :     0.000000
      px      :    -0.000000
      py      :    -0.000000
      dz2     :    -0.000000  d :    -0.000000
      dxz     :    -0.000000
      dyz     :    -0.000000
      dx2y2   :     0.000000
      dxy     :     0.000000
      f0      :    -0.000000  f :    -0.000000
      f+1     :    -0.000000
      f-1     :    -0.000000
      f+2     :    -0.000000
      f-2     :    -0.000000
      f+3     :     0.000000
      f-3     :    -0.000000

 21 F s       :     0.000000  s :     0.000000
      pz      :    -0.000000  p :     0.000000
      px      :     0.000000
      py      :     0.000000
      dz2     :    -0.000000  d :    -0.000000
      dxz     :    -0.000000
      dyz     :    -0.000000
      dx2y2   :    -0.000000
      dxy     :    -0.000000
      f0      :    -0.000000  f :    -0.000000
      f+1     :    -0.000000
      f-1     :    -0.000000
      f+2     :    -0.000000
      f-2     :     0.000000
      f+3     :    -0.000000
      f-3     :    -0.000000

 22 F s       :    -0.000000  s :    -0.000000
      pz      :     0.000000  p :    -0.000003
      px      :    -0.000003
      py      :    -0.000000
      dz2     :    -0.000000  d :    -0.000000
      dxz     :    -0.000000
      dyz     :    -0.000000
      dx2y2   :    -0.000000
      dxy     :    -0.000000
      f0      :    -0.000000  f :    -0.000000
      f+1     :    -0.000000
      f-1     :    -0.000000
      f+2     :    -0.000000
      f-2     :     0.000000
      f+3     :    -0.000000
      f-3     :    -0.000000

 23 F s       :     0.000000  s :     0.000000
      pz      :     0.000000  p :     0.000000
      px      :     0.000000
      py      :    -0.000000
      dz2     :    -0.000000  d :    -0.000000
      dxz     :    -0.000000
      dyz     :    -0.000000
      dx2y2   :     0.000000
      dxy     :     0.000000
      f0      :    -0.000000  f :    -0.000000
      f+1     :    -0.000000
      f-1     :    -0.000000
      f+2     :     0.000000
      f-2     :    -0.000000
      f+3     :     0.000000
      f-3     :     0.000000

 24 H s       :    -0.001557  s :    -0.001557
      pz      :     0.000559  p :     0.000620
      px      :     0.000012
      py      :     0.000049



                      *****************************
                      * MAYER POPULATION ANALYSIS *
                      *****************************

  NA   - Mulliken gross atomic population
  ZA   - Total nuclear charge
  QA   - Mulliken gross atomic charge
  VA   - Mayer's total valence
  BVA  - Mayer's bonded valence
  FA   - Mayer's free valence

  ATOM       NA         ZA         QA         VA         BVA        FA
  0 C      5.6982     6.0000     0.3018     4.4071     4.4011     0.0060
  1 O      8.3922     8.0000    -0.3922     2.1321     2.1318     0.0003
  2 O      8.3609     8.0000    -0.3609     2.1453     2.1211     0.0242
  3 C      5.8272     6.0000     0.1728     3.7786     3.2737     0.5049
  4 C      5.6077     6.0000     0.3923     4.1874     4.1853     0.0021
  5 C      5.6709     6.0000     0.3291     4.1901     4.1901     0.0000
  6 C      5.6729     6.0000     0.3271     4.2120     4.2120     0.0000
  7 C      5.7007     6.0000     0.2993     4.1894     4.1894     0.0000
  8 C      5.6690     6.0000     0.3310     4.2098     4.2098     0.0000
  9 C      5.5291     6.0000     0.4709     4.4684     4.4684     0.0000
 10 F      9.1439     9.0000    -0.1439     1.1877     1.1772     0.0105
 11 F      9.1696     9.0000    -0.1696     1.1376     1.1374     0.0002
 12 F      9.1750     9.0000    -0.1750     1.1295     1.1286     0.0009
 13 F      9.1665     9.0000    -0.1665     1.1553     1.1553     0.0000
 14 F      9.1653     9.0000    -0.1653     1.1559     1.1559     0.0000
 15 F      9.1623     9.0000    -0.1623     1.1594     1.1594     0.0000
 16 F      9.1613     9.0000    -0.1613     1.1620     1.1620     0.0000
 17 F      9.1628     9.0000    -0.1628     1.1615     1.1615     0.0000
 18 F      9.1625     9.0000    -0.1625     1.1600     1.1600    -0.0000
 19 F      9.1626     9.0000    -0.1626     1.1601     1.1601     0.0000
 20 F      9.1592     9.0000    -0.1592     1.1620     1.1620     0.0000
 21 F      9.1558     9.0000    -0.1558     1.1650     1.1650     0.0000
 22 F      9.1528     9.0000    -0.1528     1.1653     1.1653     0.0000
 23 F      9.1537     9.0000    -0.1537     1.1672     1.1672     0.0000
 24 H      0.6178     1.0000     0.3822     0.8813     0.8813     0.0000

  Mayer bond orders larger than 0.100000
B(  0-C ,  1-O ) :   1.2736 B(  0-C ,  2-O ) :   1.9471 B(  0-C ,  3-C ) :   1.1214 
B(  1-O , 24-H ) :   0.8254 B(  3-C ,  4-C ) :   1.0127 B(  3-C , 10-F ) :   1.0959 
B(  4-C ,  5-C ) :   0.9338 B(  4-C , 11-F ) :   1.0518 B(  4-C , 12-F ) :   1.0614 
B(  5-C ,  6-C ) :   0.9419 B(  5-C , 13-F ) :   1.0695 B(  5-C , 14-F ) :   1.0850 
B(  6-C ,  7-C ) :   0.9286 B(  6-C , 15-F ) :   1.0872 B(  6-C , 16-F ) :   1.0885 
B(  7-C ,  8-C ) :   0.9344 B(  7-C , 17-F ) :   1.0810 B(  7-C , 18-F ) :   1.0905 
B(  8-C ,  9-C ) :   0.9528 B(  8-C , 19-F ) :   1.0826 B(  8-C , 20-F ) :   1.0982 
B(  9-C , 21-F ) :   1.1283 B(  9-C , 22-F ) :   1.1342 B(  9-C , 23-F ) :   1.1430 


-------
TIMINGS
-------

Total SCF time: 0 days 0 hours 0 min 44 sec 

Total time                  ....      44.116 sec
Sum of individual times     ....      43.034 sec  ( 97.5%)

SCF preparation             ....       1.386 sec  (  3.1%)
Fock matrix formation       ....      36.954 sec  ( 83.8%)
  Startup                   ....       0.214 sec  (  0.6% of F)
  Split-RI-J                ....       2.123 sec  (  5.7% of F)
  Chain of spheres X        ....      24.417 sec  ( 66.1% of F)
  XC integration            ....       7.942 sec  ( 21.5% of F)
    XC Preparation          ....       0.000 sec  (  0.0% of XC)
    Basis function eval.    ....       0.526 sec  (  6.6% of XC)
    Density eval.           ....       2.506 sec  ( 31.6% of XC)
    XC-Functional eval.     ....       0.155 sec  (  2.0% of XC)
    XC-Potential eval.      ....       2.615 sec  ( 32.9% of XC)
  CPCM terms                ....       1.862 sec  (  5.0% of F)
Diagonalization             ....       0.000 sec  (  0.0%)
Density matrix formation    ....       0.438 sec  (  1.0%)
Total Energy calculation    ....       0.232 sec  (  0.5%)
Population analysis         ....       0.461 sec  (  1.0%)
Orbital Transformation      ....       0.479 sec  (  1.1%)
Orbital Orthonormalization  ....       0.000 sec  (  0.0%)
DIIS solution               ....       0.688 sec  (  1.6%)
SOSCF solution              ....       2.396 sec  (  5.4%)
Finished LeanSCF after  44.5 sec

Maximum memory used throughout the entire LEANSCF-calculation: 107.9 MB


-------------------------------------------------------------------------------
                          DFT DISPERSION CORRECTION                            
                                                                               
                              DFTD3 V3.1  Rev 1                                
                          USING Becke-Johnson damping                          
-------------------------------------------------------------------------------
The R2SCANh functional is recognized
Active option DFTDOPT                   ...         4   

molecular C6(AA) [au] = 6516.289298 


            DFT-D V3
 parameters
 s6 scaling factor         :     1.0000 
 a1 scaling factor         :     0.4709 
 s8 scaling factor         :     1.1236 
 a2 scaling factor         :     5.9157 
 ad hoc parameters k1-k3   :    16.0000     1.3333    -4.0000 

 Edisp/kcal,au: -5.161593312406  -0.008225521646 
 E6   /kcal   :  -3.769619565 
 E8   /kcal   :  -1.391973747 
 % E8         :  26.967908224 

-------------------------   ----------------
Dispersion correction           -0.008225522
-------------------------   ----------------


-------------------------   --------------------
FINAL SINGLE POINT ENERGY     -1853.576956826263
-------------------------   --------------------

                                *** OPTIMIZATION RUN DONE ***



           ************************************************************
           *        Program running with 20 parallel MPI-processes    *
           *              working on a common directory               *
           ************************************************************

------------------------------------------------------------------------------
                              ORCA PROPERTY CALCULATIONS
------------------------------------------------------------------------------

GBWName                                 ... rf_mecn_opt_r2s_C2_P_B.gbw
Number of atoms                         ...     25
Number of basis functions               ...    750
Max core memory                         ...   8000 MB

Electric properties:
Dipole moment                           ... YES
Quadrupole moment                       ...  NO
Static polarizability (Dipole/Dipole)   ...  NO
Static polarizability (Dipole/Quad.)    ...  NO
Static polarizability (Quad./Quad.)     ...  NO
Static polarizability (Velocity)        ...  NO

Atomic electric properties:
Dipole moment                           ...  NO
Quadrupole moment                       ...  NO
Static polarizability                   ...  NO

Choice of electric origin               ... Center of mass
Position of electric origin             ...    -0.464368    -0.129734    -0.222989

General magnetic properties:
Magnetizability                         ...  NO

EPR properties:
g-Tensor (aka g-matrix)                 ...  NO
Zero-Field splitting spin-orbit         ...  NO
Zero-field splitting spin-spin          ...  NO
Hyperfine couplings                     ...  NO (   0 nuclei)
Quadrupole couplings                    ...  NO (   0 nuclei)
Contact density                         ...  NO (   0 nuclei)

NMR properties:
Chemical shifts                         ...  NO (   0 nuclei)
Spin-rotation constants                 ...  NO (   0 nuclei)
Spin-spin couplings                     ...  NO (   0 nuclei,    0 pairs)

Choice of magnetic origin               ... GIAO
Position of magnetic origin             ...     0.000000     0.000000     0.000000

Properties with geometric perturbations:
SCF Hessian                             ...  NO
IR spectrum                             ...  NO
VCD spectrum                            ...  NO
X-ray spectroscopy properties:
SCF XES/XAS/RIXS spectra                ...  NO


-------------
DIPOLE MOMENT
-------------

Method             : SCF
Type of density    : Electron Density
Multiplicity       :   2
Irrep              :   0
Energy             : -1853.5687313046171312 Eh
Relativity type    : 
Basis              : AO
                                X                 Y                 Z
Electronic contribution:    -16.669481385      -0.112840306       0.559000154
Nuclear contribution   :     17.562344361      -0.635662963      -0.378751583
                        -----------------------------------------
Total Dipole Moment    :      0.892862976      -0.748503269       0.180248571
                        -----------------------------------------
Magnitude (a.u.)       :      1.178961825
Magnitude (Debye)      :      2.996682808



--------------------
Rotational spectrum 
--------------------
 
Rotational constants in cm-1:             0.023454             0.004007             0.003879 
Rotational constants in MHz :           703.119681           120.127619           116.283698 

Dipole components along the rotational axes: 
x,y,z [a.u.] :    -0.918553    -0.714938     0.187281 
x,y,z [Debye]:    -2.334777    -1.817229     0.476031 

 

Dipole moment calculation done in   0.1 sec 

Maximum memory used throughout the entire PROP-calculation: 55.3 MB

--------------------------------
SUGGESTED CITATIONS FOR THIS RUN
--------------------------------

Below you find a list of papers that are relevant to this ORCA run
We neither can nor want to force you to cite these papers, but we appreciate if you do
You receive ORCA, which is the product of decades of hard work by many enthusiastic individuals, for free
The only thing we kindly ask in return is that you cite our papers,
We deeply appreciate it, if you show your appreciation for ORCA by not just citing the generic ORCA reference.

Please note that relegating all ORCA citations to the supporting information does *not* help us.
SI sections are not indexed - citations you put there will not count into any citation statistics
But we need these citations in order to attract the funding resources that allow us to do what we are doing

Therefore, if you are a happy ORCA user, please consider citing a few of the papers listed below in the main body of your paper

In addition to the list printed below, the program has created the file rf_mecn_opt_r2s_C2_P_B.bibtex that contains the list in bibtex format
You can import this file easily into all common literature databanks and citation aid programs


List of essential papers. We consider these as the minimum necessary citations

  1. Neese,F.
     Software update: the ORCA program system, version 5.0
     WIRES Comput. Molec. Sci., 2022 12(1)e1606
     doi.org/10.1002/wcms.1606

List of papers to cite with high priority. The work reported in these papers was absolutely
necessary for this run to complete.
Our perspective: the developers of density functionals and basis sets usually get cited in chemistry papers
Good! But without the algorithms to do something with them, the functionals or basis sets would not do anything.
Hence, in our opinion, the algorithm design and method developments papers are equally worthy of getting cited

  1. Neese,F.
     An improvement of the resolution of the identity approximation for the formation of the Coulomb matrix
     J. Comp. Chem., 2003 24(14)1740-1747
     doi.org/10.1002/jcc.10318
  2. Neese,F.; Wennmohs,F.; Hansen,A.; Becker,U.
     Efficient, approximate and parallel Hartree-Fock and hybrid DFT calculations. A 'chain-of-spheres' algorithm for the Hartree-Fock exchange
     Chem. Phys., 2009 356(1-3)98-109
     doi.org/10.1016/j.chemphys.2008.10.036
  3. Garcia-Rates,M.; Neese,F.
     Effect of the Solute Cavity on the Solvation Energy and its Derivatives within the Framework of the Gaussian Charge Scheme
     J. Comput. Chem., 2020 41 922-939
     doi.org/10.1002/jcc.26139
  4. Helmich-Paris,B.; de Souza,B.; Neese,F.; Izsák,R.
     An improved chain of spheres for exchange algorithm
     J. Chem. Phys., 2021 155 104109
     doi.org/doi: 10.1063/5.0058766.
  5. Neese,F.
     The SHARK Integral Generation and Digestion System
     J. Comp. Chem., 2022  1-16
     doi.org/10.1002/jcc.26942
  6. Lehtola,S.; Steigemann,C.; Oliveira,M.; Marques,M.
     Recent developments in Libxc - A comprehensive library of functionals for density functional theory
     Software X, 2018 7 
     doi.org/10.1016/j.softx.2017.11.002
  7. Grimme,S.; Antony,J.; Ehrlich,S.; Krieg,H.
     A consistent and accurate ab initio parametrization of density functional dispersion correction (DFT-D) for the 94 elements H-Pu
     J. Chem. Phys., 2010 132 154104
     doi.org/10.1063/1.3382344
  8. Grimme,S.; Ehrlich,S.; Goerigk,L.
     Effect of the damping function in dispersion corrected density functional theory
     J. Comput. Chem., 2011 32(7)1456-1465
     doi.org/10.1002/jcc.21759
  9. Bursch,M.; Neugebauer,H.; Ehlert,S.; Grimme,S.
     Dispersion corrected r2SCAN based global hybrid functionals: r2SCANh, r2SCAN0, and r2SCAN50
     J. Phys. Chem., 2022 156(13)134105
     doi.org/10.1063/5.0086040

List of suggested additional citations. These are papers that are important in the 'surrounding' of 
of this run, or papers that preceded the highly important papers. If you like your results we are grateful for a citation.

  1. Izsak,R.; Neese,F.
     An overlap fitted chain of spheres exchange method
     J. Chem. Phys., 2011 135 144105
     doi.org/10.1063/1.3646921
  2. Izsak,R.; Hansen,A.; Neese,F.
     The resolution of identity and chain of spheres approximations for the LPNO-CCSD singles Fock term
     Molec. Phys., 2012 110 2413-2417
     doi.org/10.1080/00268976.2012.687466
  3. Neese,F.
     The ORCA program system
     WIRES Comput. Molec. Sci., 2012 2(1)73-78
     doi.org/10.1002/wcms.81
  4. Izsak,R.; Neese,F.; Klopper,W.
     Robust fitting techniques in the chain of spheres approximation to the Fock exchange: The role of the complementary space
     J. Chem. Phys., 2013 139 
     doi.org/10.1063/1.4819264
  5. Neese,F.
     Software update: the ORCA program system, version 4.0
     WIRES Comput. Molec. Sci., 2018 8(1)1-6
     doi.org/10.1002/wcms.1327
  6. Neese,F.; Wennmohs,F.; Becker,U.; Riplinger,C.
     The ORCA quantum chemistry program package
     J. Chem. Phys., 2020 152 Art. No. L224108
     doi.org/10.1063/5.0004608
  7. Wittmann,L.; Neugebauer,H.; Grimme,S.; Bursch,M.
     Dispersion-corrected r2SCAN based double-hybrid functionals
     J. Chem. Phys., 2023 159(22)224103
     doi.org/10.1063/5.0174988

List of optional additional citations

  1. Neese,F.
     Approximate second-order SCF convergence for spin unrestricted wavefunctions
     Chem. Phys. Lett., 2000 325(1-3)93-98
     doi.org/10.1016/s0009-2614(00)00662-x

Timings for individual modules:

Sum of individual times          ...     2960.411 sec (=  49.340 min)
Startup calculation              ...      135.087 sec (=   2.251 min)   4.6 %
SCF iterations                   ...     2168.423 sec (=  36.140 min)  73.2 %
Property calculations            ...        0.953 sec (=   0.016 min)   0.0 %
SCF Gradient evaluation          ...      655.354 sec (=  10.923 min)  22.1 %
Geometry relaxation              ...        0.595 sec (=   0.010 min)   0.0 %
                             ****ORCA TERMINATED NORMALLY****
TOTAL RUN TIME: 0 days 0 hours 49 minutes 41 seconds 880 msec
