
                                 *****************
                                 * O   R   C   A *
                                 *****************

                                            #,                                       
                                            ###                                      
                                            ####                                     
                                            #####                                    
                                            ######                                   
                                           ########,                                 
                                     ,,################,,,,,                         
                               ,,#################################,,                 
                          ,,##########################################,,             
                       ,#########################################, ''#####,          
                    ,#############################################,,   '####,        
                  ,##################################################,,,,####,       
                ,###########''''           ''''###############################       
              ,#####''   ,,,,##########,,,,          '''####'''          '####       
            ,##' ,,,,###########################,,,                        '##       
           ' ,,###''''                  '''############,,,                           
         ,,##''                                '''############,,,,        ,,,,,,###''
      ,#''                                            '''#######################'''  
     '                                                          ''''####''''         
             ,#######,   #######,   ,#######,      ##                                
            ,#'     '#,  ##    ##  ,#'     '#,    #''#        ######   ,####,        
            ##       ##  ##   ,#'  ##            #'  '#       #        #'  '#        
            ##       ##  #######   ##           ,######,      #####,   #    #        
            '#,     ,#'  ##    ##  '#,     ,#' ,#      #,         ##   #,  ,#        
             '#######'   ##     ##  '#######'  #'      '#     #####' # '####'        



                  #######################################################
                  #                        -***-                        #
                  #          Department of theory and spectroscopy      #
                  #    Directorship and core code : Frank Neese         #
                  #        Max Planck Institute fuer Kohlenforschung    #
                  #                Kaiser Wilhelm Platz 1               #
                  #                 D-45470 Muelheim/Ruhr               #
                  #                      Germany                        #
                  #                                                     #
                  #                  All rights reserved                #
                  #                        -***-                        #
                  #######################################################


                         Program Version 5.0.3 -  RELEASE  -


 With contributions from (in alphabetic order):
   Daniel Aravena         : Magnetic Suceptibility
   Michael Atanasov       : Ab Initio Ligand Field Theory (pilot matlab implementation)
   Alexander A. Auer      : GIAO ZORA, VPT2 properties, NMR spectrum
   Ute Becker             : Parallelization
   Giovanni Bistoni       : ED, misc. LED, open-shell LED, HFLD
   Martin Brehm           : Molecular dynamics
   Dmytro Bykov           : SCF Hessian
   Vijay G. Chilkuri      : MRCI spin determinant printing, contributions to CSF-ICE
   Dipayan Datta          : RHF DLPNO-CCSD density
   Achintya Kumar Dutta   : EOM-CC, STEOM-CC
   Dmitry Ganyushin       : Spin-Orbit,Spin-Spin,Magnetic field MRCI
   Miquel Garcia          : C-PCM and meta-GGA Hessian, CC/C-PCM, Gaussian charge scheme
   Yang Guo               : DLPNO-NEVPT2, F12-NEVPT2, CIM, IAO-localization
   Andreas Hansen         : Spin unrestricted coupled pair/coupled cluster methods
   Benjamin Helmich-Paris : MC-RPA, TRAH-SCF, COSX integrals
   Lee Huntington         : MR-EOM, pCC
   Robert Izsak           : Overlap fitted RIJCOSX, COSX-SCS-MP3, EOM
   Marcus Kettner         : VPT2
   Christian Kollmar      : KDIIS, OOCD, Brueckner-CCSD(T), CCSD density, CASPT2, CASPT2-K
   Simone Kossmann        : Meta GGA functionals, TD-DFT gradient, OOMP2, MP2 Hessian
   Martin Krupicka        : Initial AUTO-CI
   Lucas Lang             : DCDCAS
   Marvin Lechner         : AUTO-CI (C++ implementation), FIC-MRCC
   Dagmar Lenk            : GEPOL surface, SMD
   Dimitrios Liakos       : Extrapolation schemes; Compound Job, initial MDCI parallelization
   Dimitrios Manganas     : Further ROCIS development; embedding schemes
   Dimitrios Pantazis     : SARC Basis sets
   Anastasios Papadopoulos: AUTO-CI, single reference methods and gradients
   Taras Petrenko         : DFT Hessian,TD-DFT gradient, ASA, ECA, R-Raman, ABS, FL, XAS/XES, NRVS
   Peter Pinski           : DLPNO-MP2, DLPNO-MP2 Gradient
   Christoph Reimann      : Effective Core Potentials
   Marius Retegan         : Local ZFS, SOC
   Christoph Riplinger    : Optimizer, TS searches, QM/MM, DLPNO-CCSD(T), (RO)-DLPNO pert. Triples
   Tobias Risthaus        : Range-separated hybrids, TD-DFT gradient, RPA, STAB
   Michael Roemelt        : Original ROCIS implementation
   Masaaki Saitow         : Open-shell DLPNO-CCSD energy and density
   Barbara Sandhoefer     : DKH picture change effects
   Avijit Sen             : IP-ROCIS
   Kantharuban Sivalingam : CASSCF convergence, NEVPT2, FIC-MRCI
   Bernardo de Souza      : ESD, SOC TD-DFT
   Georgi Stoychev        : AutoAux, RI-MP2 NMR, DLPNO-MP2 response
   Willem Van den Heuvel  : Paramagnetic NMR
   Boris Wezisla          : Elementary symmetry handling
   Frank Wennmohs         : Technical directorship


 We gratefully acknowledge several colleagues who have allowed us to
 interface, adapt or use parts of their codes:
   Stefan Grimme, W. Hujo, H. Kruse, P. Pracht,  : VdW corrections, initial TS optimization,
                  C. Bannwarth, S. Ehlert          DFT functionals, gCP, sTDA/sTD-DF
   Ed Valeev, F. Pavosevic, A. Kumar             : LibInt (2-el integral package), F12 methods
   Garnet Chan, S. Sharma, J. Yang, R. Olivares  : DMRG
   Ulf Ekstrom                                   : XCFun DFT Library
   Mihaly Kallay                                 : mrcc  (arbitrary order and MRCC methods)
   Jiri Pittner, Ondrej Demel                    : Mk-CCSD
   Frank Weinhold                                : gennbo (NPA and NBO analysis)
   Christopher J. Cramer and Donald G. Truhlar   : smd solvation model
   Lars Goerigk                                  : TD-DFT with DH, B97 family of functionals
   V. Asgeirsson, H. Jonsson                     : NEB implementation
   FAccTs GmbH                                   : IRC, NEB, NEB-TS, DLPNO-Multilevel, CI-OPT
                                                   MM, QMMM, 2- and 3-layer-ONIOM, Crystal-QMMM,
                                                   LR-CPCM, SF, NACMEs, symmetry and pop. for TD-DFT,
                                                   nearIR, NL-DFT gradient (VV10), updates on ESD,
                                                   ML-optimized integration grids
   S Lehtola, MJT Oliveira, MAL Marques          : LibXC Library
   Liviu Ungur et al                             : ANISO software


 Your calculation uses the libint2 library for the computation of 2-el integrals
 For citations please refer to: http://libint.valeyev.net

 Your ORCA version has been built with support for libXC version: 5.1.0
 For citations please refer to: https://tddft.org/programs/libxc/

 This ORCA versions uses:
   CBLAS   interface :  Fast vector & matrix operations
   LAPACKE interface :  Fast linear algebra routines
   SCALAPACK package :  Parallel linear algebra routines
   Shared memory     :  Shared parallel matrices
   BLAS/LAPACK       :  OpenBLAS 0.3.15  USE64BITINT DYNAMIC_ARCH NO_AFFINITY SkylakeX SINGLE_THREADED
        Core in use  :  SkylakeX
   Copyright (c) 2011-2014, The OpenBLAS Project


Your calculation utilizes the atom-pairwise dispersion correction
with the Becke-Johnson damping scheme (D3BJ)
Cite in your paper:
S.Grimme, S.Ehrlich, L.Goerigk, J Comput Chem, (2011), 32, 1456–1465 
S.Grimme, J.Antony, S.Ehrlich and H.Krieg, J.Chem.Phys., 132, (2010), 154104 
   

Your calculation utilizes the SMD solvation module
Please cite in your paper:
A.V. Marenich, C.J. Cramer, D.G. Truhlar J. Phys. Chem. B, 113, (2009), 6378 

================================================================================

----- Orbital basis set information -----
Your calculation utilizes the basis: def2-TZVP
   F. Weigend and R. Ahlrichs, Phys. Chem. Chem. Phys. 7, 3297 (2005).

----- AuxJ basis set information -----
Your calculation utilizes the auxiliary basis: def2/J
   F. Weigend, Phys. Chem. Chem. Phys. 8, 1057 (2006).

================================================================================
                                        WARNINGS
                       Please study these warnings very carefully!
================================================================================


WARNING: Geometry Optimization
  ===> : Switching off AutoStart
         For restart on a previous wavefunction, please use MOREAD

INFO   : the flag for use of the SHARK integral package has been found!

================================================================================
                                       INPUT FILE
================================================================================
NAME = rf_mecn_opt_TPS_D_B.inp
|  1> !TPSSh def2-TZVP opt d3 TightSCF SlowConv defgrid2
|  2>  
|  3> %pal
|  4> nprocs 20
|  5> end
|  6>  
|  7> %scf
|  8> MaxIter 1500
|  9> end
| 10>  
| 11> %maxcore 8000
| 12>  
| 13> !CPCM
| 14> %cpcm smd true
| 15> SMDsolvent "ACETONITRILE"
| 16> end
| 17>  
| 18> * xyz -1 1
| 19> 6        4.790427000     -0.033865800     -0.529943200
| 20> 8        5.449345000     -1.206924000     -0.894594600
| 21> 8        4.978223000      1.323071000     -0.737377200
| 22> 6        3.506687600     -0.338741600      0.376153800
| 23> 6        2.222300000      0.400524800     -0.110681600
| 24> 6        0.900506800     -0.386389800      0.175703000
| 25> 6       -0.395261200      0.487294000      0.065549000
| 26> 6       -1.705693600     -0.364773800     -0.068373600
| 27> 6       -3.005136200      0.445344800      0.258164000
| 28> 6       -4.319880200     -0.214526000     -0.270540800
| 29> 9        3.211587400     -1.692050400      0.412735200
| 30> 9        3.741061800      0.055285800      1.689948800
| 31> 9        2.125696800      1.616867800      0.483236600
| 32> 9        2.314152400      0.589704000     -1.455769200
| 33> 9        0.794028800     -1.413561400     -0.700839000
| 34> 9        0.958350600     -0.884509000      1.435093400
| 35> 9       -0.498373400      1.260265600      1.173340200
| 36> 9       -0.299075000      1.289512600     -1.020910800
| 37> 9       -1.641790400     -1.418189000      0.779523800
| 38> 9       -1.792381400     -0.831391600     -1.336863600
| 39> 9       -2.918792200      1.679227200     -0.295171200
| 40> 9       -3.119771000      0.573779800      1.598579800
| 41> 9       -4.383115600     -1.504377600      0.089127600
| 42> 9       -5.365669800      0.430528600      0.260394200
| 43> 9       -4.396020400     -0.128550600     -1.602941800
| 44> *
| 45> 
| 46>                          ****END OF INPUT****
================================================================================

                       *****************************
                       * Geometry Optimization Run *
                       *****************************

Geometry optimization settings:
Update method            Update   .... BFGS
Choice of coordinates    CoordSys .... Z-matrix Internals
Initial Hessian          InHess   .... Almoef's Model

Convergence Tolerances:
Energy Change            TolE     ....  5.0000e-06 Eh
Max. Gradient            TolMAXG  ....  3.0000e-04 Eh/bohr
RMS Gradient             TolRMSG  ....  1.0000e-04 Eh/bohr
Max. Displacement        TolMAXD  ....  4.0000e-03 bohr
RMS Displacement         TolRMSD  ....  2.0000e-03 bohr
Strict Convergence                ....  False
------------------------------------------------------------------------------
                        ORCA OPTIMIZATION COORDINATE SETUP
------------------------------------------------------------------------------

The optimization will be done in new redundant internal coordinates
Making redundant internal coordinates   ...  (new redundants) done
Evaluating the initial hessian          ...  (Almloef) done
Evaluating the coordinates              ...  done
Calculating the B-matrix                .... done
Calculating the G-matrix                .... done
Diagonalizing the G-matrix              .... done
Small eigenvalue found = 5.721e-03
Small eigenvalue found = 1.636e-02
The first mode is                       ....   60
The number of degrees of freedom        ....   69

    -----------------------------------------------------------------
                    Redundant Internal Coordinates


    -----------------------------------------------------------------
         Definition                    Initial Value    Approx d2E/dq
    -----------------------------------------------------------------
      1. B(O   1,C   0)                  1.3940         0.551454   
      2. B(O   2,C   0)                  1.3855         0.568952   
      3. B(C   3,C   0)                  1.6006         0.288221   
      4. B(C   4,C   3)                  1.5599         0.334759   
      5. B(C   5,C   4)                  1.5647         0.328824   
      6. B(C   6,C   5)                  1.5667         0.326486   
      7. B(C   7,C   6)                  1.5688         0.323927   
      8. B(C   8,C   7)                  1.5657         0.327637   
      9. B(C   9,C   8)                  1.5632         0.330714   
     10. B(F  10,C   3)                  1.3856         0.528443   
     11. B(F  11,C   3)                  1.3915         0.517117   
     12. B(F  12,C   4)                  1.3570         0.586881   
     13. B(F  13,C   4)                  1.3614         0.577499   
     14. B(F  14,C   5)                  1.3545         0.592326   
     15. B(F  15,C   5)                  1.3556         0.590092   
     16. B(F  16,C   6)                  1.3547         0.591865   
     17. B(F  17,C   6)                  1.3540         0.593567   
     18. B(F  18,C   7)                  1.3538         0.593973   
     19. B(F  19,C   7)                  1.3544         0.592672   
     20. B(F  20,C   8)                  1.3550         0.591238   
     21. B(F  21,C   8)                  1.3514         0.599114   
     22. B(F  22,C   9)                  1.3406         0.623533   
     23. B(F  23,C   9)                  1.3385         0.628179   
     24. B(F  24,C   9)                  1.3373         0.630929   
     25. A(O   1,C   0,C   3)          111.5249         0.369222   
     26. A(O   1,C   0,O   2)          136.1318         0.413163   
     27. A(O   2,C   0,C   3)          112.3347         0.371210   
     28. A(C   0,C   3,F  10)          111.8265         0.364982   
     29. A(C   4,C   3,F  11)          107.4072         0.373095   
     30. A(F  10,C   3,F  11)          106.7094         0.399684   
     31. A(C   0,C   3,C   4)          113.1687         0.341363   
     32. A(C   0,C   3,F  11)          110.2099         0.363632   
     33. A(C   4,C   3,F  10)          107.2033         0.374492   
     34. A(C   3,C   4,F  12)          110.2926         0.381351   
     35. A(F  12,C   4,F  13)          108.2194         0.415201   
     36. A(C   3,C   4,C   5)          113.5839         0.349005   
     37. A(C   5,C   4,F  13)          107.9208         0.379109   
     38. A(C   3,C   4,F  13)          108.5818         0.380286   
     39. A(C   5,C   4,F  12)          108.0911         0.380169   
     40. A(F  14,C   5,F  15)          109.0206         0.417483   
     41. A(C   4,C   5,C   6)          113.9128         0.347536   
     42. A(C   6,C   5,F  15)          107.7906         0.380059   
     43. A(C   4,C   5,F  15)          108.5900         0.380529   
     44. A(C   6,C   5,F  14)          108.2026         0.380308   
     45. A(C   4,C   5,F  14)          109.2282         0.380779   
     46. A(C   5,C   6,C   7)          113.2023         0.346660   
     47. A(F  16,C   6,F  17)          108.8752         0.417862   
     48. A(C   7,C   6,F  17)          108.2186         0.379927   
     49. A(C   5,C   6,F  17)          109.1523         0.380446   
     50. A(C   7,C   6,F  16)          108.4284         0.379738   
     51. A(C   5,C   6,F  16)          108.8835         0.380256   
     52. A(C   8,C   7,F  18)          108.1296         0.380723   
     53. A(C   6,C   7,F  18)          109.2524         0.379972   
     54. A(F  18,C   7,F  19)          108.7561         0.418014   
     55. A(C   6,C   7,C   8)          113.2298         0.346865   
     56. A(C   8,C   7,F  19)          108.6915         0.380579   
     57. A(C   6,C   7,F  19)          108.6955         0.379828   
     58. A(C   9,C   8,F  21)          107.7127         0.381912   
     59. A(C   7,C   8,F  21)          109.0521         0.381293   
     60. A(C   9,C   8,F  20)          107.4499         0.381036   
     61. A(C   7,C   8,C   9)          114.1471         0.348078   
     62. A(F  20,C   8,F  21)          108.8987         0.418476   
     63. A(C   7,C   8,F  20)          109.4572         0.380419   
     64. A(F  23,C   9,F  24)          108.6464         0.426961   
     65. A(F  22,C   9,F  24)          109.0552         0.426394   
     66. A(C   8,C   9,F  24)          110.9604         0.385362   
     67. A(F  22,C   9,F  23)          108.6877         0.426061   
     68. A(C   8,C   9,F  23)          108.6349         0.385069   
     69. A(C   8,C   9,F  22)          110.7995         0.384572   
     70. D(F  11,C   3,C   0,O   1)    108.6317         0.006601   
     71. D(F  10,C   3,C   0,O   2)    171.0025         0.006601   
     72. D(C   4,C   3,C   0,O   1)   -131.0839         0.006601   
     73. D(C   4,C   3,C   0,O   2)     49.8076         0.006601   
     74. D(F  10,C   3,C   0,O   1)     -9.8890         0.006601   
     75. D(F  11,C   3,C   0,O   2)    -70.4768         0.006601   
     76. D(C   5,C   4,C   3,C   0)    148.6429         0.009100   
     77. D(F  12,C   4,C   3,F  10)    146.3851         0.009100   
     78. D(F  13,C   4,C   3,F  10)    -95.1911         0.009100   
     79. D(C   5,C   4,C   3,F  10)     24.8733         0.009100   
     80. D(F  13,C   4,C   3,C   0)     28.5784         0.009100   
     81. D(F  13,C   4,C   3,F  11)    150.4470         0.009100   
     82. D(F  12,C   4,C   3,F  11)     32.0233         0.009100   
     83. D(F  12,C   4,C   3,C   0)    -89.8453         0.009100   
     84. D(C   5,C   4,C   3,F  11)    -89.4885         0.009100   
     85. D(F  15,C   5,C   4,C   3)     43.8158         0.008811   
     86. D(F  14,C   5,C   4,F  12)    162.3014         0.008811   
     87. D(F  14,C   5,C   4,C   3)    -74.9661         0.008811   
     88. D(C   6,C   5,C   4,F  13)    -75.6292         0.008811   
     89. D(F  14,C   5,C   4,F  13)     45.4721         0.008811   
     90. D(C   6,C   5,C   4,F  12)     41.2001         0.008811   
     91. D(F  15,C   5,C   4,F  12)    -78.9166         0.008811   
     92. D(F  15,C   5,C   4,F  13)    164.2540         0.008811   
     93. D(C   6,C   5,C   4,C   3)    163.9326         0.008811   
     94. D(F  16,C   6,C   5,F  15)     44.2190         0.008700   
     95. D(F  16,C   6,C   5,C   4)    -76.3465         0.008700   
     96. D(C   7,C   6,C   5,F  15)    -76.4529         0.008700   
     97. D(C   7,C   6,C   5,F  14)     41.3107         0.008700   
     98. D(F  16,C   6,C   5,F  14)    161.9826         0.008700   
     99. D(F  17,C   6,C   5,C   4)     42.3872         0.008700   
    100. D(C   7,C   6,C   5,C   4)    162.9815         0.008700   
    101. D(F  17,C   6,C   5,F  15)    162.9527         0.008700   
    102. D(F  17,C   6,C   5,F  14)    -79.2837         0.008700   
    103. D(F  19,C   7,C   6,F  17)     44.3783         0.008578   
    104. D(F  19,C   7,C   6,F  16)    162.3257         0.008578   
    105. D(F  19,C   7,C   6,C   5)    -76.7446         0.008578   
    106. D(F  18,C   7,C   6,F  17)    162.9167         0.008578   
    107. D(F  18,C   7,C   6,F  16)    -79.1358         0.008578   
    108. D(F  18,C   7,C   6,C   5)     41.7939         0.008578   
    109. D(C   8,C   7,C   6,F  17)    -76.5134         0.008578   
    110. D(C   8,C   7,C   6,F  16)     41.4341         0.008578   
    111. D(C   8,C   7,C   6,C   5)    162.3638         0.008578   
    112. D(F  21,C   8,C   7,F  19)    162.0243         0.008755   
    113. D(F  21,C   8,C   7,F  18)     44.1231         0.008755   
    114. D(F  21,C   8,C   7,C   6)    -77.0818         0.008755   
    115. D(F  20,C   8,C   7,F  19)    -78.9355         0.008755   
    116. D(F  20,C   8,C   7,F  18)    163.1633         0.008755   
    117. D(F  20,C   8,C   7,C   6)     41.9584         0.008755   
    118. D(C   9,C   8,C   7,F  19)     41.5227         0.008755   
    119. D(C   9,C   8,C   7,F  18)    -76.3785         0.008755   
    120. D(C   9,C   8,C   7,C   6)    162.4166         0.008755   
    121. D(F  24,C   9,C   8,F  21)    167.4828         0.008903   
    122. D(F  24,C   9,C   8,C   7)    -71.2711         0.008903   
    123. D(F  23,C   9,C   8,F  21)     48.1091         0.008903   
    124. D(F  23,C   9,C   8,F  20)    -69.0724         0.008903   
    125. D(F  23,C   9,C   8,C   7)    169.3552         0.008903   
    126. D(F  22,C   9,C   8,F  21)    -71.2185         0.008903   
    127. D(F  24,C   9,C   8,F  20)     50.3013         0.008903   
    128. D(F  22,C   9,C   8,F  20)    171.5999         0.008903   
    129. D(F  22,C   9,C   8,C   7)     50.0276         0.008903   
    -----------------------------------------------------------------

Number of atoms                         .... 25
Number of degrees of freedom            .... 129

         *************************************************************
         *                GEOMETRY OPTIMIZATION CYCLE   1            *
         *************************************************************
---------------------------------
CARTESIAN COORDINATES (ANGSTROEM)
---------------------------------
  C      4.790427   -0.033866   -0.529943
  O      5.449345   -1.206924   -0.894595
  O      4.978223    1.323071   -0.737377
  C      3.506688   -0.338742    0.376154
  C      2.222300    0.400525   -0.110682
  C      0.900507   -0.386390    0.175703
  C     -0.395261    0.487294    0.065549
  C     -1.705694   -0.364774   -0.068374
  C     -3.005136    0.445345    0.258164
  C     -4.319880   -0.214526   -0.270541
  F      3.211587   -1.692050    0.412735
  F      3.741062    0.055286    1.689949
  F      2.125697    1.616868    0.483237
  F      2.314152    0.589704   -1.455769
  F      0.794029   -1.413561   -0.700839
  F      0.958351   -0.884509    1.435093
  F     -0.498373    1.260266    1.173340
  F     -0.299075    1.289513   -1.020911
  F     -1.641790   -1.418189    0.779524
  F     -1.792381   -0.831392   -1.336864
  F     -2.918792    1.679227   -0.295171
  F     -3.119771    0.573780    1.598580
  F     -4.383116   -1.504378    0.089128
  F     -5.365670    0.430529    0.260394
  F     -4.396020   -0.128551   -1.602942

----------------------------
CARTESIAN COORDINATES (A.U.)
----------------------------
  NO LB      ZA    FRAG     MASS         X           Y           Z
   0 C     6.0000    0    12.011    9.052595   -0.063997   -1.001448
   1 O     8.0000    0    15.999   10.297770   -2.280756   -1.690539
   2 O     8.0000    0    15.999    9.407478    2.500242   -1.393441
   3 C     6.0000    0    12.011    6.626679   -0.640129    0.710828
   4 C     6.0000    0    12.011    4.199538    0.756882   -0.209158
   5 C     6.0000    0    12.011    1.701711   -0.730171    0.332031
   6 C     6.0000    0    12.011   -0.746935    0.920852    0.123870
   7 C     6.0000    0    12.011   -3.223294   -0.689323   -0.129207
   8 C     6.0000    0    12.011   -5.678884    0.841580    0.487859
   9 C     6.0000    0    12.011   -8.163391   -0.405395   -0.511248
  10 F     9.0000    0    18.998    6.069021   -3.197512    0.779956
  11 F     9.0000    0    18.998    7.069582    0.104475    3.193540
  12 F     9.0000    0    18.998    4.016985    3.055437    0.913185
  13 F     9.0000    0    18.998    4.373114    1.114379   -2.751005
  14 F     9.0000    0    18.998    1.500497   -2.671244   -1.324394
  15 F     9.0000    0    18.998    1.811020   -1.671480    2.711934
  16 F     9.0000    0    18.998   -0.941789    2.381557    2.217292
  17 F     9.0000    0    18.998   -0.565170    2.436826   -1.929242
  18 F     9.0000    0    18.998   -3.102534   -2.679989    1.473086
  19 F     9.0000    0    18.998   -3.387110   -1.571102   -2.526306
  20 F     9.0000    0    18.998   -5.515718    3.173280   -0.557793
  21 F     9.0000    0    18.998   -5.895513    1.084287    3.020878
  22 F     9.0000    0    18.998   -8.282888   -2.842862    0.168427
  23 F     9.0000    0    18.998  -10.139646    0.813581    0.492074
  24 F     9.0000    0    18.998   -8.307275   -0.242925   -3.029121

--------------------------------
INTERNAL COORDINATES (ANGSTROEM)
--------------------------------
 C      0   0   0     0.000000000000     0.00000000     0.00000000
 O      1   0   0     1.393990356793     0.00000000     0.00000000
 O      1   2   0     1.385486802956   136.13177198     0.00000000
 C      1   2   3     1.600608594862   111.52489317   181.18992567
 C      4   1   2     1.559863783763   113.16872737   228.91614990
 C      5   4   1     1.564732561934   113.58394786   148.64287440
 C      6   5   4     1.566675459667   113.91280616   163.93256239
 C      7   6   5     1.568817348692   113.20226571   162.98152714
 C      8   7   6     1.565717094808   113.22984595   162.36375422
 C      9   8   7     1.563173062643   114.14707705   162.41661495
 F      4   1   2     1.385592665621   111.82651119   350.11101305
 F      4   1   2     1.391490625050   110.20991618   108.63170802
 F      5   4   1     1.357041377479   110.29260564   270.15468021
 F      5   4   1     1.361428031433   108.58179722    28.57841973
 F      6   5   4     1.354527570075   109.22822656   285.03385927
 F      6   5   4     1.355556277776   108.59004089    43.81583148
 F      7   6   5     1.354739297058   108.88346185   283.65347401
 F      7   6   5     1.353957667090   109.15230848    42.38718856
 F      8   7   6     1.353771473879   109.25240264    41.79387651
 F      8   7   6     1.354368423305   108.69554158   283.25540020
 F      9   8   7     1.355028009646   109.45719767    41.95842364
 F      9   8   7     1.351425618925   109.05210362   282.91820052
 F     10   9   8     1.340551089588   110.79953142    50.02756898
 F     10   9   8     1.338530275591   108.63493714   169.35523750
 F     10   9   8     1.337341214598   110.96044107   288.72891896

---------------------------
INTERNAL COORDINATES (A.U.)
---------------------------
 C      0   0   0     0.000000000000     0.00000000     0.00000000
 O      1   0   0     2.634260007667     0.00000000     0.00000000
 O      1   2   0     2.618190619750   136.13177198     0.00000000
 C      1   2   3     3.024711891890   111.52489317   181.18992567
 C      4   1   2     2.947715357535   113.16872737   228.91614990
 C      5   4   1     2.956916014884   113.58394786   148.64287440
 C      6   5   4     2.960587559506   113.91280616   163.93256239
 C      7   6   5     2.964635143173   113.20226571   162.98152714
 C      8   7   6     2.958776512386   113.22984595   162.36375422
 C      9   8   7     2.953968988318   114.14707705   162.41661495
 F      4   1   2     2.618390671194   111.82651119   350.11101305
 F      4   1   2     2.629536199263   110.20991618   108.63170802
 F      5   4   1     2.564436555835   110.29260564   270.15468021
 F      5   4   1     2.572726130452   108.58179722    28.57841973
 F      6   5   4     2.559686148288   109.22822656   285.03385927
 F      6   5   4     2.561630124115   108.59004089    43.81583148
 F      7   6   5     2.560086254300   108.88346185   283.65347401
 F      7   6   5     2.558609187723   109.15230848    42.38718856
 F      8   7   6     2.558257333546   109.25240264    41.79387651
 F      8   7   6     2.559385404477   108.69554158   283.25540020
 F      9   8   7     2.560631842023   109.45719767    41.95842364
 F      9   8   7     2.553824310132   109.05210362   282.91820052
 F     10   9   8     2.533274427850   110.79953142    50.02756898
 F     10   9   8     2.529455642830   108.63493714   169.35523750
 F     10   9   8     2.527208643196   110.96044107   288.72891896

---------------------
BASIS SET INFORMATION
---------------------
There are 3 groups of distinct atoms

 Group   1 Type C   : 11s6p2d1f contracted to 5s3p2d1f pattern {62111/411/11/1}
 Group   2 Type O   : 11s6p2d1f contracted to 5s3p2d1f pattern {62111/411/11/1}
 Group   3 Type F   : 11s6p2d1f contracted to 5s3p2d1f pattern {62111/411/11/1}

Atom   0C    basis set group =>   1
Atom   1O    basis set group =>   2
Atom   2O    basis set group =>   2
Atom   3C    basis set group =>   1
Atom   4C    basis set group =>   1
Atom   5C    basis set group =>   1
Atom   6C    basis set group =>   1
Atom   7C    basis set group =>   1
Atom   8C    basis set group =>   1
Atom   9C    basis set group =>   1
Atom  10F    basis set group =>   3
Atom  11F    basis set group =>   3
Atom  12F    basis set group =>   3
Atom  13F    basis set group =>   3
Atom  14F    basis set group =>   3
Atom  15F    basis set group =>   3
Atom  16F    basis set group =>   3
Atom  17F    basis set group =>   3
Atom  18F    basis set group =>   3
Atom  19F    basis set group =>   3
Atom  20F    basis set group =>   3
Atom  21F    basis set group =>   3
Atom  22F    basis set group =>   3
Atom  23F    basis set group =>   3
Atom  24F    basis set group =>   3
---------------------------------
AUXILIARY/J BASIS SET INFORMATION
---------------------------------
There are 3 groups of distinct atoms

 Group   1 Type C   : 12s5p4d2f1g contracted to 6s4p3d1f1g pattern {711111/2111/211/2/1}
 Group   2 Type O   : 12s5p4d2f1g contracted to 6s4p3d1f1g pattern {711111/2111/211/2/1}
 Group   3 Type F   : 12s5p4d2f1g contracted to 6s4p3d1f1g pattern {711111/2111/211/2/1}

Atom   0C    basis set group =>   1
Atom   1O    basis set group =>   2
Atom   2O    basis set group =>   2
Atom   3C    basis set group =>   1
Atom   4C    basis set group =>   1
Atom   5C    basis set group =>   1
Atom   6C    basis set group =>   1
Atom   7C    basis set group =>   1
Atom   8C    basis set group =>   1
Atom   9C    basis set group =>   1
Atom  10F    basis set group =>   3
Atom  11F    basis set group =>   3
Atom  12F    basis set group =>   3
Atom  13F    basis set group =>   3
Atom  14F    basis set group =>   3
Atom  15F    basis set group =>   3
Atom  16F    basis set group =>   3
Atom  17F    basis set group =>   3
Atom  18F    basis set group =>   3
Atom  19F    basis set group =>   3
Atom  20F    basis set group =>   3
Atom  21F    basis set group =>   3
Atom  22F    basis set group =>   3
Atom  23F    basis set group =>   3
Atom  24F    basis set group =>   3


           ************************************************************
           *        Program running with 20 parallel MPI-processes    *
           *              working on a common directory               *
           ************************************************************
------------------------------------------------------------------------------
                           ORCA GTO INTEGRAL CALCULATION
                           -- RI-GTO INTEGRALS CHOSEN --
------------------------------------------------------------------------------
------------------------------------------------------------------------------
                   ___                                                        
                  /   \      - P O W E R E D   B Y -                         
                 /     \                                                     
                 |  |  |   _    _      __       _____    __    __             
                 |  |  |  | |  | |    /  \     |  _  \  |  |  /  |          
                  \  \/   | |  | |   /    \    | | | |  |  | /  /          
                 / \  \   | |__| |  /  /\  \   | |_| |  |  |/  /          
                |  |  |   |  __  | /  /__\  \  |    /   |      \           
                |  |  |   | |  | | |   __   |  |    \   |  |\   \          
                \     /   | |  | | |  |  |  |  | |\  \  |  | \   \       
                 \___/    |_|  |_| |__|  |__|  |_| \__\ |__|  \__/        
                                                                              
                      - O R C A' S   B I G   F R I E N D -                    
                                      &                                       
                       - I N T E G R A L  F E E D E R -                       
                                                                              
 v1 FN, 2020, v2 2021                                                         
------------------------------------------------------------------------------


Reading SHARK input file rf_mecn_opt_TPS_D_B.SHARKINP.tmp ... ok
----------------------
SHARK INTEGRAL PACKAGE
----------------------

Number of atoms                             ...     25
Number of basis functions                   ...    775
Number of shells                            ...    275
Maximum angular momentum                    ...      3
Integral batch strategy                     ... SHARK/LIBINT Hybrid
RI-J (if used) integral strategy            ... SPLIT-RIJ (Revised 2003 algorithm where possible)
Printlevel                                  ...      1
Contraction scheme used                     ... SEGMENTED contraction
Coulomb Range Separation                    ... NOT USED
Exchange Range Separation                   ... NOT USED
Finite Nucleus Model                        ... NOT USED
Auxiliary Coulomb fitting basis             ... AVAILABLE
   # of basis functions in Aux-J            ...   1225
   # of shells in Aux-J                     ...    375
   Maximum angular momentum in Aux-J        ...      4
Auxiliary J/K fitting basis                 ... NOT available
Auxiliary Correlation fitting basis         ... NOT available
Auxiliary 'external' fitting basis          ... NOT available
Integral threshold                          ...     2.500000e-11
Primitive cut-off                           ...     2.500000e-12
Primitive pair pre-selection threshold      ...     2.500000e-12

Calculating pre-screening integrals         ... done (  0.1 sec) Dimension = 275
Organizing shell pair data                  ... done (  0.3 sec)
Shell pair information
Total number of shell pairs                 ...     37950
Shell pairs after pre-screening             ...     23325
Total number of primitive shell pairs       ...    125800
Primitive shell pairs kept                  ...     49419
          la=0 lb=0:   4351 shell pairs
          la=1 lb=0:   6349 shell pairs
          la=1 lb=1:   2227 shell pairs
          la=2 lb=0:   3461 shell pairs
          la=2 lb=1:   2576 shell pairs
          la=2 lb=2:    727 shell pairs
          la=3 lb=0:   1568 shell pairs
          la=3 lb=1:   1240 shell pairs
          la=3 lb=2:    666 shell pairs
          la=3 lb=3:    160 shell pairs

Calculating one electron integrals          ... done (  0.0 sec)
Calculating RI/J V-Matrix + Cholesky decomp.... done (  0.1 sec)
Calculating Nuclear repulsion               ... done (  0.0 sec) ENN=   2860.975784253119 Eh

SHARK setup successfully completed in   1.0 seconds

Maximum memory used throughout the entire GTOINT-calculation: 41.2 MB


           ************************************************************
           *        Program running with 20 parallel MPI-processes    *
           *              working on a common directory               *
           ************************************************************
-------------------------------------------------------------------------------
                                 ORCA SCF
-------------------------------------------------------------------------------

------------
SCF SETTINGS
------------
Hamiltonian:
 Density Functional     Method          .... DFT(GTOs)
 Exchange Functional    Exchange        .... TPSS
 Correlation Functional Correlation     .... TPSS
 LDA part of GGA corr.  LDAOpt          .... PW91-LDA
 Gradients option       PostSCFGGA      .... off
 Hybrid DFT is turned on
   Fraction HF Exchange ScalHFX         ....  0.100000
   Scaling of DF-GGA-X  ScalDFX         ....  0.900000
   Scaling of DF-GGA-C  ScalDFC         ....  1.000000
   Scaling of DF-LDA-C  ScalLDAC        ....  1.000000
   Perturbative correction              ....  0.000000
   Density functional embedding theory  .... OFF
   NL short-range parameter             ....  5.200000
 RI-approximation to the Coulomb term is turned on
   Number of AuxJ basis functions       .... 1225
   RIJ-COSX (HFX calculated with COS-X)).... on


General Settings:
 Integral files         IntName         .... rf_mecn_opt_TPS_D_B
 Hartree-Fock type      HFTyp           .... RHF
 Total Charge           Charge          ....   -1
 Multiplicity           Mult            ....    1
 Number of Electrons    NEL             ....  200
 Basis Dimension        Dim             ....  775
 Nuclear Repulsion      ENuc            ....   2860.9757842531 Eh

Convergence Acceleration:
 DIIS                   CNVDIIS         .... on
   Start iteration      DIISMaxIt       ....     0
   Startup error        DIISStart       ....  0.200000
   # of expansion vecs  DIISMaxEq       ....     5
   Bias factor          DIISBfac        ....   1.050
   Max. coefficient     DIISMaxC        ....  10.000
 Trust-Rad. Augm. Hess. CNVTRAH         .... auto
   Auto Start mean grad. ratio tolernc. ....  1.125000
   Auto Start start iteration           ....    20
   Auto Start num. interpolation iter.  ....    10
   Max. Number of Micro iterations      ....    16
   Max. Number of Macro iterations      .... Maxiter - #DIIS iter
   Number of Davidson start vectors     ....     2
   Converg. threshold I  (grad. norm)   ....   1.000e-05
   Converg. threshold II (energy diff.) ....   1.000e-08
   Grad. Scal. Fac. for Micro threshold ....   0.100
   Minimum threshold for Micro iter.    ....   0.010
   NR start threshold (gradient norm)   ....   0.001
   Initial trust radius                 ....   0.400
   Minimum AH scaling param. (alpha)    ....   1.000
   Maximum AH scaling param. (alpha)    .... 1000.000
   Orbital update algorithm             .... Taylor
   White noise on init. David. guess    .... on
   Maximum white noise                  ....   0.010
   Quad. conv. algorithm                .... NR
 SOSCF                  CNVSOSCF        .... on
   Start iteration      SOSCFMaxIt      ....   150
   Startup grad/error   SOSCFStart      ....  0.001000
 Level Shifting         CNVShift        .... on
   Level shift para.    LevelShift      ....    0.2500
   Turn off err/grad.   ShiftErr        ....    0.0000
 Zerner damping         CNVZerner       .... off
 Static damping         CNVDamp         .... on
   Fraction old density DampFac         ....    0.8500
   Max. Damping (<1)    DampMax         ....    0.9800
   Min. Damping (>=0)   DampMin         ....    0.0000
   Turn off err/grad.   DampErr         ....    0.0300
 Fernandez-Rico         CNVRico         .... off

SCF Procedure:
 Maximum # iterations   MaxIter         ....  1500
 SCF integral mode      SCFMode         .... Direct
   Integral package                     .... SHARK and LIBINT hybrid scheme
 Reset frequency        DirectResetFreq ....    20
 Integral Threshold     Thresh          ....  2.500e-11 Eh
 Primitive CutOff       TCut            ....  2.500e-12 Eh

Convergence Tolerance:
 Convergence Check Mode ConvCheckMode   .... Total+1el-Energy
 Convergence forced     ConvForced      .... 0
 Energy Change          TolE            ....  1.000e-08 Eh
 1-El. energy change                    ....  1.000e-05 Eh
 Orbital Gradient       TolG            ....  1.000e-05
 Orbital Rotation angle TolX            ....  1.000e-05
 DIIS Error             TolErr          ....  5.000e-07


Diagonalization of the overlap matrix:
Smallest eigenvalue                        ... 6.047e-05
Time for diagonalization                   ...    0.146 sec
Threshold for overlap eigenvalues          ... 1.000e-08
Number of eigenvalues below threshold      ... 0
Time for construction of square roots      ...    0.103 sec
Total time needed                          ...    0.254 sec

Time for model grid setup =    0.251 sec

------------------------------
INITIAL GUESS: MODEL POTENTIAL
------------------------------
Loading Hartree-Fock densities                     ... done
Calculating cut-offs                               ... done
Initializing the effective Hamiltonian             ... done
Setting up the integral package (SHARK)            ... done
Starting the Coulomb interaction                   ... done (   0.2 sec)
Reading the grid                                   ... done
Mapping shells                                     ... done
Starting the XC term evaluation                    ... done (   0.1 sec)
  promolecular density results
     # of electrons  =    199.000496603
     EX              =   -207.068070787
     EC              =     -6.981308686
     EX+EC           =   -214.049379473
Transforming the Hamiltonian                       ... done (   0.1 sec)
Diagonalizing the Hamiltonian                      ... done (   0.1 sec)
Back transforming the eigenvectors                 ... done (   0.0 sec)
Now organizing SCF variables                       ... done
                      ------------------
                      INITIAL GUESS DONE (   1.0 sec)
                      ------------------
-------------------
DFT GRID GENERATION
-------------------

General Integration Accuracy     IntAcc      ... 4.388
Radial Grid Type                 RadialGrid  ... OptM3 with GC (2021)
Angular Grid (max. ang.)         AngularGrid ... 4 (Lebedev-302)
Angular grid pruning method      GridPruning ... 4 (adaptive)
Weight generation scheme         WeightScheme... Becke
Basis function cutoff            BFCut       ... 1.0000e-11
Integration weight cutoff        WCut        ... 1.0000e-14
Angular grids for H and He will be reduced by one unit
Partially contracted basis set               ... off
Rotationally invariant grid construction     ... off

Total number of grid points                  ...   151489
Total number of batches                      ...     2379
Average number of points per batch           ...       63
Average number of grid points per atom       ...     6060
Time for grid setup =    1.003 sec

--------------------
COSX GRID GENERATION
--------------------

GRIDX 1
-------
General Integration Accuracy     IntAcc      ... 3.816
Radial Grid Type                 RadialGrid  ... OptM3 with GC (2021)
Angular Grid (max. ang.)         AngularGrid ... 1 (Lebedev-50)
Angular grid pruning method      GridPruning ... 4 (adaptive)
Weight generation scheme         WeightScheme... Becke
Basis function cutoff            BFCut       ... 1.0000e-11
Integration weight cutoff        WCut        ... 1.0000e-14
Angular grids for H and He will be reduced by one unit
Partially contracted basis set               ... on
Rotationally invariant grid construction     ... off

Total number of grid points                  ...    19031
Total number of batches                      ...      310
Average number of points per batch           ...       61
Average number of grid points per atom       ...      761
UseSFitting                                  ... on

GRIDX 2
-------
General Integration Accuracy     IntAcc      ... 4.020
Radial Grid Type                 RadialGrid  ... OptM3 with GC (2021)
Angular Grid (max. ang.)         AngularGrid ... 2 (Lebedev-110)
Angular grid pruning method      GridPruning ... 4 (adaptive)
Weight generation scheme         WeightScheme... Becke
Basis function cutoff            BFCut       ... 1.0000e-11
Integration weight cutoff        WCut        ... 1.0000e-14
Angular grids for H and He will be reduced by one unit
Partially contracted basis set               ... on
Rotationally invariant grid construction     ... off

Total number of grid points                  ...    45091
Total number of batches                      ...      721
Average number of points per batch           ...       62
Average number of grid points per atom       ...     1804
UseSFitting                                  ... on

GRIDX 3
-------
General Integration Accuracy     IntAcc      ... 4.338
Radial Grid Type                 RadialGrid  ... OptM3 with GC (2021)
Angular Grid (max. ang.)         AngularGrid ... 3 (Lebedev-194)
Angular grid pruning method      GridPruning ... 4 (adaptive)
Weight generation scheme         WeightScheme... Becke
Basis function cutoff            BFCut       ... 1.0000e-11
Integration weight cutoff        WCut        ... 1.0000e-14
Angular grids for H and He will be reduced by one unit
Partially contracted basis set               ... on
Rotationally invariant grid construction     ... off

Total number of grid points                  ...    99878
Total number of batches                      ...     1571
Average number of points per batch           ...       63
Average number of grid points per atom       ...     3995
UseSFitting                                  ... on

Time for X-Grid setup             =    2.096 sec


--------------------
CPCM SOLVATION MODEL
--------------------
CPCM parameters:
  Epsilon                                         ...      35.6880
  Refrac                                          ...       1.3442
  Rsolv                                           ...       1.3000
  Surface type                                    ... GAUSSIAN VDW
  Epsilon function type                           ...         CPCM
Solvent:                                     ... ACETONITRILE
SMD-CDS solvent descriptors:
  Soln                                       ...    1.3442
  Soln25                                     ...    1.3416
  Sola                                       ...    0.0700
  Solb                                       ...    0.3200
  Solg                                       ...   41.2500
  Solc                                       ...    0.0000
  Solh                                       ...    0.0000
Radii:
 Radius for C  used is    3.4960 Bohr (=   1.8500 Ang.)
 Radius for O  used is    4.0969 Bohr (=   2.1680 Ang.)
 Radius for F  used is    3.2692 Bohr (=   1.7300 Ang.)
Calculating surface                               ...        done! (  0.0s)
GEPOL surface points                              ...         1294
GEPOL Volume                                      ...    2206.0037
GEPOL Surface-area                                ...    1132.2350
Calculating surface distance matrix               ...        done! (  0.0s)
Performing Cholesky decomposition & store         ...        done! (  0.1s)
Overall time for CPCM initialization              ...                 0.1s
--------------
SCF ITERATIONS
--------------
ITER       Energy         Delta-E        Max-DP      RMS-DP      [F,P]     Damp
               ***  Starting incremental Fock matrix formation  ***
  0  -1953.3272500932   0.000000000000 0.07430695  0.00037822  0.3126870 0.8500
  1  -1953.4910494252  -0.163799332067 0.11594640  0.00042439  0.2046319 0.8500
                               ***Turning on DIIS***
  2  -1953.5725838084  -0.081534383131 0.08806364  0.00030731  0.1151061 0.8500
  3  -1953.6155971099  -0.043013301504 0.03391555  0.00014190  0.0584620 0.8500
  4  -1953.6485224001  -0.032925290277 0.00791322  0.00007482  0.0397926 0.8500
  5  -1953.6748063343  -0.026283934187 0.00651227  0.00005575  0.0333161 0.8500
  6  -1953.6966292582  -0.021822923891 0.05496011  0.00032859  0.0296693 0.0000
  7  -1953.8184581487  -0.121828890467 0.00785930  0.00006314  0.0072178 0.0000
  8  -1953.8186112911  -0.000153142431 0.00240092  0.00001498  0.0068318 0.0000
  9  -1953.8187504342  -0.000139143117 0.00056219  0.00000639  0.0011056 0.0000
                      *** Initiating the SOSCF procedure ***
                           *** Shutting down DIIS ***
                      *** Re-Reading the Fockian *** 
                      *** Removing any level shift *** 
ITER      Energy       Delta-E        Grad      Rot      Max-DP    RMS-DP
 10  -1953.81875966  -0.0000092294  0.000156  0.000156  0.000844  0.000004
               *** Restarting incremental Fock matrix formation ***
 11  -1953.81876537  -0.0000057059  0.000087  0.000432  0.000396  0.000003
 12  -1953.81876550  -0.0000001306  0.000148  0.000366  0.000200  0.000002
 13  -1953.81876555  -0.0000000459  0.000137  0.000218  0.000244  0.000002
 14  -1953.81876563  -0.0000000818  0.000035  0.000075  0.000342  0.000001
 15  -1953.81876568  -0.0000000563  0.000046  0.000084  0.000060  0.000001
 16  -1953.81876571  -0.0000000277  0.000029  0.000036  0.000090  0.000000
 17  -1953.81876575  -0.0000000342  0.000009  0.000024  0.000030  0.000000
 18  -1953.81876574   0.0000000028  0.000004  0.000005  0.000035  0.000000
                 **** Energy Check signals convergence ****
              ***Rediagonalizing the Fockian in SOSCF/NRSCF***

               *****************************************************
               *                     SUCCESS                       *
               *           SCF CONVERGED AFTER  19 CYCLES          *
               *****************************************************

Old exchange energy                            =    -20.881341433 Eh
New exchange energy                            =    -20.881351808 Eh
Exchange energy change after final integration =     -0.000010375 Eh
Total energy after final integration           =  -1953.818776109 Eh
Final COS-X integration done in                =    10.713 sec

SMD CDS free energy correction energy :                 3.69432     Kcal/mol
Total Energy after SMD CDS correction =             -1953.812888842 Eh

----------------
TOTAL SCF ENERGY
----------------

Total Energy       :        -1953.81288884 Eh          -53165.95161 eV

Components:
Nuclear Repulsion  :         2860.97578425 Eh           77851.10896 eV
Electronic Energy  :        -4814.78867309 Eh         -131017.06057 eV
One Electron Energy:        -8435.83327168 Eh         -229550.69345 eV
Two Electron Energy:         3621.04459859 Eh           98533.63288 eV
Max COSX asymmetry :            0.00000124 Eh               0.00003 eV
CPCM Dielectric    :           -0.08178605 Eh              -2.22551 eV
SMD CDS (Gcds)     :            0.00588727 Eh               0.16020 eV

Virial components:
Potential Energy   :        -3900.10681075 Eh         -106127.30173 eV
Kinetic Energy     :         1946.29392191 Eh           52961.35012 eV
Virial Ratio       :            2.00386322


DFT components:
N(Alpha)           :       99.999974458888 electrons
N(Beta)            :       99.999974458888 electrons
N(Total)           :      199.999948917777 electrons
E(X)               :     -189.818379603751 Eh       
E(C)               :       -7.032412635305 Eh       
E(XC)              :     -196.850792239055 Eh       
DFET-embed. en.    :        0.000000000000 Eh       
CPCM Solvation Model Properties:
Surface-charge          :            0.99014418
Charge-correction       :           -0.00102118 Eh              -0.02779 eV
Free-energy (cav+disp)  :            0.00588727 Eh               0.16020 eV

---------------
SCF CONVERGENCE
---------------

  Last Energy change         ...    9.7241e-09  Tolerance :   1.0000e-08
  Last MAX-Density change    ...    1.9984e-15  Tolerance :   1.0000e-07
  Last RMS-Density change    ...    1.8750e-17  Tolerance :   5.0000e-09
  Last Orbital Gradient      ...    2.0590e-06  Tolerance :   1.0000e-05
  Last Orbital Rotation      ...    1.0079e-05  Tolerance :   1.0000e-05

             **** THE GBW FILE WAS UPDATED (rf_mecn_opt_TPS_D_B.gbw) ****
             **** DENSITY rf_mecn_opt_TPS_D_B.scfp WAS UPDATED ****
             **** ENERGY FILE WAS UPDATED (rf_mecn_opt_TPS_D_B.en.tmp) ****
             **** THE GBW FILE WAS UPDATED (rf_mecn_opt_TPS_D_B.gbw) ****
             **** DENSITY rf_mecn_opt_TPS_D_B.scfp WAS UPDATED ****
----------------
ORBITAL ENERGIES
----------------

  NO   OCC          E(Eh)            E(eV) 
   0   2.0000     -24.660944      -671.0584 
   1   2.0000     -24.660120      -671.0360 
   2   2.0000     -24.659825      -671.0280 
   3   2.0000     -24.659821      -671.0278 
   4   2.0000     -24.659603      -671.0219 
   5   2.0000     -24.659556      -671.0206 
   6   2.0000     -24.658940      -671.0039 
   7   2.0000     -24.657124      -670.9545 
   8   2.0000     -24.656868      -670.9475 
   9   2.0000     -24.652352      -670.8246 
  10   2.0000     -24.650491      -670.7740 
  11   2.0000     -24.642023      -670.5435 
  12   2.0000     -24.637970      -670.4332 
  13   2.0000     -24.620448      -669.9565 
  14   2.0000     -24.618029      -669.8906 
  15   2.0000     -19.013118      -517.3732 
  16   2.0000     -19.011283      -517.3233 
  17   2.0000     -10.396506      -282.9033 
  18   2.0000     -10.345404      -281.5127 
  19   2.0000     -10.344628      -281.4916 
  20   2.0000     -10.342113      -281.4232 
  21   2.0000     -10.335183      -281.2346 
  22   2.0000     -10.322373      -280.8861 
  23   2.0000     -10.297877      -280.2195 
  24   2.0000     -10.229031      -278.3461 
  25   2.0000      -1.320513       -35.9330 
  26   2.0000      -1.297626       -35.3102 
  27   2.0000      -1.282896       -34.9094 
  28   2.0000      -1.275171       -34.6992 
  29   2.0000      -1.271518       -34.5998 
  30   2.0000      -1.259902       -34.2837 
  31   2.0000      -1.236764       -33.6541 
  32   2.0000      -1.230794       -33.4916 
  33   2.0000      -1.230517       -33.4841 
  34   2.0000      -1.228308       -33.4240 
  35   2.0000      -1.223570       -33.2950 
  36   2.0000      -1.220418       -33.2093 
  37   2.0000      -1.216401       -33.0999 
  38   2.0000      -1.204480       -32.7756 
  39   2.0000      -1.176561       -32.0159 
  40   2.0000      -0.935817       -25.4649 
  41   2.0000      -0.877748       -23.8847 
  42   2.0000      -0.824535       -22.4367 
  43   2.0000      -0.802924       -21.8487 
  44   2.0000      -0.773445       -21.0465 
  45   2.0000      -0.734370       -19.9832 
  46   2.0000      -0.691381       -18.8134 
  47   2.0000      -0.662034       -18.0149 
  48   2.0000      -0.644105       -17.5270 
  49   2.0000      -0.621998       -16.9254 
  50   2.0000      -0.617293       -16.7974 
  51   2.0000      -0.609715       -16.5912 
  52   2.0000      -0.601087       -16.3564 
  53   2.0000      -0.596589       -16.2340 
  54   2.0000      -0.595722       -16.2104 
  55   2.0000      -0.583098       -15.8669 
  56   2.0000      -0.579508       -15.7692 
  57   2.0000      -0.574292       -15.6273 
  58   2.0000      -0.567982       -15.4556 
  59   2.0000      -0.557077       -15.1588 
  60   2.0000      -0.552795       -15.0423 
  61   2.0000      -0.549994       -14.9661 
  62   2.0000      -0.539869       -14.6906 
  63   2.0000      -0.523546       -14.2464 
  64   2.0000      -0.486224       -13.2308 
  65   2.0000      -0.482486       -13.1291 
  66   2.0000      -0.477070       -12.9817 
  67   2.0000      -0.473770       -12.8919 
  68   2.0000      -0.469887       -12.7863 
  69   2.0000      -0.466824       -12.7029 
  70   2.0000      -0.461799       -12.5662 
  71   2.0000      -0.457060       -12.4372 
  72   2.0000      -0.452713       -12.3189 
  73   2.0000      -0.451249       -12.2791 
  74   2.0000      -0.448760       -12.2114 
  75   2.0000      -0.442001       -12.0274 
  76   2.0000      -0.438007       -11.9188 
  77   2.0000      -0.434090       -11.8122 
  78   2.0000      -0.433741       -11.8027 
  79   2.0000      -0.428758       -11.6671 
  80   2.0000      -0.424007       -11.5378 
  81   2.0000      -0.423322       -11.5192 
  82   2.0000      -0.420241       -11.4353 
  83   2.0000      -0.416563       -11.3353 
  84   2.0000      -0.415733       -11.3127 
  85   2.0000      -0.412126       -11.2145 
  86   2.0000      -0.410091       -11.1591 
  87   2.0000      -0.406324       -11.0566 
  88   2.0000      -0.403003       -10.9663 
  89   2.0000      -0.398790       -10.8516 
  90   2.0000      -0.387611       -10.5474 
  91   2.0000      -0.386299       -10.5117 
  92   2.0000      -0.372413       -10.1339 
  93   2.0000      -0.364549        -9.9199 
  94   2.0000      -0.347395        -9.4531 
  95   2.0000      -0.327926        -8.9233 
  96   2.0000      -0.318118        -8.6564 
  97   2.0000      -0.231366        -6.2958 
  98   2.0000      -0.223979        -6.0948 
  99   2.0000      -0.221367        -6.0237 
 100   0.0000      -0.031967        -0.8699 
 101   0.0000      -0.020162        -0.5486 
 102   0.0000      -0.005994        -0.1631 
 103   0.0000       0.026631         0.7247 
 104   0.0000       0.036427         0.9912 
 105   0.0000       0.071776         1.9531 
 106   0.0000       0.083352         2.2681 
 107   0.0000       0.097170         2.6441 
 108   0.0000       0.099643         2.7114 
 109   0.0000       0.113441         3.0869 
 110   0.0000       0.118892         3.2352 
 111   0.0000       0.124949         3.4000 
 112   0.0000       0.134552         3.6614 
 113   0.0000       0.141472         3.8496 
 114   0.0000       0.148771         4.0483 
 115   0.0000       0.164771         4.4836 
 116   0.0000       0.170975         4.6525 
 117   0.0000       0.183549         4.9946 
 118   0.0000       0.197077         5.3627 
 119   0.0000       0.198650         5.4055 
 120   0.0000       0.201013         5.4699 
 121   0.0000       0.207948         5.6586 
 122   0.0000       0.210475         5.7273 
 123   0.0000       0.217518         5.9190 
 124   0.0000       0.221731         6.0336 
 125   0.0000       0.223435         6.0800 
 126   0.0000       0.227573         6.1926 
 127   0.0000       0.231242         6.2924 
 128   0.0000       0.240500         6.5443 
 129   0.0000       0.242419         6.5966 
 130   0.0000       0.246660         6.7120 
 131   0.0000       0.250818         6.8251 
 132   0.0000       0.252947         6.8830 
 133   0.0000       0.268178         7.2975 
 134   0.0000       0.273975         7.4552 
 135   0.0000       0.280556         7.6343 
 136   0.0000       0.288146         7.8409 
 137   0.0000       0.293404         7.9839 
 138   0.0000       0.294558         8.0153 
 139   0.0000       0.304243         8.2789 
 140   0.0000       0.310198         8.4409 
 141   0.0000       0.320502         8.7213 
 142   0.0000       0.326711         8.8902 
 143   0.0000       0.331621         9.0239 
 144   0.0000       0.341746         9.2994 
 145   0.0000       0.346591         9.4312 
 146   0.0000       0.351320         9.5599 
 147   0.0000       0.375039        10.2053 
 148   0.0000       0.391442        10.6517 
 149   0.0000       0.392635        10.6841 
 150   0.0000       0.412215        11.2169 
 151   0.0000       0.418938        11.3999 
 152   0.0000       0.426988        11.6189 
 153   0.0000       0.431169        11.7327 
 154   0.0000       0.433173        11.7872 
 155   0.0000       0.437811        11.9134 
 156   0.0000       0.451641        12.2898 
 157   0.0000       0.458630        12.4800 
 158   0.0000       0.463502        12.6125 
 159   0.0000       0.466666        12.6986 
 160   0.0000       0.480062        13.0631 
 161   0.0000       0.484681        13.1888 
 162   0.0000       0.494188        13.4475 
 163   0.0000       0.497810        13.5461 
 164   0.0000       0.511553        13.9201 
 165   0.0000       0.518562        14.1108 
 166   0.0000       0.524852        14.2819 
 167   0.0000       0.529418        14.4062 
 168   0.0000       0.534282        14.5385 
 169   0.0000       0.539023        14.6676 
 170   0.0000       0.547134        14.8883 
 171   0.0000       0.557652        15.1745 
 172   0.0000       0.576171        15.6784 
 173   0.0000       0.579748        15.7757 
 174   0.0000       0.613458        16.6930 
 175   0.0000       0.618296        16.8247 
 176   0.0000       0.624577        16.9956 
 177   0.0000       0.638468        17.3736 
 178   0.0000       0.649908        17.6849 
 179   0.0000       0.654840        17.8191 
 180   0.0000       0.656235        17.8571 
 181   0.0000       0.663684        18.0598 
 182   0.0000       0.677216        18.4280 
 183   0.0000       0.683831        18.6080 
 184   0.0000       0.685542        18.6545 
 185   0.0000       0.703469        19.1424 
 186   0.0000       0.706402        19.2222 
 187   0.0000       0.712567        19.3899 
 188   0.0000       0.719377        19.5752 
 189   0.0000       0.727935        19.8081 
 190   0.0000       0.728367        19.8199 
 191   0.0000       0.735118        20.0036 
 192   0.0000       0.749713        20.4007 
 193   0.0000       0.753300        20.4983 
 194   0.0000       0.756977        20.5984 
 195   0.0000       0.765269        20.8240 
 196   0.0000       0.771027        20.9807 
 197   0.0000       0.774685        21.0802 
 198   0.0000       0.781578        21.2678 
 199   0.0000       0.798233        21.7210 
 200   0.0000       0.800153        21.7733 
 201   0.0000       0.812186        22.1007 
 202   0.0000       0.817776        22.2528 
 203   0.0000       0.825385        22.4599 
 204   0.0000       0.838419        22.8145 
 205   0.0000       0.843236        22.9456 
 206   0.0000       0.847934        23.0735 
 207   0.0000       0.854404        23.2495 
 208   0.0000       0.861123        23.4324 
 209   0.0000       0.870917        23.6989 
 210   0.0000       0.883352        24.0372 
 211   0.0000       0.892151        24.2767 
 212   0.0000       0.903827        24.5944 
 213   0.0000       0.908546        24.7228 
 214   0.0000       0.913568        24.8595 
 215   0.0000       0.917169        24.9574 
 216   0.0000       0.932006        25.3612 
 217   0.0000       0.934390        25.4261 
 218   0.0000       0.947263        25.7763 
 219   0.0000       0.951780        25.8992 
 220   0.0000       0.963911        26.2293 
 221   0.0000       0.971190        26.4274 
 222   0.0000       0.975232        26.5374 
 223   0.0000       0.994990        27.0751 
 224   0.0000       0.999657        27.2020 
 225   0.0000       1.013939        27.5907 
 226   0.0000       1.016249        27.6536 
 227   0.0000       1.032277        28.0897 
 228   0.0000       1.046119        28.4663 
 229   0.0000       1.063719        28.9453 
 230   0.0000       1.064910        28.9777 
 231   0.0000       1.073854        29.2210 
 232   0.0000       1.087853        29.6020 
 233   0.0000       1.096282        29.8313 
 234   0.0000       1.100124        29.9359 
 235   0.0000       1.108941        30.1758 
 236   0.0000       1.119942        30.4752 
 237   0.0000       1.126480        30.6531 
 238   0.0000       1.134785        30.8791 
 239   0.0000       1.144318        31.1385 
 240   0.0000       1.151288        31.3282 
 241   0.0000       1.159954        31.5640 
 242   0.0000       1.168105        31.7858 
 243   0.0000       1.170104        31.8402 
 244   0.0000       1.175097        31.9760 
 245   0.0000       1.191983        32.4355 
 246   0.0000       1.207429        32.8558 
 247   0.0000       1.214539        33.0493 
 248   0.0000       1.223028        33.2803 
 249   0.0000       1.235808        33.6281 
 250   0.0000       1.249533        34.0015 
 251   0.0000       1.262303        34.3490 
 252   0.0000       1.266947        34.4754 
 253   0.0000       1.273682        34.6586 
 254   0.0000       1.289081        35.0777 
 255   0.0000       1.302290        35.4371 
 256   0.0000       1.315212        35.7887 
 257   0.0000       1.319441        35.9038 
 258   0.0000       1.354208        36.8499 
 259   0.0000       1.370004        37.2797 
 260   0.0000       1.377931        37.4954 
 261   0.0000       1.387231        37.7485 
 262   0.0000       1.404195        38.2101 
 263   0.0000       1.421587        38.6833 
 264   0.0000       1.447819        39.3972 
 265   0.0000       1.464154        39.8416 
 266   0.0000       1.469959        39.9996 
 267   0.0000       1.484133        40.3853 
 268   0.0000       1.525630        41.5145 
 269   0.0000       1.554387        42.2970 
 270   0.0000       1.558738        42.4154 
 271   0.0000       1.577469        42.9251 
 272   0.0000       1.602307        43.6010 
 273   0.0000       1.615775        43.9675 
 274   0.0000       1.625990        44.2454 
 275   0.0000       1.648233        44.8507 
 276   0.0000       1.657460        45.1018 
 277   0.0000       1.681070        45.7442 
 278   0.0000       1.693312        46.0774 
 279   0.0000       1.715313        46.6760 
 280   0.0000       1.734964        47.2108 
 281   0.0000       1.751811        47.6692 
 282   0.0000       1.766464        48.0679 
 283   0.0000       1.772299        48.2267 
 284   0.0000       1.783706        48.5371 
 285   0.0000       1.793933        48.8154 
 286   0.0000       1.805402        49.1275 
 287   0.0000       1.817273        49.4505 
 288   0.0000       1.836614        49.9768 
 289   0.0000       1.843211        50.1563 
 290   0.0000       1.847939        50.2850 
 291   0.0000       1.859886        50.6101 
 292   0.0000       1.873903        50.9915 
 293   0.0000       1.885118        51.2967 
 294   0.0000       1.895488        51.5788 
 295   0.0000       1.896847        51.6158 
 296   0.0000       1.901298        51.7370 
 297   0.0000       1.914301        52.0908 
 298   0.0000       1.915304        52.1181 
 299   0.0000       1.923328        52.3364 
 300   0.0000       1.934278        52.6344 
 301   0.0000       1.939615        52.7796 
 302   0.0000       1.944433        52.9107 
 303   0.0000       1.952281        53.1243 
 304   0.0000       1.962157        53.3930 
 305   0.0000       1.985316        54.0232 
 306   0.0000       2.002573        54.4928 
 307   0.0000       2.010233        54.7012 
 308   0.0000       2.032359        55.3033 
 309   0.0000       2.036404        55.4134 
 310   0.0000       2.039293        55.4920 
 311   0.0000       2.047080        55.7039 
 312   0.0000       2.052782        55.8590 
 313   0.0000       2.053938        55.8905 
 314   0.0000       2.061645        56.1002 
 315   0.0000       2.069486        56.3136 
 316   0.0000       2.070706        56.3468 
 317   0.0000       2.078956        56.5713 
 318   0.0000       2.083560        56.6965 
 319   0.0000       2.084433        56.7203 
 320   0.0000       2.097477        57.0753 
 321   0.0000       2.112965        57.4967 
 322   0.0000       2.121219        57.7213 
 323   0.0000       2.125960        57.8503 
 324   0.0000       2.127947        57.9044 
 325   0.0000       2.140530        58.2468 
 326   0.0000       2.147505        58.4366 
 327   0.0000       2.151901        58.5562 
 328   0.0000       2.169539        59.0362 
 329   0.0000       2.178444        59.2785 
 330   0.0000       2.178744        59.2866 
 331   0.0000       2.213231        60.2251 
 332   0.0000       2.229836        60.6769 
 333   0.0000       2.239718        60.9458 
 334   0.0000       2.244926        61.0875 
 335   0.0000       2.255633        61.3789 
 336   0.0000       2.270774        61.7909 
 337   0.0000       2.278198        61.9929 
 338   0.0000       2.293182        62.4006 
 339   0.0000       2.308653        62.8217 
 340   0.0000       2.323300        63.2202 
 341   0.0000       2.330556        63.4176 
 342   0.0000       2.354179        64.0605 
 343   0.0000       2.360376        64.2291 
 344   0.0000       2.363540        64.3152 
 345   0.0000       2.380287        64.7709 
 346   0.0000       2.401787        65.3559 
 347   0.0000       2.410570        65.5949 
 348   0.0000       2.417628        65.7870 
 349   0.0000       2.429961        66.1226 
 350   0.0000       2.441005        66.4231 
 351   0.0000       2.448019        66.6140 
 352   0.0000       2.450239        66.6744 
 353   0.0000       2.456484        66.8443 
 354   0.0000       2.462707        67.0137 
 355   0.0000       2.464434        67.0606 
 356   0.0000       2.466330        67.1122 
 357   0.0000       2.475146        67.3522 
 358   0.0000       2.478866        67.4534 
 359   0.0000       2.493295        67.8460 
 360   0.0000       2.501915        68.0806 
 361   0.0000       2.516614        68.4806 
 362   0.0000       2.533123        68.9298 
 363   0.0000       2.539597        69.1059 
 364   0.0000       2.575924        70.0945 
 365   0.0000       2.589505        70.4640 
 366   0.0000       2.594488        70.5996 
 367   0.0000       2.607133        70.9437 
 368   0.0000       2.616097        71.1876 
 369   0.0000       2.626353        71.4667 
 370   0.0000       2.634505        71.6885 
 371   0.0000       2.640857        71.8614 
 372   0.0000       2.643628        71.9368 
 373   0.0000       2.686925        73.1149 
 374   0.0000       2.713337        73.8337 
 375   0.0000       2.752149        74.8898 
 376   0.0000       2.760869        75.1271 
 377   0.0000       2.768322        75.3299 
 378   0.0000       2.795579        76.0716 
 379   0.0000       2.822647        76.8081 
 380   0.0000       2.835682        77.1628 
 381   0.0000       2.854352        77.6709 
 382   0.0000       2.876428        78.2716 
 383   0.0000       2.881907        78.4207 
 384   0.0000       2.897916        78.8563 
 385   0.0000       2.903117        78.9978 
 386   0.0000       2.912926        79.2647 
 387   0.0000       2.924267        79.5733 
 388   0.0000       2.930037        79.7303 
 389   0.0000       2.932385        79.7943 
 390   0.0000       2.955057        80.4112 
 391   0.0000       2.956853        80.4601 
 392   0.0000       2.958802        80.5131 
 393   0.0000       2.972702        80.8913 
 394   0.0000       2.980522        81.1041 
 395   0.0000       2.986754        81.2737 
 396   0.0000       3.002606        81.7051 
 397   0.0000       3.008058        81.8534 
 398   0.0000       3.012696        81.9796 
 399   0.0000       3.022558        82.2480 
 400   0.0000       3.033655        82.5499 
 401   0.0000       3.042799        82.7988 
 402   0.0000       3.047484        82.9263 
 403   0.0000       3.060340        83.2761 
 404   0.0000       3.067916        83.4822 
 405   0.0000       3.071247        83.5729 
 406   0.0000       3.074175        83.6526 
 407   0.0000       3.087540        84.0162 
 408   0.0000       3.092958        84.1637 
 409   0.0000       3.106858        84.5419 
 410   0.0000       3.112840        84.7047 
 411   0.0000       3.118059        84.8467 
 412   0.0000       3.126068        85.0646 
 413   0.0000       3.130388        85.1822 
 414   0.0000       3.132587        85.2420 
 415   0.0000       3.143218        85.5313 
 416   0.0000       3.149535        85.7032 
 417   0.0000       3.153643        85.8150 
 418   0.0000       3.157358        85.9161 
 419   0.0000       3.165574        86.1396 
 420   0.0000       3.171442        86.2993 
 421   0.0000       3.186073        86.6975 
 422   0.0000       3.194485        86.9263 
 423   0.0000       3.206669        87.2579 
 424   0.0000       3.210589        87.3646 
 425   0.0000       3.214908        87.4821 
 426   0.0000       3.219223        87.5995 
 427   0.0000       3.232434        87.9590 
 428   0.0000       3.241487        88.2054 
 429   0.0000       3.243262        88.2537 
 430   0.0000       3.255257        88.5800 
 431   0.0000       3.259659        88.6998 
 432   0.0000       3.271436        89.0203 
 433   0.0000       3.275691        89.1361 
 434   0.0000       3.278869        89.2226 
 435   0.0000       3.300457        89.8100 
 436   0.0000       3.303124        89.8826 
 437   0.0000       3.306715        89.9803 
 438   0.0000       3.320967        90.3681 
 439   0.0000       3.328936        90.5850 
 440   0.0000       3.340733        90.9060 
 441   0.0000       3.361742        91.4776 
 442   0.0000       3.363049        91.5132 
 443   0.0000       3.384739        92.1034 
 444   0.0000       3.389750        92.2398 
 445   0.0000       3.396529        92.4243 
 446   0.0000       3.419692        93.0545 
 447   0.0000       3.434517        93.4580 
 448   0.0000       3.452516        93.9477 
 449   0.0000       3.464277        94.2678 
 450   0.0000       3.495721        95.1234 
 451   0.0000       3.500461        95.2524 
 452   0.0000       3.508803        95.4794 
 453   0.0000       3.531273        96.0908 
 454   0.0000       3.540677        96.3467 
 455   0.0000       3.565137        97.0123 
 456   0.0000       3.571497        97.1854 
 457   0.0000       3.596933        97.8775 
 458   0.0000       3.610358        98.2428 
 459   0.0000       3.619804        98.4999 
 460   0.0000       3.625762        98.6620 
 461   0.0000       3.650919        99.3466 
 462   0.0000       3.661499        99.6344 
 463   0.0000       3.697387       100.6110 
 464   0.0000       3.712635       101.0259 
 465   0.0000       3.727264       101.4240 
 466   0.0000       3.736600       101.6781 
 467   0.0000       3.757420       102.2446 
 468   0.0000       3.760395       102.3256 
 469   0.0000       3.777079       102.7795 
 470   0.0000       3.785610       103.0117 
 471   0.0000       3.807505       103.6075 
 472   0.0000       3.813755       103.7776 
 473   0.0000       3.825999       104.1107 
 474   0.0000       3.842958       104.5722 
 475   0.0000       3.846304       104.6633 
 476   0.0000       3.853530       104.8599 
 477   0.0000       3.867815       105.2486 
 478   0.0000       3.871701       105.3543 
 479   0.0000       3.885709       105.7355 
 480   0.0000       3.898684       106.0886 
 481   0.0000       3.907406       106.3259 
 482   0.0000       3.913129       106.4817 
 483   0.0000       3.923910       106.7750 
 484   0.0000       3.938397       107.1692 
 485   0.0000       3.952998       107.5666 
 486   0.0000       3.964164       107.8704 
 487   0.0000       3.978010       108.2472 
 488   0.0000       3.985262       108.4445 
 489   0.0000       4.002646       108.9175 
 490   0.0000       4.006205       109.0144 
 491   0.0000       4.011458       109.1573 
 492   0.0000       4.027324       109.5891 
 493   0.0000       4.032738       109.7364 
 494   0.0000       4.043948       110.0414 
 495   0.0000       4.054467       110.3277 
 496   0.0000       4.057792       110.4181 
 497   0.0000       4.070422       110.7618 
 498   0.0000       4.093202       111.3817 
 499   0.0000       4.101643       111.6114 
 500   0.0000       4.106866       111.7535 
 501   0.0000       4.113670       111.9386 
 502   0.0000       4.117682       112.0478 
 503   0.0000       4.124434       112.2316 
 504   0.0000       4.129330       112.3648 
 505   0.0000       4.133699       112.4837 
 506   0.0000       4.148676       112.8912 
 507   0.0000       4.162021       113.2544 
 508   0.0000       4.170721       113.4911 
 509   0.0000       4.172605       113.5424 
 510   0.0000       4.184667       113.8706 
 511   0.0000       4.203131       114.3730 
 512   0.0000       4.213755       114.6621 
 513   0.0000       4.230391       115.1148 
 514   0.0000       4.253747       115.7503 
 515   0.0000       4.269224       116.1715 
 516   0.0000       4.288809       116.7044 
 517   0.0000       4.311104       117.3111 
 518   0.0000       4.313816       117.3849 
 519   0.0000       4.334455       117.9465 
 520   0.0000       4.386451       119.3614 
 521   0.0000       4.418669       120.2381 
 522   0.0000       4.573570       124.4532 
 523   0.0000       4.600798       125.1941 
 524   0.0000       4.633472       126.0832 
 525   0.0000       4.683828       127.4534 
 526   0.0000       4.758671       129.4900 
 527   0.0000       4.780572       130.0860 
 528   0.0000       4.830598       131.4473 
 529   0.0000       4.943049       134.5072 
 530   0.0000       4.974465       135.3621 
 531   0.0000       5.015726       136.4848 
 532   0.0000       5.142265       139.9282 
 533   0.0000       5.151257       140.1728 
 534   0.0000       5.208005       141.7170 
 535   0.0000       5.218049       141.9903 
 536   0.0000       5.247733       142.7981 
 537   0.0000       5.249595       142.8488 
 538   0.0000       5.252336       142.9233 
 539   0.0000       5.260158       143.1362 
 540   0.0000       5.277374       143.6047 
 541   0.0000       5.312090       144.5493 
 542   0.0000       5.331038       145.0649 
 543   0.0000       5.347630       145.5164 
 544   0.0000       5.359510       145.8397 
 545   0.0000       5.370561       146.1404 
 546   0.0000       5.392729       146.7436 
 547   0.0000       5.450052       148.3035 
 548   0.0000       5.468664       148.8099 
 549   0.0000       5.496236       149.5602 
 550   0.0000       5.514694       150.0625 
 551   0.0000       5.548850       150.9919 
 552   0.0000       5.624528       153.0512 
 553   0.0000       5.678486       154.5195 
 554   0.0000       5.743139       156.2788 
 555   0.0000       5.775273       157.1532 
 556   0.0000       5.878229       159.9547 
 557   0.0000       5.945248       161.7784 
 558   0.0000       6.193383       168.5305 
 559   0.0000       6.252900       170.1501 
 560   0.0000       6.354331       172.9101 
 561   0.0000       6.399773       174.1467 
 562   0.0000       6.431117       174.9996 
 563   0.0000       6.462012       175.8403 
 564   0.0000       6.755339       183.8221 
 565   0.0000       6.805058       185.1750 
 566   0.0000       6.808599       185.2714 
 567   0.0000       6.847274       186.3238 
 568   0.0000       6.850712       186.4174 
 569   0.0000       6.854551       186.5218 
 570   0.0000       6.855473       186.5469 
 571   0.0000       6.855710       186.5533 
 572   0.0000       6.856205       186.5668 
 573   0.0000       6.856857       186.5846 
 574   0.0000       6.859879       186.6668 
 575   0.0000       6.861120       186.7006 
 576   0.0000       6.861815       186.7195 
 577   0.0000       6.862919       186.7495 
 578   0.0000       6.864202       186.7844 
 579   0.0000       6.864256       186.7859 
 580   0.0000       6.866703       186.8525 
 581   0.0000       6.868009       186.8880 
 582   0.0000       6.869054       186.9165 
 583   0.0000       6.869371       186.9251 
 584   0.0000       6.872514       187.0106 
 585   0.0000       6.873190       187.0290 
 586   0.0000       6.875074       187.0803 
 587   0.0000       6.876498       187.1190 
 588   0.0000       6.879169       187.1917 
 589   0.0000       6.880252       187.2212 
 590   0.0000       6.880911       187.2391 
[...]
      f+2     :     0.000830
      f-2     :     0.000180
      f+3     :     0.001445
      f-3     :     0.001452
  3 C s       :     2.789492  s :     2.789492
      pz      :     0.795127  p :     2.598005
      px      :     1.034335
      py      :     0.768543
      dz2     :     0.207121  d :     0.882783
      dxz     :     0.158059
      dyz     :     0.181328
      dx2y2   :     0.175860
      dxy     :     0.160415
      f0      :     0.035946  f :     0.168747
      f+1     :     0.024153
      f-1     :     0.033954
      f+2     :     0.018403
      f-2     :     0.010638
      f+3     :     0.024663
      f-3     :     0.020989
  4 C s       :     2.766871  s :     2.766871
      pz      :     0.765954  p :     2.596530
      px      :     1.016521
      py      :     0.814055
      dz2     :     0.234770  d :     0.917820
      dxz     :     0.148989
      dyz     :     0.197061
      dx2y2   :     0.161434
      dxy     :     0.175567
      f0      :     0.033513  f :     0.175946
      f+1     :     0.028196
      f-1     :     0.040988
      f+2     :     0.019805
      f-2     :     0.012984
      f+3     :     0.022305
      f-3     :     0.018156
  5 C s       :     2.765020  s :     2.765020
      pz      :     0.745293  p :     2.595595
      px      :     1.008660
      py      :     0.841642
      dz2     :     0.241029  d :     0.920609
      dxz     :     0.142954
      dyz     :     0.221195
      dx2y2   :     0.126566
      dxy     :     0.188864
      f0      :     0.031572  f :     0.177429
      f+1     :     0.026679
      f-1     :     0.042096
      f+2     :     0.025915
      f-2     :     0.021951
      f+3     :     0.015369
      f-3     :     0.013848
  6 C s       :     2.763831  s :     2.763831
      pz      :     0.734925  p :     2.595160
      px      :     1.006359
      py      :     0.853877
      dz2     :     0.241697  d :     0.922381
      dxz     :     0.137883
      dyz     :     0.236712
      dx2y2   :     0.111541
      dxy     :     0.194547
      f0      :     0.032657  f :     0.177996
      f+1     :     0.024558
      f-1     :     0.038582
      f+2     :     0.031487
      f-2     :     0.028049
      f+3     :     0.011617
      f-3     :     0.011046
  7 C s       :     2.763432  s :     2.763432
      pz      :     0.741169  p :     2.595131
      px      :     1.006607
      py      :     0.847355
      dz2     :     0.241217  d :     0.923990
      dxz     :     0.141097
      dyz     :     0.230198
      dx2y2   :     0.118391
      dxy     :     0.193088
      f0      :     0.031981  f :     0.178251
      f+1     :     0.025503
      f-1     :     0.040817
      f+2     :     0.028671
      f-2     :     0.025347
      f+3     :     0.013555
      f-3     :     0.012376
  8 C s       :     2.766902  s :     2.766902
      pz      :     0.764820  p :     2.598747
      px      :     1.009103
      py      :     0.824824
      dz2     :     0.235996  d :     0.922975
      dxz     :     0.153857
      dyz     :     0.208104
      dx2y2   :     0.140449
      dxy     :     0.184570
      f0      :     0.032449  f :     0.178441
      f+1     :     0.028380
      f-1     :     0.043499
      f+2     :     0.021778
      f-2     :     0.015976
      f+3     :     0.019636
      f-3     :     0.016723
  9 C s       :     2.761602  s :     2.761602
      pz      :     0.795964  p :     2.506283
      px      :     0.906457
      py      :     0.803862
      dz2     :     0.271017  d :     1.144815
      dxz     :     0.200273
      dyz     :     0.226903
      dx2y2   :     0.228299
      dxy     :     0.218323
      f0      :     0.038820  f :     0.255465
      f+1     :     0.041928
      f-1     :     0.049614
      f+2     :     0.030892
      f-2     :     0.026757
      f+3     :     0.038460
      f-3     :     0.028994
 10 F s       :     3.612015  s :     3.612015
      pz      :     1.825456  p :     5.194059
      px      :     1.831685
      py      :     1.536917
      dz2     :     0.003932  d :     0.029227
      dxz     :     0.000353
      dyz     :     0.005194
      dx2y2   :     0.011425
      dxy     :     0.008324
      f0      :     0.000114  f :     0.001411
      f+1     :     0.000032
      f-1     :     0.000247
      f+2     :     0.000193
      f-2     :     0.000018
      f+3     :     0.000415
      f-3     :     0.000392
 11 F s       :     3.615251  s :     3.615251
      pz      :     1.539246  p :     5.198744
      px      :     1.839554
      py      :     1.819943
      dz2     :     0.014230  d :     0.028950
      dxz     :     0.007911
      dyz     :     0.005729
      dx2y2   :     0.000532
      dxy     :     0.000547
      f0      :     0.000560  f :     0.001392
      f+1     :     0.000395
      f-1     :     0.000331
      f+2     :     0.000058
      f-2     :     0.000043
      f+3     :     0.000002
      f-3     :     0.000003
 12 F s       :     3.599918  s :     3.599918
      pz      :     1.785304  p :     5.157566
      px      :     1.823151
      py      :     1.549111
      dz2     :     0.003874  d :     0.030479
      dxz     :     0.001000
      dyz     :     0.007831
      dx2y2   :     0.010406
      dxy     :     0.007369
      f0      :     0.000133  f :     0.001506
      f+1     :     0.000014
      f-1     :     0.000278
      f+2     :     0.000309
      f-2     :     0.000100
      f+3     :     0.000350
      f-3     :     0.000322
 13 F s       :     3.602834  s :     3.602834
      pz      :     1.522258  p :     5.162237
      px      :     1.824809
      py      :     1.815170
      dz2     :     0.016113  d :     0.029982
      dxz     :     0.007982
      dyz     :     0.005402
      dx2y2   :     0.000252
      dxy     :     0.000233
      f0      :     0.000678  f :     0.001475
      f+1     :     0.000438
      f-1     :     0.000332
      f+2     :     0.000008
      f-2     :     0.000015
      f+3     :     0.000001
      f-3     :     0.000002
 14 F s       :     3.599052  s :     3.599052
      pz      :     1.719998  p :     5.151399
      px      :     1.819246
      py      :     1.612155
      dz2     :     0.004059  d :     0.030832
      dxz     :     0.002844
      dyz     :     0.011481
      dx2y2   :     0.006761
      dxy     :     0.005688
      f0      :     0.000165  f :     0.001524
      f+1     :     0.000018
      f-1     :     0.000339
      f+2     :     0.000384
      f-2     :     0.000251
      f+3     :     0.000205
      f-3     :     0.000161
 15 F s       :     3.598310  s :     3.598310
      pz      :     1.549642  p :     5.150039
      px      :     1.821729
      py      :     1.778668
      dz2     :     0.013590  d :     0.030920
      dxz     :     0.007325
      dyz     :     0.008271
      dx2y2   :     0.000652
      dxy     :     0.001082
      f0      :     0.000540  f :     0.001532
      f+1     :     0.000333
      f-1     :     0.000458
      f+2     :     0.000063
      f-2     :     0.000126
      f+3     :     0.000007
      f-3     :     0.000004
 16 F s       :     3.597994  s :     3.597994
      pz      :     1.639012  p :     5.146182
      px      :     1.819576
      py      :     1.687594
      dz2     :     0.006893  d :     0.031056
      dxz     :     0.004896
      dyz     :     0.012480
      dx2y2   :     0.003292
      dxy     :     0.003496
      f0      :     0.000247  f :     0.001537
      f+1     :     0.000103
      f-1     :     0.000479
      f+2     :     0.000295
      f-2     :     0.000284
      f+3     :     0.000080
      f-3     :     0.000048
 17 F s       :     3.597460  s :     3.597460
      pz      :     1.611761  p :     5.144772
      px      :     1.818497
      py      :     1.714513
      dz2     :     0.008527  d :     0.031133
      dxz     :     0.005708
      dyz     :     0.011764
      dx2y2   :     0.002349
      dxy     :     0.002785
      f0      :     0.000305  f :     0.001543
      f+1     :     0.000160
      f-1     :     0.000506
      f+2     :     0.000232
      f-2     :     0.000263
      f+3     :     0.000049
      f-3     :     0.000028
 18 F s       :     3.597465  s :     3.597465
      pz      :     1.690791  p :     5.143136
      px      :     1.818632
      py      :     1.633712
      dz2     :     0.004720  d :     0.031177
      dxz     :     0.003473
      dyz     :     0.012519
      dx2y2   :     0.005549
      dxy     :     0.004915
      f0      :     0.000185  f :     0.001546
      f+1     :     0.000032
      f-1     :     0.000397
      f+2     :     0.000384
      f-2     :     0.000277
      f+3     :     0.000158
      f-3     :     0.000113
 19 F s       :     3.598039  s :     3.598039
      pz      :     1.567847  p :     5.143802
      px      :     1.817227
      py      :     1.758729
      dz2     :     0.011947  d :     0.031136
      dxz     :     0.006933
      dyz     :     0.009579
      dx2y2   :     0.001092
      dxy     :     0.001585
      f0      :     0.000453  f :     0.001542
      f+1     :     0.000278
      f-1     :     0.000491
      f+2     :     0.000115
      f-2     :     0.000182
      f+3     :     0.000015
      f-3     :     0.000009
 20 F s       :     3.598827  s :     3.598827
      pz      :     1.764339  p :     5.143551
      px      :     1.817224
      py      :     1.561988
      dz2     :     0.003751  d :     0.031055
      dxz     :     0.001463
      dyz     :     0.009342
      dx2y2   :     0.009473
      dxy     :     0.007025
      f0      :     0.000147  f :     0.001544
      f+1     :     0.000009
      f-1     :     0.000290
      f+2     :     0.000356
      f-2     :     0.000155
      f+3     :     0.000315
      f-3     :     0.000273
 21 F s       :     3.597861  s :     3.597861
      pz      :     1.521099  p :     5.142821
      px      :     1.819276
      py      :     1.802446
      dz2     :     0.016414  d :     0.031310
      dxz     :     0.008085
      dyz     :     0.006177
      dx2y2   :     0.000278
      dxy     :     0.000355
      f0      :     0.000695  f :     0.001570
      f+1     :     0.000441
      f-1     :     0.000377
      f+2     :     0.000011
      f-2     :     0.000042
      f+3     :     0.000002
      f-3     :     0.000002
 22 F s       :     3.600822  s :     3.600822
      pz      :     1.790072  p :     5.140588
      px      :     1.806230
      py      :     1.544286
      dz2     :     0.004284  d :     0.030869
      dxz     :     0.000514
      dyz     :     0.007622
      dx2y2   :     0.011878
      dxy     :     0.006571
      f0      :     0.000149  f :     0.001625
      f+1     :     0.000019
      f-1     :     0.000309
      f+2     :     0.000321
      f-2     :     0.000060
      f+3     :     0.000354
      f-3     :     0.000414
 23 F s       :     3.600911  s :     3.600911
      pz      :     1.770187  p :     5.139559
      px      :     1.626544
      py      :     1.742829
      dz2     :     0.004067  d :     0.031012
      dxz     :     0.007034
      dyz     :     0.003596
      dx2y2   :     0.006963
      dxy     :     0.009352
      f0      :     0.000165  f :     0.001646
      f+1     :     0.000232
      f-1     :     0.000096
      f+2     :     0.000159
      f-2     :     0.000355
      f+3     :     0.000301
      f-3     :     0.000338
 24 F s       :     3.599385  s :     3.599385
      pz      :     1.524353  p :     5.139438
      px      :     1.806557
      py      :     1.808528
      dz2     :     0.018027  d :     0.031135
      dxz     :     0.006962
      dyz     :     0.005679
      dx2y2   :     0.000287
      dxy     :     0.000180
      f0      :     0.000808  f :     0.001649
      f+1     :     0.000426
      f-1     :     0.000373
      f+2     :     0.000028
      f-2     :     0.000011
      f+3     :     0.000001
      f-3     :     0.000002


                      *****************************
                      * MAYER POPULATION ANALYSIS *
                      *****************************

  NA   - Mulliken gross atomic population
  ZA   - Total nuclear charge
  QA   - Mulliken gross atomic charge
  VA   - Mayer's total valence
  BVA  - Mayer's bonded valence
  FA   - Mayer's free valence

  ATOM       NA         ZA         QA         VA         BVA        FA
  0 C      5.8327     6.0000     0.1673     4.6422     4.6422    -0.0000
  1 O      8.4783     8.0000    -0.4783     1.9806     1.9806    -0.0000
  2 O      8.4919     8.0000    -0.4919     1.9643     1.9643    -0.0000
  3 C      5.6982     6.0000     0.3018     3.9498     3.9498     0.0000
  4 C      5.7228     6.0000     0.2772     4.1519     4.1519     0.0000
  5 C      5.7052     6.0000     0.2948     4.2456     4.2456    -0.0000
  6 C      5.7070     6.0000     0.2930     4.2443     4.2443    -0.0000
  7 C      5.7282     6.0000     0.2718     4.2269     4.2269    -0.0000
  8 C      5.7071     6.0000     0.2929     4.2546     4.2546    -0.0000
  9 C      5.5914     6.0000     0.4086     4.5699     4.5699    -0.0000
 10 F      9.1954     9.0000    -0.1954     1.1008     1.1008    -0.0000
 11 F      9.2009     9.0000    -0.2009     1.0847     1.0847    -0.0000
 12 F      9.1645     9.0000    -0.1645     1.1536     1.1536    -0.0000
 13 F      9.1732     9.0000    -0.1732     1.1425     1.1425     0.0000
 14 F      9.1569     9.0000    -0.1569     1.1649     1.1649    -0.0000
 15 F      9.1551     9.0000    -0.1551     1.1694     1.1694     0.0000
 16 F      9.1511     9.0000    -0.1511     1.1746     1.1746    -0.0000
 17 F      9.1502     9.0000    -0.1502     1.1775     1.1775    -0.0000
 18 F      9.1490     9.0000    -0.1490     1.1808     1.1808    -0.0000
 19 F      9.1492     9.0000    -0.1492     1.1778     1.1778    -0.0000
 20 F      9.1465     9.0000    -0.1465     1.1806     1.1806     0.0000
 21 F      9.1438     9.0000    -0.1438     1.1822     1.1822     0.0000
 22 F      9.1359     9.0000    -0.1359     1.1889     1.1889     0.0000
 23 F      9.1327     9.0000    -0.1327     1.1923     1.1923     0.0000
 24 F      9.1329     9.0000    -0.1329     1.1923     1.1923    -0.0000

  Mayer bond orders larger than 0.100000
B(  0-C ,  1-O ) :   1.8742 B(  0-C ,  2-O ) :   1.8462 B(  0-C ,  3-C ) :   0.8532 
B(  3-C ,  4-C ) :   0.9387 B(  3-C , 10-F ) :   1.0513 B(  3-C , 11-F ) :   1.0403 
B(  4-C ,  5-C ) :   0.9433 B(  4-C , 12-F ) :   1.0775 B(  4-C , 13-F ) :   1.0680 
B(  5-C ,  6-C ) :   0.9539 B(  5-C , 14-F ) :   1.0840 B(  5-C , 15-F ) :   1.0938 
B(  6-C ,  7-C ) :   0.9490 B(  6-C , 16-F ) :   1.0906 B(  6-C , 17-F ) :   1.0952 
B(  7-C ,  8-C ) :   0.9447 B(  7-C , 18-F ) :   1.0971 B(  7-C , 19-F ) :   1.1012 
B(  8-C ,  9-C ) :   0.9720 B(  8-C , 20-F ) :   1.1009 B(  8-C , 21-F ) :   1.1138 
B(  9-C , 22-F ) :   1.1581 B(  9-C , 23-F ) :   1.1633 B(  9-C , 24-F ) :   1.1704 


-------
TIMINGS
-------

Total SCF time: 0 days 0 hours 0 min 58 sec 

Total time                  ....      58.297 sec
Sum of individual times     ....      55.803 sec  ( 95.7%)

Fock matrix formation       ....      50.800 sec  ( 87.1%)
  Split-RI-J                ....       3.463 sec  (  6.8% of F)
  Chain of spheres X        ....      36.839 sec  ( 72.5% of F)
  XC integration            ....       6.253 sec  ( 12.3% of F)
    Basis function eval.    ....       0.507 sec  (  8.1% of XC)
    Density eval.           ....       1.641 sec  ( 26.2% of XC)
    XC-Functional eval.     ....       0.291 sec  (  4.6% of XC)
    XC-Potential eval.      ....       1.450 sec  ( 23.2% of XC)
Diagonalization             ....       0.233 sec  (  0.4%)
Density matrix formation    ....       0.070 sec  (  0.1%)
Population analysis         ....       0.217 sec  (  0.4%)
Initial guess               ....       0.339 sec  (  0.6%)
Orbital Transformation      ....       0.000 sec  (  0.0%)
Orbital Orthonormalization  ....       0.287 sec  (  0.5%)
DIIS solution               ....       0.095 sec  (  0.2%)
SOSCF solution              ....       1.436 sec  (  2.5%)
Grid generation             ....       2.614 sec  (  4.5%)

Maximum memory used throughout the entire SCF-calculation: 145.5 MB


-------------------------------------------------------------------------------
                          DFT DISPERSION CORRECTION                            
                                                                               
                              DFTD3 V3.1  Rev 1                                
                          USING Becke-Johnson damping                          
-------------------------------------------------------------------------------
The TPSSH functional is recognized
Active option DFTDOPT                   ...         4   

molecular C6(AA) [au] = 6621.201462 


            DFT-D V3
 parameters
 s6 scaling factor         :     1.0000 
 a1 scaling factor         :     0.4529 
 s8 scaling factor         :     2.2382 
 a2 scaling factor         :     4.6550 
 ad hoc parameters k1-k3   :    16.0000     1.3333    -4.0000 

 Edisp/kcal,au: -19.170870506050  -0.030550723540 
 E6   /kcal   :  -9.299373859 
 E8   /kcal   :  -9.871496647 
 % E8         :  51.492166954 

-------------------------   ----------------
Dispersion correction           -0.030550724
-------------------------   ----------------


-------------------------   --------------------
FINAL SINGLE POINT ENERGY     -1953.891425724936
-------------------------   --------------------

                                *** OPTIMIZATION RUN DONE ***

                            ***************************************
                            *     ORCA property calculations      *
                            ***************************************

                                    ---------------------
                                    Active property flags
                                    ---------------------
   (+) Dipole Moment


------------------------------------------------------------------------------
                       ORCA ELECTRIC PROPERTIES CALCULATION
------------------------------------------------------------------------------

Dipole Moment Calculation                       ... on
Quadrupole Moment Calculation                   ... off
Polarizability Calculation                      ... off
GBWName                                         ... rf_mecn_opt_TPS_D_B.gbw
Electron density                                ... rf_mecn_opt_TPS_D_B.scfp
The origin for moment calculation is the CENTER OF MASS  = (-0.107985, -0.030527  0.000876)

-------------
DIPOLE MOMENT
-------------
                                X             Y             Z
Electronic contribution:    -18.76480      -0.92314       1.87352
Nuclear contribution   :      9.86118       0.55447      -1.08079
                        -----------------------------------------
Total Dipole Moment    :     -8.90362      -0.36867       0.79272
                        -----------------------------------------
Magnitude (a.u.)       :      8.94644
Magnitude (Debye)      :     22.74004



--------------------
Rotational spectrum 
--------------------
 
Rotational constants in cm-1:     0.021228     0.003720     0.003667 
Rotational constants in MHz :   636.402350   111.519355   109.922860 

 Dipole components along the rotational axes: 
x,y,z [a.u.] :     8.898943    -0.460361     0.797258 
x,y,z [Debye]:    22.619316    -1.170144     2.026468 

 

Timings for individual modules:

Sum of individual times         ...     1272.753 sec (=  21.213 min)
GTO integral calculation        ...       16.641 sec (=   0.277 min)   1.3 %
SCF iterations                  ...     1019.459 sec (=  16.991 min)  80.1 %
SCF Gradient evaluation         ...      235.906 sec (=   3.932 min)  18.5 %
Geometry relaxation             ...        0.748 sec (=   0.012 min)   0.1 %
                             ****ORCA TERMINATED NORMALLY****
TOTAL RUN TIME: 0 days 0 hours 21 minutes 19 seconds 172 msec
