
                                 *****************
                                 * O   R   C   A *
                                 *****************

                                            #,                                       
                                            ###                                      
                                            ####                                     
                                            #####                                    
                                            ######                                   
                                           ########,                                 
                                     ,,################,,,,,                         
                               ,,#################################,,                 
                          ,,##########################################,,             
                       ,#########################################, ''#####,          
                    ,#############################################,,   '####,        
                  ,##################################################,,,,####,       
                ,###########''''           ''''###############################       
              ,#####''   ,,,,##########,,,,          '''####'''          '####       
            ,##' ,,,,###########################,,,                        '##       
           ' ,,###''''                  '''############,,,                           
         ,,##''                                '''############,,,,        ,,,,,,###''
      ,#''                                            '''#######################'''  
     '                                                          ''''####''''         
             ,#######,   #######,   ,#######,      ##                                
            ,#'     '#,  ##    ##  ,#'     '#,    #''#        ,####,   ,####,        
            ##       ##  ##   ,#'  ##            #'  '#       #'       #'  '#        
            ##       ##  #######   ##           ,######,      #####,   #    #        
            '#,     ,#'  ##    ##  '#,     ,#' ,#      #,     #,   #   #,  ,#        
             '#######'   ##     ##  '#######'  #'      '#     '####' # '####'        



                #########################################################
                #                        -***-                          #
                #          Department of theory and spectroscopy        #
                #                                                       #
                #                      Frank Neese                      #
                #                                                       #
                #     Directorship, Architecture, Infrastructure        #
                #                    SHARK, DRIVERS                     #
                #        Core code/Algorithms in most modules           #
                #                                                       #
                #        Max Planck Institute fuer Kohlenforschung      #
                #                Kaiser Wilhelm Platz 1                 #
                #                 D-45470 Muelheim/Ruhr                 #
                #                      Germany                          #
                #                                                       #
                #                  All rights reserved                  #
                #                        -***-                          #
                #########################################################


                         Program Version 6.0.1  -  RELEASE   -


 With contributions from (in alphabetic order):
[Max-Planck-Institut fuer Kohlenforschung]                               
  Daniel Aravena         : Magnetic Suceptibility                        
  Michael Atanasov       : Ab Initio Ligand Field Theory (pilot matlab implementation)
  Alexander A. Auer      : GIAO ZORA, VPT2 properties, NMR spectrum      
  Ute Becker             : All parallelization in ORCA, NUMFREQ, NUMCALC 
  Giovanni Bistoni       : ED, misc. LED, open-shell LED, HFLD           
  Martin Brehm           : Molecular dynamics                            
  Dmytro Bykov           : pre 5.0 version of the SCF Hessian            
  Marcos Casanova-Páez   : Triplet and SCS-CIS(D). UHF-(DLPNO)-IP/EA/STEOM-CCSD. UHF-CVS-IP/STEOM-CCSD   
  Vijay G. Chilkuri      : MRCI spin determinant printing, contributions to CSF-ICE 
  Pauline Colinet        : FMM embedding                                 
  Dipayan Datta          : RHF DLPNO-CCSD density                        
  Achintya Kumar Dutta   : EOM-CC, STEOM-CC                              
  Nicolas Foglia         : Exact transition moments, OPA infrastructure, MCD improvements    
  Dmitry Ganyushin       : Spin-Orbit,Spin-Spin,Magnetic field MRCI      
  Miquel Garcia-Rates    : C-PCM and meta-GGA Hessian, CCSD/C-PCM, Gaussian charge scheme 
  Tiago L. C. Gouveia    : GS-ROHF, GS-ROCIS                             
  Yang Guo               : DLPNO-NEVPT2, F12-NEVPT2, CIM, IAO-localization        
  Andreas Hansen         : Spin unrestricted coupled pair/coupled cluster methods 
  Ingolf Harden          : AUTO-CI MPn and infrastructure                
  Benjamin Helmich-Paris : MC-RPA, TRAH-(SCF,CASSCF), AVAS, COSX integrals, SCF dyn. polar. 
  Lee Huntington         : MR-EOM, pCC                                   
  Robert Izsak           : Overlap fitted RIJCOSX, COSX-SCS-MP3, EOM     
  Riya Kayal             : Wick's Theorem for AUTO-CI, AUTO-CI UHF-CCSDT 
  Emily Kempfer          : AUTO-CI, RHF CISDT and CCSDT                  
  Christian Kollmar      : KDIIS, OOCD, Brueckner-CCSD(T), CCSD density, CASPT2, CASPT2-K, improved NEVPT2 
  Axel Koslowski         : Symmetry handling                             
  Simone Kossmann        : meta-GGA functionals, TD-DFT gradient, OOMP2, (MP2 Hessian; deprecated post 5.0) 
  Lucas Lang             : DCDCAS                                        
  Marvin Lechner         : AUTO-CI (C++ implementation), FIC-MRCC        
  Spencer Leger          : CASSCF response                               
  Dagmar Lenk            : GEPOL surface, SMD, ORCA-2-JSON               
  Dimitrios Liakos       : Extrapolation schemes; Compound Job, initial MDCI parallelization 
  Dimitrios Manganas     : Further ROCIS development; embedding schemes. LFT, Crystal Embedding 
  Dimitrios Pantazis     : SARC Basis sets                               
  Anastasios Papadopoulos: AUTO-CI, single reference methods and gradients 
  Taras Petrenko         : pre 6.0 DFT Hessian and TD-DFT gradient, (ASA, deprecated), ECA, 1-Electron XAS/XES, NRVS 
  Peter Pinski           : DLPNO-MP2, DLPNO-MP2 Gradient                 
  Christoph Reimann      : Effective Core Potentials                     
  Marius Retegan         : Local ZFS, SOC                                
  Christoph Riplinger    : Optimizer, TS searches, QM/MM, DLPNO-CCSD(T), (RO)-DLPNO pert. Triples 
  Michael Roemelt        : Original ROCIS implementation                 
  Masaaki Saitow         : Open-shell DLPNO-CCSD energy and density      
  Barbara Sandhoefer     : DKH picture change effects                    
  Kantharuban Sivalingam : CASSCF convergence/infrastructure, NEVPT2 and variants, FIC-MRCI 
  Bernardo de Souza      : ESD, SOC TD-DFT                               
  Georgi L. Stoychev     : AutoAux, RI-MP2 NMR, DLPNO-MP2 response, X2C  
  Van Anh Tran           : RI-MP2 g-tensors                              
  Willem Van den Heuvel  : Paramagnetic NMR                              
  Zikuan Wang            : NOTCH, Electric field optimization            
  Frank Wennmohs         : Technical directorship and infrastructure     
  Hang Xu                : AUTO-CI-Response properties                   
                                                                         
[FACCTs GmbH]                                                            
  Markus Bursch, Miquel Garcia-Rates, Christoph Riplinger, Bernardo de Souza, Georgi L. Stoychev 
                                                                 
  APM, Basis sets (HGBS, AHGBS, def-TZVP (Ac-Lr), def2-XVPD (La-Lu)), CI-OPT, improved COSX, DLPNO-Multilevel,           
  DOCKER, DRACO, updates on ESD, GOAT, IRC, LR-CPCM, MBIS, meta-GGA TD-DFT gradient, ML-optimized integration grids, 
  MM, NACMEs, nearIR, NEB, NEB-TS, NL-DFT gradient (VV10), 2- and 3-layer-ONIOM, interface openCOSMO-RS, QMMM,   
  Crystal-QMMM, SF, symmetry and pop. for TD-DFT, r2SCAN hybrids, SOLVATOR                                   
                                                                         
[Other institutions]                                                     
  V. Asgeirsson          : NEB                                           
  Christoph Bannwarth    : sTDA-DFT, sTD-DFT, PBEh-3c, B97-3c, D3        
  Sebastian Ehlert       : rSCAN, r2SCAN, r2SCAN-3c, D4, dhf basis sets  
  Marvin Friede          : D4 for Fr, Ra, Ac-Lr                          
  Lars Goerigk           : TD-DFT with DH, B97 family of functionals     
  Stefan Grimme          : VdW corrections, initial TS optimization, DFT functionals, gCP, sTDA/sTD-DF 
  Waldemar Hujo          : DFT-NL                                        
  H. Jonsson             : NEB                                           
  Holger Kruse           : gCP                                           
  Marcel Mueller         : wB97X-3c, vDZP basis set                      
  Hagen Neugebauer       : wr2SCAN                                       
  Tobias Risthaus        : range-separated hybrid DFT                    
  Lukas Wittmann         : regularized MP2, r2SCAN double-hybrids, wr2SCAN        
                                                                         
We gratefully acknowledge several colleagues who have allowed us to      
interface, adapt or use parts of their codes:                            
  Ed Valeev, F. Pavosevic, A. Kumar             : LibInt (2-el integral package), F12 methods 
  Garnet Chan, S. Sharma, J. Yang, R. Olivares  : DMRG                   
  Ulf Ekstrom                                   : XCFun DFT Library      
  Mihaly Kallay                                 : mrcc  (arbitrary order and MRCC methods)
  Frank Weinhold                                : gennbo (NPA and NBO analysis)           
  Simon Mueller                                 : openCOSMO-RS                            
  Christopher J. Cramer and Donald G. Truhlar   : smd solvation model                     
  S Lehtola, MJT Oliveira, MAL Marques          : LibXC Library                           
  Liviu Ungur et al                             : ANISO software                          


 Your calculation uses the libint2 library for the computation of 2-el integrals
 For citations please refer to: http://libint.valeyev.net

 Your ORCA version has been built with support for libXC version: 6.2.2
 For citations please refer to: https://libxc.gitlab.io

 This ORCA versions uses:
   CBLAS   interface :  Fast vector & matrix operations
   LAPACKE interface :  Fast linear algebra routines
   SCALAPACK package :  Parallel linear algebra routines
   Shared memory     :  Shared parallel matrices
   BLAS/LAPACK       :  OpenBLAS 0.3.27  USE64BITINT DYNAMIC_ARCH NO_AFFINITY SkylakeX SINGLE_THREADED
        Core in use  :  SkylakeX
   Copyright (c) 2011-2014, The OpenBLAS Project


NOTE: MaxCore=8000 MB was set to SCF,MP2,MDCI,CIPSI,MRCI and CIS
      => If you want to overwrite this, your respective input block should be placed after the MaxCore statement
Your calculation utilizes the atom-pairwise dispersion correction
with the Becke-Johnson damping scheme (D3BJ)


Your calculation utilizes the SMD solvation module
Please cite in your paper:
A.V. Marenich, C.J. Cramer, D.G. Truhlar J. Phys. Chem. B, 113, (2009), 6378 

Warning: RI is on but no J-basis has been assigned. Assigning Def2/J (nothing to worry about!)
================================================================================

----- Orbital basis set information -----
Your calculation utilizes the basis: def2-TZVP
   F. Weigend and R. Ahlrichs, Phys. Chem. Chem. Phys. 7, 3297 (2005).

----- AuxJ basis set information -----
Your calculation utilizes the auxiliary basis: def2/J
   F. Weigend, Phys. Chem. Chem. Phys. 8, 1057 (2006).

================================================================================
                                        WARNINGS
                       Please study these warnings very carefully!
================================================================================



WARNING: SCAN, rSCAN, or r2SCAN functional requested.
  ===> : libXC variant has now been activated.



WARNING: your system is open-shell and RHF/RKS was chosen
  ===> : WILL SWITCH to UHF/UKS


WARNING: Geometry Optimization
  ===> : Switching off AutoStart
         For restart on a previous wavefunction, please use MOREAD

================================================================================
                                       INPUT FILE
================================================================================
NAME = rf_mecn_opt_r2s_C2_D_B_01.inp
|  1> !r2scanh def2-TZVP opt d3 TightSCF SlowConv defgrid2
|  2>  
|  3> %pal
|  4> nprocs 20
|  5> end
|  6>  
|  7> %scf
|  8> MaxIter 1500
|  9> end
| 10>  
| 11> %maxcore 8000
| 12>  
| 13> !CPCM
| 14> %cpcm smd true
| 15> SMDsolvent "ACETONITRILE"
| 16> end
| 17>  
| 18> * xyz -1 2
| 19> 6        4.790427000     -0.033865800     -0.529943200
| 20> 8        5.449345000     -1.206924000     -0.894594600
| 21> 8        4.978223000      1.323071000     -0.737377200
| 22> 6        3.506687600     -0.338741600      0.376153800
| 23> 6        2.222300000      0.400524800     -0.110681600
| 24> 6        0.900506800     -0.386389800      0.175703000
| 25> 6       -0.395261200      0.487294000      0.065549000
| 26> 6       -1.705693600     -0.364773800     -0.068373600
| 27> 6       -3.005136200      0.445344800      0.258164000
| 28> 6       -4.319880200     -0.214526000     -0.270540800
| 29> 9        3.741061800      0.055285800      1.689948800
| 30> 9        2.125696800      1.616867800      0.483236600
| 31> 9        2.314152400      0.589704000     -1.455769200
| 32> 9        0.794028800     -1.413561400     -0.700839000
| 33> 9        0.958350600     -0.884509000      1.435093400
| 34> 9       -0.498373400      1.260265600      1.173340200
| 35> 9       -0.299075000      1.289512600     -1.020910800
| 36> 9       -1.641790400     -1.418189000      0.779523800
| 37> 9       -1.792381400     -0.831391600     -1.336863600
| 38> 9       -2.918792200      1.679227200     -0.295171200
| 39> 9       -3.119771000      0.573779800      1.598579800
| 40> 9       -4.383115600     -1.504377600      0.089127600
| 41> 9       -5.365669800      0.430528600      0.260394200
| 42> 9       -4.396020400     -0.128550600     -1.602941800
| 43> *
| 44> 
| 45>                          ****END OF INPUT****
================================================================================

                       *****************************
                       * Geometry Optimization Run *
                       *****************************

Geometry optimization settings:
Update method            Update   .... BFGS
Choice of coordinates    CoordSys .... (2022) Redundant Internals
Initial Hessian          InHess   .... Almloef's Model
Max. no of cycles        MaxIter  .... 72

Convergence Tolerances:
Energy Change            TolE     ....  5.0000e-06 Eh
Max. Gradient            TolMAXG  ....  3.0000e-04 Eh/bohr
RMS Gradient             TolRMSG  ....  1.0000e-04 Eh/bohr
Max. Displacement        TolMAXD  ....  4.0000e-03 bohr
RMS Displacement         TolRMSD  ....  2.0000e-03 bohr
Strict Convergence                .... False

------------------------------------------------------------------------------
                        ORCA OPTIMIZATION COORDINATE SETUP
------------------------------------------------------------------------------

The optimization will be done in redundant internal coordinates (2022)
Making redundant internal coordinates   ...  (2022 redundants) done
Evaluating the initial hessian          ...  (Almloef) done
Evaluating the coordinates              ...  done
Calculating the B-matrix                .... done
Calculating the G-matrix                .... done
Diagonalizing the G-matrix              .... done
Small eigenvalue found = 5.712e-03
Small eigenvalue found = 1.471e-02
The first mode is                       ....   38
The number of degrees of freedom        ....   66

    -----------------------------------------------------------------
                    Redundant Internal Coordinates


    -----------------------------------------------------------------
         Definition                    Initial Value    Approx d2E/dq
    -----------------------------------------------------------------
      1. B(O   1,C   0)                  1.3940         0.551454   
      2. B(O   2,C   0)                  1.3855         0.568952   
      3. B(C   3,C   0)                  1.6006         0.288221   
      4. B(C   4,C   3)                  1.5599         0.334759   
      5. B(C   5,C   4)                  1.5647         0.328824   
      6. B(C   6,C   5)                  1.5667         0.326486   
      7. B(C   7,C   6)                  1.5688         0.323927   
      8. B(C   8,C   7)                  1.5657         0.327637   
      9. B(C   9,C   8)                  1.5632         0.330714   
     10. B(F  10,C   3)                  1.3915         0.517117   
     11. B(F  11,C   4)                  1.3570         0.586881   
     12. B(F  12,C   4)                  1.3614         0.577499   
     13. B(F  13,C   5)                  1.3545         0.592326   
     14. B(F  14,C   5)                  1.3556         0.590092   
     15. B(F  15,C   6)                  1.3547         0.591865   
     16. B(F  16,C   6)                  1.3540         0.593567   
     17. B(F  17,C   7)                  1.3538         0.593973   
     18. B(F  18,C   7)                  1.3544         0.592672   
     19. B(F  19,C   8)                  1.3550         0.591238   
     20. B(F  20,C   8)                  1.3514         0.599114   
     21. B(F  21,C   9)                  1.3406         0.623533   
     22. B(F  22,C   9)                  1.3385         0.628179   
     23. B(F  23,C   9)                  1.3373         0.630929   
     24. A(O   2,C   0,C   3)          112.3347         0.371210   
     25. A(O   1,C   0,O   2)          136.1318         0.413163   
     26. A(O   1,C   0,C   3)          111.5249         0.369222   
     27. A(C   4,C   3,F  10)          107.4072         0.373095   
     28. A(C   0,C   3,C   4)          113.1687         0.341363   
     29. A(C   0,C   3,F  10)          110.2099         0.363632   
     30. A(C   5,C   4,F  11)          108.0911         0.380169   
     31. A(C   3,C   4,C   5)          113.5839         0.349005   
     32. A(F  11,C   4,F  12)          108.2194         0.415201   
     33. A(C   5,C   4,F  12)          107.9208         0.379109   
     34. A(C   3,C   4,F  11)          110.2926         0.381351   
     35. A(C   3,C   4,F  12)          108.5818         0.380286   
     36. A(C   4,C   5,C   6)          113.9128         0.347536   
     37. A(C   6,C   5,F  14)          107.7906         0.380059   
     38. A(C   4,C   5,F  13)          109.2282         0.380779   
     39. A(C   6,C   5,F  13)          108.2026         0.380308   
     40. A(F  13,C   5,F  14)          109.0206         0.417483   
     41. A(C   4,C   5,F  14)          108.5900         0.380529   
     42. A(C   5,C   6,C   7)          113.2023         0.346660   
     43. A(F  15,C   6,F  16)          108.8752         0.417862   
     44. A(C   7,C   6,F  16)          108.2186         0.379927   
     45. A(C   5,C   6,F  16)          109.1523         0.380446   
     46. A(C   7,C   6,F  15)          108.4284         0.379738   
     47. A(C   5,C   6,F  15)          108.8835         0.380256   
     48. A(C   8,C   7,F  18)          108.6915         0.380579   
     49. A(C   6,C   7,F  18)          108.6955         0.379828   
     50. A(C   8,C   7,F  17)          108.1296         0.380723   
     51. A(C   6,C   7,F  17)          109.2524         0.379972   
     52. A(C   6,C   7,C   8)          113.2298         0.346865   
     53. A(F  17,C   7,F  18)          108.7561         0.418014   
     54. A(F  19,C   8,F  20)          108.8987         0.418476   
     55. A(C   7,C   8,C   9)          114.1471         0.348078   
     56. A(C   9,C   8,F  20)          107.7127         0.381912   
     57. A(C   7,C   8,F  20)          109.0521         0.381293   
     58. A(C   9,C   8,F  19)          107.4499         0.381036   
     59. A(C   7,C   8,F  19)          109.4572         0.380419   
     60. A(F  22,C   9,F  23)          108.6464         0.426961   
     61. A(F  21,C   9,F  23)          109.0552         0.426394   
     62. A(C   8,C   9,F  23)          110.9604         0.385362   
     63. A(F  21,C   9,F  22)          108.6877         0.426061   
     64. A(C   8,C   9,F  22)          108.6349         0.385069   
     65. A(C   8,C   9,F  21)          110.7995         0.384572   
     66. D(C   4,C   3,C   0,O   1)   -131.0839         0.006172   
     67. D(F  10,C   3,C   0,O   1)    108.6317         0.006172   
     68. D(C   4,C   3,C   0,O   2)     49.8076         0.006172   
     69. D(F  10,C   3,C   0,O   2)    -70.4768         0.006172   
     70. D(C   5,C   4,C   3,C   0)    148.6429         0.008543   
     71. D(F  11,C   4,C   3,C   0)    -89.8453         0.008543   
     72. D(F  12,C   4,C   3,C   0)     28.5784         0.008543   
     73. D(F  11,C   4,C   3,F  10)     32.0233         0.008543   
     74. D(C   5,C   4,C   3,F  10)    -89.4885         0.008543   
     75. D(F  13,C   5,C   4,F  11)    162.3014         0.008811   
     76. D(C   6,C   5,C   4,F  12)    -75.6292         0.008811   
     77. D(C   6,C   5,C   4,F  11)     41.2001         0.008811   
     78. D(F  13,C   5,C   4,C   3)    -74.9661         0.008811   
     79. D(F  13,C   5,C   4,F  12)     45.4721         0.008811   
     80. D(C   6,C   5,C   4,C   3)    163.9326         0.008811   
     81. D(F  15,C   6,C   5,F  14)     44.2190         0.008700   
     82. D(F  15,C   6,C   5,F  13)    161.9826         0.008700   
     83. D(F  15,C   6,C   5,C   4)    -76.3465         0.008700   
     84. D(C   7,C   6,C   5,F  14)    -76.4529         0.008700   
     85. D(C   7,C   6,C   5,F  13)     41.3107         0.008700   
     86. D(C   7,C   6,C   5,C   4)    162.9815         0.008700   
     87. D(F  17,C   7,C   6,F  15)    -79.1358         0.008578   
     88. D(F  17,C   7,C   6,C   5)     41.7939         0.008578   
     89. D(C   8,C   7,C   6,F  16)    -76.5134         0.008578   
     90. D(C   8,C   7,C   6,F  15)     41.4341         0.008578   
     91. D(F  17,C   7,C   6,F  16)    162.9167         0.008578   
     92. D(C   8,C   7,C   6,C   5)    162.3638         0.008578   
     93. D(F  19,C   8,C   7,C   6)     41.9584         0.008755   
     94. D(C   9,C   8,C   7,F  18)     41.5227         0.008755   
     95. D(C   9,C   8,C   7,F  17)    -76.3785         0.008755   
     96. D(C   9,C   8,C   7,C   6)    162.4166         0.008755   
     97. D(F  19,C   8,C   7,F  18)    -78.9355         0.008755   
     98. D(F  19,C   8,C   7,F  17)    163.1633         0.008755   
     99. D(F  22,C   9,C   8,F  19)    -69.0724         0.008903   
    100. D(F  22,C   9,C   8,C   7)    169.3552         0.008903   
    101. D(F  21,C   9,C   8,F  20)    -71.2185         0.008903   
    102. D(F  21,C   9,C   8,F  19)    171.5999         0.008903   
    103. D(F  22,C   9,C   8,F  20)     48.1091         0.008903   
    104. D(F  21,C   9,C   8,C   7)     50.0276         0.008903   
    -----------------------------------------------------------------

Number of atoms                         .... 24
Number of degrees of freedom            .... 104


         *************************************************************
         *                GEOMETRY OPTIMIZATION CYCLE   1            *
         *************************************************************
---------------------------------
CARTESIAN COORDINATES (ANGSTROEM)
---------------------------------
  C      4.790427   -0.033866   -0.529943
  O      5.449345   -1.206924   -0.894595
  O      4.978223    1.323071   -0.737377
  C      3.506688   -0.338742    0.376154
  C      2.222300    0.400525   -0.110682
  C      0.900507   -0.386390    0.175703
  C     -0.395261    0.487294    0.065549
  C     -1.705694   -0.364774   -0.068374
  C     -3.005136    0.445345    0.258164
  C     -4.319880   -0.214526   -0.270541
  F      3.741062    0.055286    1.689949
  F      2.125697    1.616868    0.483237
  F      2.314152    0.589704   -1.455769
  F      0.794029   -1.413561   -0.700839
  F      0.958351   -0.884509    1.435093
  F     -0.498373    1.260266    1.173340
  F     -0.299075    1.289513   -1.020911
  F     -1.641790   -1.418189    0.779524
  F     -1.792381   -0.831392   -1.336864
  F     -2.918792    1.679227   -0.295171
  F     -3.119771    0.573780    1.598580
  F     -4.383116   -1.504378    0.089128
  F     -5.365670    0.430529    0.260394
  F     -4.396020   -0.128551   -1.602942

----------------------------
CARTESIAN COORDINATES (A.U.)
----------------------------
  NO LB      ZA    FRAG     MASS         X           Y           Z
   0 C     6.0000    0    12.011    9.052595   -0.063997   -1.001448
   1 O     8.0000    0    15.999   10.297770   -2.280756   -1.690539
   2 O     8.0000    0    15.999    9.407478    2.500242   -1.393441
   3 C     6.0000    0    12.011    6.626679   -0.640129    0.710828
   4 C     6.0000    0    12.011    4.199538    0.756882   -0.209158
   5 C     6.0000    0    12.011    1.701711   -0.730171    0.332031
   6 C     6.0000    0    12.011   -0.746935    0.920852    0.123870
   7 C     6.0000    0    12.011   -3.223294   -0.689323   -0.129207
   8 C     6.0000    0    12.011   -5.678884    0.841580    0.487859
   9 C     6.0000    0    12.011   -8.163391   -0.405395   -0.511248
  10 F     9.0000    0    18.998    7.069582    0.104475    3.193540
  11 F     9.0000    0    18.998    4.016985    3.055437    0.913185
  12 F     9.0000    0    18.998    4.373114    1.114379   -2.751005
  13 F     9.0000    0    18.998    1.500497   -2.671244   -1.324394
  14 F     9.0000    0    18.998    1.811020   -1.671480    2.711934
  15 F     9.0000    0    18.998   -0.941789    2.381557    2.217292
  16 F     9.0000    0    18.998   -0.565170    2.436826   -1.929242
  17 F     9.0000    0    18.998   -3.102534   -2.679989    1.473086
  18 F     9.0000    0    18.998   -3.387110   -1.571102   -2.526306
  19 F     9.0000    0    18.998   -5.515718    3.173280   -0.557793
  20 F     9.0000    0    18.998   -5.895513    1.084287    3.020878
  21 F     9.0000    0    18.998   -8.282888   -2.842862    0.168427
  22 F     9.0000    0    18.998  -10.139646    0.813581    0.492074
  23 F     9.0000    0    18.998   -8.307275   -0.242925   -3.029121

--------------------------------
INTERNAL COORDINATES (ANGSTROEM)
--------------------------------
 C      0   0   0     0.000000000000     0.00000000     0.00000000
 O      1   0   0     1.393990356793     0.00000000     0.00000000
 O      1   2   0     1.385486802956   136.13177198     0.00000000
 C      1   2   3     1.600608594862   111.52489317   181.18992567
 C      4   1   2     1.559863783763   113.16872737   228.91614990
 C      5   4   1     1.564732561934   113.58394786   148.64287440
 C      6   5   4     1.566675459667   113.91280616   163.93256239
 C      7   6   5     1.568817348692   113.20226571   162.98152714
 C      8   7   6     1.565717094808   113.22984595   162.36375422
 C      9   8   7     1.563173062643   114.14707705   162.41661495
 F      4   1   2     1.391490625050   110.20991618   108.63170802
 F      5   4   1     1.357041377479   110.29260564   270.15468021
 F      5   4   1     1.361428031433   108.58179722    28.57841973
 F      6   5   4     1.354527570075   109.22822656   285.03385927
 F      6   5   4     1.355556277776   108.59004089    43.81583148
 F      7   6   5     1.354739297058   108.88346185   283.65347401
 F      7   6   5     1.353957667090   109.15230848    42.38718856
 F      8   7   6     1.353771473879   109.25240264    41.79387651
 F      8   7   6     1.354368423305   108.69554158   283.25540020
 F      9   8   7     1.355028009646   109.45719767    41.95842364
 F      9   8   7     1.351425618925   109.05210362   282.91820052
 F     10   9   8     1.340551089588   110.79953142    50.02756898
 F     10   9   8     1.338530275591   108.63493714   169.35523750
 F     10   9   8     1.337341214598   110.96044107   288.72891896

---------------------------
INTERNAL COORDINATES (A.U.)
---------------------------
 C      0   0   0     0.000000000000     0.00000000     0.00000000
 O      1   0   0     2.634260007667     0.00000000     0.00000000
 O      1   2   0     2.618190619750   136.13177198     0.00000000
 C      1   2   3     3.024711891890   111.52489317   181.18992567
 C      4   1   2     2.947715357535   113.16872737   228.91614990
 C      5   4   1     2.956916014884   113.58394786   148.64287440
 C      6   5   4     2.960587559506   113.91280616   163.93256239
 C      7   6   5     2.964635143173   113.20226571   162.98152714
 C      8   7   6     2.958776512386   113.22984595   162.36375422
 C      9   8   7     2.953968988318   114.14707705   162.41661495
 F      4   1   2     2.629536199263   110.20991618   108.63170802
 F      5   4   1     2.564436555835   110.29260564   270.15468021
 F      5   4   1     2.572726130452   108.58179722    28.57841973
 F      6   5   4     2.559686148288   109.22822656   285.03385927
 F      6   5   4     2.561630124115   108.59004089    43.81583148
 F      7   6   5     2.560086254300   108.88346185   283.65347401
 F      7   6   5     2.558609187723   109.15230848    42.38718856
 F      8   7   6     2.558257333546   109.25240264    41.79387651
 F      8   7   6     2.559385404477   108.69554158   283.25540020
 F      9   8   7     2.560631842023   109.45719767    41.95842364
 F      9   8   7     2.553824310132   109.05210362   282.91820052
 F     10   9   8     2.533274427850   110.79953142    50.02756898
 F     10   9   8     2.529455642830   108.63493714   169.35523750
 F     10   9   8     2.527208643196   110.96044107   288.72891896

---------------------
BASIS SET INFORMATION
---------------------
There are 3 groups of distinct atoms

 Group   1 Type C   : 11s6p2d1f contracted to 5s3p2d1f pattern {62111/411/11/1}
 Group   2 Type O   : 11s6p2d1f contracted to 5s3p2d1f pattern {62111/411/11/1}
 Group   3 Type F   : 11s6p2d1f contracted to 5s3p2d1f pattern {62111/411/11/1}

Atom   0C    basis set group =>   1
Atom   1O    basis set group =>   2
Atom   2O    basis set group =>   2
Atom   3C    basis set group =>   1
Atom   4C    basis set group =>   1
Atom   5C    basis set group =>   1
Atom   6C    basis set group =>   1
Atom   7C    basis set group =>   1
Atom   8C    basis set group =>   1
Atom   9C    basis set group =>   1
Atom  10F    basis set group =>   3
Atom  11F    basis set group =>   3
Atom  12F    basis set group =>   3
Atom  13F    basis set group =>   3
Atom  14F    basis set group =>   3
Atom  15F    basis set group =>   3
Atom  16F    basis set group =>   3
Atom  17F    basis set group =>   3
Atom  18F    basis set group =>   3
Atom  19F    basis set group =>   3
Atom  20F    basis set group =>   3
Atom  21F    basis set group =>   3
Atom  22F    basis set group =>   3
Atom  23F    basis set group =>   3
---------------------------------
AUXILIARY/J BASIS SET INFORMATION
---------------------------------
There are 3 groups of distinct atoms

 Group   1 Type C   : 12s5p4d2f1g contracted to 6s4p3d1f1g pattern {711111/2111/211/2/1}
 Group   2 Type O   : 12s5p4d2f1g contracted to 6s4p3d1f1g pattern {711111/2111/211/2/1}
 Group   3 Type F   : 12s5p4d2f1g contracted to 6s4p3d1f1g pattern {711111/2111/211/2/1}

Atom   0C    basis set group =>   1
Atom   1O    basis set group =>   2
Atom   2O    basis set group =>   2
Atom   3C    basis set group =>   1
Atom   4C    basis set group =>   1
Atom   5C    basis set group =>   1
Atom   6C    basis set group =>   1
Atom   7C    basis set group =>   1
Atom   8C    basis set group =>   1
Atom   9C    basis set group =>   1
Atom  10F    basis set group =>   3
Atom  11F    basis set group =>   3
Atom  12F    basis set group =>   3
Atom  13F    basis set group =>   3
Atom  14F    basis set group =>   3
Atom  15F    basis set group =>   3
Atom  16F    basis set group =>   3
Atom  17F    basis set group =>   3
Atom  18F    basis set group =>   3
Atom  19F    basis set group =>   3
Atom  20F    basis set group =>   3
Atom  21F    basis set group =>   3
Atom  22F    basis set group =>   3
Atom  23F    basis set group =>   3


           ************************************************************
           *        Program running with 20 parallel MPI-processes    *
           *              working on a common directory               *
           ************************************************************
------------------------------------------------------------------------------
                             ORCA STARTUP CALCULATIONS
                           -- RI-GTO INTEGRALS CHOSEN --
------------------------------------------------------------------------------
------------------------------------------------------------------------------
                   ___                                                        
                  /   \      - P O W E R E D   B Y -                         
                 /     \                                                     
                 |  |  |   _    _      __       _____    __    __             
                 |  |  |  | |  | |    /  \     |  _  \  |  |  /  |          
                  \  \/   | |  | |   /    \    | | | |  |  | /  /          
                 / \  \   | |__| |  /  /\  \   | |_| |  |  |/  /          
                |  |  |   |  __  | /  /__\  \  |    /   |      \           
                |  |  |   | |  | | |   __   |  |    \   |  |\   \          
                \     /   | |  | | |  |  |  |  | |\  \  |  | \   \       
                 \___/    |_|  |_| |__|  |__|  |_| \__\ |__|  \__/        
                                                                              
                      - O R C A' S   B I G   F R I E N D -                    
                                      &                                       
                       - I N T E G R A L  F E E D E R -                       
                                                                              
 v1 FN, 2020, v2 2021, v3 2022-2024                                           
------------------------------------------------------------------------------


----------------------
SHARK INTEGRAL PACKAGE
----------------------

Number of atoms                             ...     24
Number of basis functions                   ...    744
Number of shells                            ...    264
Maximum angular momentum                    ...      3
Integral batch strategy                     ... SHARK/LIBINT Hybrid
RI-J (if used) integral strategy            ... SPLIT-RIJ (Revised 2003 algorithm where possible)
Printlevel                                  ...      1
Contraction scheme used                     ... SEGMENTED contraction
Prescreening option                         ... SCHWARTZ
   Thresh                                   ... 2.500e-11
   Tcut                                     ... 2.500e-12
   Tpresel                                  ... 2.500e-12 
Coulomb Range Separation                    ... NOT USED
Exchange Range Separation                   ... NOT USED
Multipole approximations                    ... NOT USED
Finite Nucleus Model                        ... NOT USED
CABS basis                                  ... NOT available
Auxiliary Coulomb fitting basis             ... AVAILABLE
   # of basis functions in Aux-J            ...   1176
   # of shells in Aux-J                     ...    360
   Maximum angular momentum in Aux-J        ...      4
Auxiliary J/K fitting basis                 ... NOT available
Auxiliary Correlation fitting basis         ... NOT available
Auxiliary 'external' fitting basis          ... NOT available

Checking pre-screening integrals            ... done (  0.0 sec) Dimension = 264
Check shell pair data                       ... done (  0.0 sec)
Shell pair information
Shell pair cut-off parameter TPreSel        ...   2.5e-12
Total number of shell pairs                 ...     34980
Shell pairs after pre-screening             ...     21730
Total number of primitive shell pairs       ...    115968
Primitive shell pairs kept                  ...     46208
          la=0 lb=0:   4056 shell pairs
          la=1 lb=0:   5906 shell pairs
          la=1 lb=1:   2069 shell pairs
          la=2 lb=0:   3229 shell pairs
          la=2 lb=1:   2393 shell pairs
          la=2 lb=2:    680 shell pairs
          la=3 lb=0:   1466 shell pairs
          la=3 lb=1:   1159 shell pairs
          la=3 lb=2:    623 shell pairs
          la=3 lb=3:    149 shell pairs

Calculating one electron integrals          ... done (  0.0 sec)
Calculating RI/J V-Matrix + Cholesky decomp.... done (  0.1 sec)
Calculating Nuclear repulsion               ... done (  0.0 sec) ENN=   2620.123499878366 Eh

Diagonalization of the overlap matrix:
Smallest eigenvalue                        ... 6.364e-05
Time for diagonalization                   ...    0.115 sec
Threshold for overlap eigenvalues          ... 1.000e-07
Number of eigenvalues below threshold      ... 0
Time for construction of square roots      ...    0.053 sec
Total time needed                          ...    0.173 sec

-------------------
DFT GRID GENERATION
-------------------

General Integration Accuracy     IntAcc      ... 4.388
Radial Grid Type                 RadialGrid  ... OptM3 with GC (2021)
Angular Grid (max. ang.)         AngularGrid ... 4 (Lebedev-302)
Angular grid pruning method      GridPruning ... 4 (adaptive)
Weight generation scheme         WeightScheme... mBecke (2022)
Basis function cutoff            BFCut       ... 1.0000e-11
Integration weight cutoff        WCut        ... 1.0000e-14
Partially contracted basis set               ... off
Rotationally invariant grid construction     ... off
Angular grids for H and He will be reduced by one unit

Total number of grid points                  ...   145478
Total number of batches                      ...     2285
Average number of points per batch           ...       63
Average number of grid points per atom       ...     6062

--------------------
COSX GRID GENERATION
--------------------

GRIDX 1
-------
General Integration Accuracy     IntAcc      ... 3.816
Radial Grid Type                 RadialGrid  ... OptM3 with GC (2021)
Angular Grid (max. ang.)         AngularGrid ... 1 (Lebedev-50)
Angular grid pruning method      GridPruning ... 4 (adaptive)
Weight generation scheme         WeightScheme... mBecke (2022)
Basis function cutoff            BFCut       ... 1.0000e-11
Integration weight cutoff        WCut        ... 1.0000e-14
Partially contracted basis set               ... on
Rotationally invariant grid construction     ... off
Angular grids for H and He will be reduced by one unit

Total number of grid points                  ...    18283
Total number of batches                      ...      153
Average number of points per batch           ...      119
Average number of grid points per atom       ...      762
UseSFitting                                  ... on

GRIDX 2
-------
General Integration Accuracy     IntAcc      ... 4.020
Radial Grid Type                 RadialGrid  ... OptM3 with GC (2021)
Angular Grid (max. ang.)         AngularGrid ... 2 (Lebedev-110)
Angular grid pruning method      GridPruning ... 4 (adaptive)
Weight generation scheme         WeightScheme... mBecke (2022)
Basis function cutoff            BFCut       ... 1.0000e-11
Integration weight cutoff        WCut        ... 1.0000e-14
Partially contracted basis set               ... on
Rotationally invariant grid construction     ... off
Angular grids for H and He will be reduced by one unit

Total number of grid points                  ...    43348
Total number of batches                      ...      352
Average number of points per batch           ...      123
Average number of grid points per atom       ...     1806
UseSFitting                                  ... on

GRIDX 3
-------
General Integration Accuracy     IntAcc      ... 4.338
Radial Grid Type                 RadialGrid  ... OptM3 with GC (2021)
Angular Grid (max. ang.)         AngularGrid ... 3 (Lebedev-194)
Angular grid pruning method      GridPruning ... 4 (adaptive)
Weight generation scheme         WeightScheme... mBecke (2022)
Basis function cutoff            BFCut       ... 1.0000e-11
Integration weight cutoff        WCut        ... 1.0000e-14
Partially contracted basis set               ... on
Rotationally invariant grid construction     ... off
Angular grids for H and He will be reduced by one unit

Total number of grid points                  ...    96052
Total number of batches                      ...      759
Average number of points per batch           ...      126
Average number of grid points per atom       ...     4002
UseSFitting                                  ... on
Initializing property integral containers    ... done (  0.0 sec)

SHARK setup successfully completed in   3.6 seconds

Maximum memory used throughout the entire STARTUP-calculation: 56.8 MB


           ************************************************************
           *        Program running with 20 parallel MPI-processes    *
           *              working on a common directory               *
           ************************************************************
-------------------------------------------------------------------------------
                                 ORCA GUESS
                   Start orbitals & Density for SCF / CASSCF
-------------------------------------------------------------------------------

------------
SCF SETTINGS
------------
Hamiltonian:
 Density Functional     Method          .... DFT(GTOs)
  Functional kind                       .... Exchange
  Functional name                       .... Re-regularized SCAN exchange by Furness et al
  Functional family                     .... MGGA
  Functional refs                              
    [ 0] J. W. Furness, A. D. Kaplan, J. Ning, J. P. Perdew, and J. Sun.,  J. Phys. Chem. Lett. 11, 8208-8215 (2020), doi: 10.1021/acs.jpclett.0c02405
    [ 1] J. W. Furness, A. D. Kaplan, J. Ning, J. P. Perdew, and J. Sun.,  J. Phys. Chem. Lett. 11, 9248-9248 (2020), doi: 10.1021/acs.jpclett.0c03077
  Functional external parameters        .... 6
    Parameter  0 _c1        =  6.670000e-01 : c1 parameter        
    Parameter  1 _c2        =  8.000000e-01 : c2 parameter        
    Parameter  2 _d         =  1.240000e+00 : d parameter         
    Parameter  3 _k1        =  6.500000e-02 : k1 parameter        
    Parameter  4 _eta       =  1.000000e-03 : eta parameter       
    Parameter  5 _dp2       =  3.610000e-01 : dp2 parameter       
  Functional kind                       .... Correlation
  Functional name                       .... Re-regularized SCAN correlation by Furness et al
  Functional family                     .... MGGA
  Functional refs                              
    [ 0] J. W. Furness, A. D. Kaplan, J. Ning, J. P. Perdew, and J. Sun.,  J. Phys. Chem. Lett. 11, 8208-8215 (2020), doi: 10.1021/acs.jpclett.0c02405
    [ 1] J. W. Furness, A. D. Kaplan, J. Ning, J. P. Perdew, and J. Sun.,  J. Phys. Chem. Lett. 11, 9248-9248 (2020), doi: 10.1021/acs.jpclett.0c03077
  Functional external parameters        .... 1
    Parameter  0 _eta       =  1.000000e-03 : Regularization parameter
 Gradients option       PostSCFGGA      .... off
 Hybrid DFT is turned on
   Fraction HF Exchange ScalHFX         ....  0.100000
   Scaling of DF-GGA-X  ScalDFX         ....  0.900000
   Scaling of DF-GGA-C  ScalDFC         ....  1.000000
   Scaling of DF-LDA-C  ScalLDAC        ....  1.000000
   Perturbative correction              ....  0.000000
   NL short-range parameter             .... 11.900000
 RI-approximation to the Coulomb term is turned on
   Number of AuxJ basis functions       .... 1176
   RIJ-COSX (HFX calculated with COS-X)).... on


General Settings:
 Integral files         IntName         .... rf_mecn_opt_r2s_C2_D_B_01
 Hartree-Fock type      HFTyp           .... UHF
 Total Charge           Charge          ....   -1
 Multiplicity           Mult            ....    2
 Number of Electrons    NEL             ....  191
 Basis Dimension        Dim             ....  744
 Nuclear Repulsion      ENuc            ....   2620.1234998784 Eh

Convergence Acceleration:
 AO-DIIS                CNVDIIS         .... on
   Start iteration      DIISMaxIt       ....     0
   Startup error        DIISStart       ....  0.200000
   # of expansion vecs  DIISMaxEq       ....     5
   Bias factor          DIISBfac        ....   1.050
   Max. coefficient     DIISMaxC        ....  10.000
 MO-DIIS                CNVKDIIS        .... off
 Trust-Rad. Augm. Hess. CNVTRAH         .... auto
   Auto Start mean grad. ratio tolernc. ....  1.125000
   Auto Start start iteration           ....    50
   Auto Start num. interpolation iter.  ....    10
   Max. Number of Micro iterations      ....    24
   Max. Number of Macro iterations      .... Maxiter - #DIIS iter
   Number of Davidson start vectors     ....     2
   Converg. threshold    (grad. norm)   ....   1.000e-05
   Grad. Scal. Fac. for Micro threshold ....   0.100
   Minimum threshold for Micro iter.    ....   1.000e-02
   NR start threshold (gradient norm)   ....   1.000e-04
   Initial trust radius                 ....   0.400
   Minimum AH scaling param. (alpha)    ....   1.000
   Maximum AH scaling param. (alpha)    .... 1000.000
   Quad. conv. algorithm                .... NR
   White noise on init. David. guess    .... on
   Maximum white noise                  ....   0.010
   Pseudo random numbers                .... off
   Inactive MOs                         .... canonical
   Orbital update algorithm             .... Taylor
   Preconditioner                       .... Diag
   Full preconditioner red. dimension   ....   250
 SOSCF                  CNVSOSCF        .... on
   Start iteration      SOSCFMaxIt      ....   150
   Startup grad/error   SOSCFStart      ....  0.001000
   Hessian update       SOSCFHessUp     .... L-BFGS
 Level Shifting         CNVShift        .... on
   Level shift para.    LevelShift      ....    0.2500
   Turn off err/grad.   ShiftErr        ....    0.0000
 Zerner damping         CNVZerner       .... off
 Static damping         CNVDamp         .... on
   Fraction old density DampFac         ....    0.8500
   Max. Damping (<1)    DampMax         ....    0.9800
   Min. Damping (>=0)   DampMin         ....    0.0000
   Turn off err/grad.   DampErr         ....    0.0300

SCF Procedure:
 Maximum # iterations   MaxIter         ....  1500
 SCF integral mode      SCFMode         .... Direct
   Integral package                     .... SHARK and LIBINT hybrid scheme
 Reset frequency        DirectResetFreq ....    20
 Integral Threshold     Thresh          ....  2.500e-11 Eh
 Primitive CutOff       TCut            ....  2.500e-12 Eh

Convergence Tolerance:
 Convergence Check Mode ConvCheckMode   .... Total+1el-Energy
 Convergence forced     ConvForced      .... 0
 Energy Change          TolE            ....  1.000e-08 Eh
 1-El. energy change                    ....  1.000e-05 Eh
 Orbital Gradient       TolG            ....  1.000e-05
 Orbital Rotation angle TolX            ....  1.000e-05
 DIIS Error             TolErr          ....  5.000e-07

------------------------------
INITIAL GUESS: MODEL POTENTIAL
------------------------------
Loading Hartree-Fock densities                     ... done
Calculating cut-offs                               ... done
Initializing the effective Hamiltonian             ... done
Setting up the integral package (SHARK)            ... done
Starting the Coulomb interaction                   ... done (   0.2 sec)
Making the grid                                    ... done (   0.5 sec)
Mapping shells                                     ... done
Starting the XC term evaluation                    ... done (   0.2 sec)
  promolecular density results
     # of electrons  =    190.000242820
     EX              =   -197.028222660
     EC              =     -6.649120774
     EX+EC           =   -203.677343434
Transforming the Hamiltonian                       ... done (   0.0 sec)
Diagonalizing the Hamiltonian                      ... done (   0.1 sec)
Back transforming the eigenvectors                 ... done (   0.0 sec)
Now organizing SCF variables                       ... done
                      ------------------
                      INITIAL GUESS DONE (   1.1 sec)
                      ------------------
             **** ENERGY FILE WAS UPDATED (rf_mecn_opt_r2s_C2_D_B_01.en.tmp) ****
Finished Guess after   1.9 sec
Maximum memory used throughout the entire GUESS-calculation: 45.3 MB


           ************************************************************
           *        Program running with 20 parallel MPI-processes    *
           *              working on a common directory               *
           ************************************************************

-------------------------------------------------------------------------------------------
                                      ORCA LEAN-SCF
                              memory conserving SCF solver
-------------------------------------------------------------------------------------------

--------------------
CPCM SOLVATION MODEL
--------------------
CPCM parameters:
  Epsilon                                         ...      35.6880
  Refrac                                          ...       1.3442
  Rsolv                                           ...       1.3000
  Surface type                                    ... GAUSSIAN VDW
  Discretization scheme                           ... Constant charge density
    Threshold for H atoms                         ...       5.0000 (charges/Ang^2)
    Threshold for non-H atoms                     ...       5.0000 (charges/Ang^2)
  Epsilon function type                           ...         CPCM
Solvent:                                          ... ACETONITRILE
SMD-CDS solvent descriptors:
  Soln                                            ...       1.3442
  Soln25                                          ...       1.3416
  Sola                                            ...       0.0700
  Solb                                            ...       0.3200
  Solg                                            ...      41.2500
  Solc                                            ...       0.0000
  Solh                                            ...       0.0000
Radii:
  Scheme                                          ... Element-dependent radii
  Radius for C  used is    3.4960 Bohr (=   1.8500 Ang.)
  Radius for O  used is    4.0969 Bohr (=   2.1680 Ang.)
  Radius for F  used is    3.2692 Bohr (=   1.7300 Ang.)
Calculating surface                               ...        done! (  0.0s)
Cavity surface points                             ...         2143
Cavity Volume                                     ...    2140.3040
Cavity Surface-area                               ...    1123.3307
Calculating surface distance matrix               ...        done! (  0.0s)
Performing Cholesky decomposition & store         ...        done! (  0.1s)
Overall time for CPCM initialization              ...                 0.1s

----------------------------------------D-I-I-S--------------------------------------------
Iteration    Energy (Eh)           Delta-E    RMSDP     MaxDP     DIISErr   Damp  Time(sec)
-------------------------------------------------------------------------------------------
               ***  Starting incremental Fock matrix formation  ***
    1    -1852.5886519262376169     0.00e+00  2.69e-04  3.55e-02  1.58e-01  0.850   7.9
Warning: op=0 Small HOMO/LUMO gap (   0.043) - skipping pre-diagonalization
         Will do a full diagonalization
    2    -1852.7342779302034614    -1.46e-01  3.35e-04  6.81e-02  1.06e-01  0.850   5.3
                               ***Turning on AO-DIIS***
    3    -1852.8099725136826237    -7.57e-02  1.56e-04  3.01e-02  5.89e-02  0.850   4.6
    4    -1852.8541826917125945    -4.42e-02  8.12e-05  1.03e-02  4.29e-02  0.850   4.7
    5    -1852.8855047351935355    -3.13e-02  5.48e-05  3.87e-03  3.62e-02  0.850   4.4
    6    -1852.9103839624222019    -2.49e-02  4.56e-05  3.88e-03  3.18e-02  0.850   4.2
    7    -1852.9312453224811179    -2.09e-02  4.15e-05  3.67e-03  2.77e-02  0.850   4.0
    8    -1852.9491243843895063    -1.79e-02  2.49e-04  2.17e-02  2.30e-02  0.000   4.2
    9    -1853.0437681641506060    -9.46e-02  3.10e-05  3.18e-03  4.98e-03  0.000   4.6
   10    -1853.0440976106638118    -3.29e-04  1.54e-05  2.42e-03  3.88e-03  0.000   4.0
   11    -1853.0442813726131135    -1.84e-04  1.17e-05  2.26e-03  1.15e-03  0.000   3.8
                              *** Initializing SOSCF ***
---------------------------------------S-O-S-C-F--------------------------------------
Iteration    Energy (Eh)           Delta-E    RMSDP     MaxDP     MaxGrad    Time(sec)
--------------------------------------------------------------------------------------
   12    -1853.0443311228918901    -4.98e-05  8.04e-06  9.54e-04  8.76e-04     4.2
               *** Restarting incremental Fock matrix formation ***
   13    -1853.0443615833992226    -3.05e-05  1.09e-05  1.33e-03  1.37e-03     7.4
   14    -1853.0443743181967875    -1.27e-05  1.22e-05  1.06e-03  5.53e-04     4.8
   15    -1853.0443723318949196     1.99e-06  6.35e-06  5.43e-04  8.85e-04     5.1
   16    -1853.0443803145690254    -7.98e-06  6.48e-06  9.57e-04  3.09e-04     4.6
   17    -1853.0443784494345891     1.87e-06  3.50e-06  3.84e-04  5.70e-04     4.6
   18    -1853.0443816606721157    -3.21e-06  1.68e-06  1.92e-04  6.84e-05     4.4
   19    -1853.0443816250381133     3.56e-08  1.00e-06  1.23e-04  4.56e-05     4.2
   20    -1853.0443818337207631    -2.09e-07  2.34e-07  4.78e-05  3.96e-06     4.0
   21    -1853.0443818100575299     2.37e-08  9.07e-08  1.27e-05  3.35e-06     3.9
   22    -1853.0443818049197944     5.14e-09  1.12e-07  8.64e-06  1.03e-06     3.6
                 **** Energy Check signals convergence ****

               *****************************************************
               *                     SUCCESS                       *
               *           SCF CONVERGED AFTER  22 CYCLES          *
               *****************************************************

Recomputing exchange energy using gridx3       ... done (    8.494 sec)
Old exchange energy                            :    -19.873705792 Eh
New exchange energy                            :    -19.873709561 Eh
Exchange energy change after final integration :     -0.000003769 Eh
Total energy after final integration           :  -1853.044385574 Eh

SMD CDS free energy correction energy :                 3.56261     Kcal/mol
Total Energy after SMD CDS correction =             -1853.038708201 Eh
             **** ENERGY FILE WAS UPDATED (rf_mecn_opt_r2s_C2_D_B_01.en.tmp) ****

----------------
TOTAL SCF ENERGY
----------------

Total Energy       :      -1853.03870820129259 Eh          -50423.74674 eV

Components:
Nuclear Repulsion  :       2620.12349987836569 Eh           71297.18511 eV
Electronic Energy  :      -4473.08572334404107 Eh         -121718.85060 eV
One Electron Energy:      -7814.01738190608194 Eh         -212630.22287 eV
Two Electron Energy:       3340.93165856204087 Eh           90911.37227 eV
CPCM Dielectric    :         -0.08215833924416 Eh              -2.23564 eV
SMD CDS (Gcds)     :          0.00567737277087 Eh               0.15449 eV

Virial components:
Potential Energy   :      -3698.56884740742362 Eh         -100643.17494 eV
Kinetic Energy     :       1845.53013920613103 Eh           50219.42819 eV
Virial Ratio       :          2.00406851605165

DFT components:
N(Alpha)           :       95.999981764083 electrons
N(Beta)            :       94.999974737256 electrons
N(Total)           :      190.999956501339 electrons
E(X)               :     -179.879148948121 Eh       
E(C)               :       -6.628666535555 Eh       
E(XC)              :     -186.507815483676 Eh       

CPCM Solvation Model Properties:
Surface-charge          :          0.99031820823993
Corrected charge        :          1.00000000000000
Outlying charge corr.   :          0.00000509582171 Eh               0.00014 eV
Free-energy (cav+disp)  :          0.00567737277087 Eh               0.15449 eV

---------------
SCF CONVERGENCE
---------------

  Last Energy change         ...   -5.1377e-09  Tolerance :   1.0000e-08
  Last MAX-Density change    ...    8.6369e-06  Tolerance :   1.0000e-07
  Last RMS-Density change    ...    1.1212e-07  Tolerance :   5.0000e-09
  Last DIIS Error            ...    8.7609e-04  Tolerance :   5.0000e-07
  Last Orbital Gradient      ...    1.0255e-06  Tolerance :   1.0000e-05
  Last Orbital Rotation      ...    9.3710e-06  Tolerance :   1.0000e-05


----------------------
UHF SPIN CONTAMINATION
----------------------

Warning: in a DFT calculation there is little theoretical justification to 
         calculate <S**2> as in Hartree-Fock theory. We will do it anyways
         but you should keep in mind that the values have only limited relevance

Expectation value of <S**2>     :     0.756091
Ideal value S*(S+1) for S=0.5   :     0.750000
Deviation                       :     0.006091

----------------
ORBITAL ENERGIES
----------------
                 SPIN UP ORBITALS
  NO   OCC          E(Eh)            E(eV) 
   0   1.0000     -24.732936      -673.0174 
   1   1.0000     -24.731932      -672.9901 
   2   1.0000     -24.731926      -672.9899 
   3   1.0000     -24.731731      -672.9846 
   4   1.0000     -24.731453      -672.9771 
   5   1.0000     -24.731314      -672.9733 
   6   1.0000     -24.730861      -672.9609 
   7   1.0000     -24.728308      -672.8915 
   8   1.0000     -24.727977      -672.8825 
   9   1.0000     -24.724196      -672.7796 
  10   1.0000     -24.722080      -672.7220 
  11   1.0000     -24.708392      -672.3495 
  12   1.0000     -24.704552      -672.2450 
  13   1.0000     -24.690404      -671.8600 
  14   1.0000     -19.081625      -519.2374 
  15   1.0000     -19.072375      -518.9857 
  16   1.0000     -10.444663      -284.2137 
  17   1.0000     -10.391491      -282.7668 
  18   1.0000     -10.390858      -282.7496 
  19   1.0000     -10.386990      -282.6444 
  20   1.0000     -10.377436      -282.3844 
  21   1.0000     -10.362975      -281.9909 
  22   1.0000     -10.278747      -279.6989 
  23   1.0000     -10.274191      -279.5750 
  24   1.0000      -1.354814       -36.8664 
  25   1.0000      -1.330589       -36.2072 
  26   1.0000      -1.315317       -35.7916 
  27   1.0000      -1.308367       -35.6025 
  28   1.0000      -1.303371       -35.4665 
  29   1.0000      -1.288551       -35.0633 
  30   1.0000      -1.269425       -34.5428 
  31   1.0000      -1.263526       -34.3823 
  32   1.0000      -1.262721       -34.3604 
  33   1.0000      -1.255978       -34.1769 
  34   1.0000      -1.252861       -34.0921 
  35   1.0000      -1.248205       -33.9654 
  36   1.0000      -1.233975       -33.5782 
  37   1.0000      -1.226434       -33.3730 
  38   1.0000      -0.965044       -26.2602 
  39   1.0000      -0.905109       -24.6293 
  40   1.0000      -0.843884       -22.9632 
  41   1.0000      -0.819871       -22.3098 
  42   1.0000      -0.789064       -21.4715 
  43   1.0000      -0.749561       -20.3966 
  44   1.0000      -0.705440       -19.1960 
  45   1.0000      -0.677469       -18.4349 
  46   1.0000      -0.655432       -17.8352 
  47   1.0000      -0.636984       -17.3332 
  48   1.0000      -0.631998       -17.1976 
  49   1.0000      -0.625823       -17.0295 
  50   1.0000      -0.614816       -16.7300 
  51   1.0000      -0.610473       -16.6118 
  52   1.0000      -0.607057       -16.5189 
  53   1.0000      -0.597027       -16.2459 
  54   1.0000      -0.590220       -16.0607 
  55   1.0000      -0.583697       -15.8832 
  56   1.0000      -0.581110       -15.8128 
  57   1.0000      -0.569809       -15.5053 
  58   1.0000      -0.561494       -15.2790 
  59   1.0000      -0.548510       -14.9257 
  60   1.0000      -0.532044       -14.4777 
  61   1.0000      -0.501089       -13.6353 
  62   1.0000      -0.497294       -13.5321 
  63   1.0000      -0.491664       -13.3788 
  64   1.0000      -0.487167       -13.2565 
  65   1.0000      -0.484660       -13.1883 
  66   1.0000      -0.480959       -13.0876 
  67   1.0000      -0.474672       -12.9165 
  68   1.0000      -0.471891       -12.8408 
  69   1.0000      -0.468288       -12.7428 
  70   1.0000      -0.466326       -12.6894 
  71   1.0000      -0.462149       -12.5757 
  72   1.0000      -0.459264       -12.4972 
  73   1.0000      -0.449384       -12.2284 
  74   1.0000      -0.448452       -12.2030 
  75   1.0000      -0.441666       -12.0184 
  76   1.0000      -0.439196       -11.9511 
  77   1.0000      -0.438022       -11.9192 
  78   1.0000      -0.434887       -11.8339 
  79   1.0000      -0.433607       -11.7990 
  80   1.0000      -0.429279       -11.6813 
  81   1.0000      -0.428657       -11.6644 
  82   1.0000      -0.427527       -11.6336 
  83   1.0000      -0.425888       -11.5890 
  84   1.0000      -0.418823       -11.3968 
  85   1.0000      -0.413828       -11.2608 
  86   1.0000      -0.405963       -11.0468 
  87   1.0000      -0.388757       -10.5786 
  88   1.0000      -0.382076       -10.3968 
  89   1.0000      -0.362494        -9.8640 
  90   1.0000      -0.338199        -9.2029 
  91   1.0000      -0.328733        -8.9453 
  92   1.0000      -0.272713        -7.4209 
  93   1.0000      -0.242333        -6.5942 
  94   1.0000      -0.227505        -6.1907 
  95   1.0000      -0.221968        -6.0401 
  96   0.0000      -0.030604        -0.8328 
  97   0.0000      -0.015024        -0.4088 
  98   0.0000      -0.002916        -0.0793 
  99   0.0000       0.031548         0.8585 
 100   0.0000       0.050021         1.3611 
 101   0.0000       0.082387         2.2419 
 102   0.0000       0.097443         2.6516 
 103   0.0000       0.106869         2.9080 
 104   0.0000       0.110538         3.0079 
 105   0.0000       0.123915         3.3719 
 106   0.0000       0.126608         3.4452 

                 SPIN DOWN ORBITALS
  NO   OCC          E(Eh)            E(eV) 
   0   1.0000     -24.732936      -673.0174 
   1   1.0000     -24.731932      -672.9901 
   2   1.0000     -24.731926      -672.9899 
   3   1.0000     -24.731731      -672.9846 
   4   1.0000     -24.731453      -672.9770 
   5   1.0000     -24.731314      -672.9733 
   6   1.0000     -24.730860      -672.9609 
   7   1.0000     -24.728305      -672.8914 
   8   1.0000     -24.727976      -672.8824 
   9   1.0000     -24.724167      -672.7788 
  10   1.0000     -24.722007      -672.7200 
  11   1.0000     -24.707399      -672.3225 
  12   1.0000     -24.704391      -672.2406 
  13   1.0000     -24.686563      -671.7555 
  14   1.0000     -19.078271      -519.1462 
  15   1.0000     -19.072105      -518.9784 
  16   1.0000     -10.444662      -284.2137 
  17   1.0000     -10.391489      -282.7668 
  18   1.0000     -10.390857      -282.7496 
  19   1.0000     -10.387001      -282.6447 
  20   1.0000     -10.377328      -282.3814 
  21   1.0000     -10.362738      -281.9844 
  22   1.0000     -10.278800      -279.7004 
  23   1.0000     -10.257490      -279.1205 
  24   1.0000      -1.354814       -36.8664 
  25   1.0000      -1.330558       -36.2063 
  26   1.0000      -1.315219       -35.7889 
  27   1.0000      -1.308341       -35.6018 
  28   1.0000      -1.303274       -35.4639 
  29   1.0000      -1.287286       -35.0288 
  30   1.0000      -1.269422       -34.5427 
  31   1.0000      -1.263524       -34.3822 
  32   1.0000      -1.262700       -34.3598 
  33   1.0000      -1.255932       -34.1757 
  34   1.0000      -1.252838       -34.0914 
  35   1.0000      -1.248085       -33.9621 
  36   1.0000      -1.231991       -33.5242 
  37   1.0000      -1.220093       -33.2004 
  38   1.0000      -0.961633       -26.1674 
  39   1.0000      -0.902073       -24.5467 
  40   1.0000      -0.843791       -22.9607 
  41   1.0000      -0.818804       -22.2808 
  42   1.0000      -0.784715       -21.3532 
  43   1.0000      -0.742089       -20.1933 
  44   1.0000      -0.699696       -19.0397 
  45   1.0000      -0.675252       -18.3745 
  46   1.0000      -0.649473       -17.6731 
  47   1.0000      -0.636901       -17.3310 
  48   1.0000      -0.631258       -17.1774 
  49   1.0000      -0.625798       -17.0288 
  50   1.0000      -0.614607       -16.7243 
  51   1.0000      -0.610004       -16.5990 
  52   1.0000      -0.605685       -16.4815 
  53   1.0000      -0.596795       -16.2396 
  54   1.0000      -0.589750       -16.0479 
  55   1.0000      -0.582537       -15.8516 
  56   1.0000      -0.580169       -15.7872 
  57   1.0000      -0.569283       -15.4910 
  58   1.0000      -0.560444       -15.2505 
  59   1.0000      -0.544719       -14.8226 
  60   1.0000      -0.526051       -14.3146 
  61   1.0000      -0.501024       -13.6336 
  62   1.0000      -0.497262       -13.5312 
  63   1.0000      -0.491619       -13.3776 
  64   1.0000      -0.486886       -13.2488 
  65   1.0000      -0.484640       -13.1877 
  66   1.0000      -0.480296       -13.0695 
  67   1.0000      -0.474098       -12.9009 
  68   1.0000      -0.471106       -12.8195 
  69   1.0000      -0.466222       -12.6866 
  70   1.0000      -0.462618       -12.5885 
  71   1.0000      -0.460924       -12.5424 
  72   1.0000      -0.454113       -12.3570 
  73   1.0000      -0.448530       -12.2051 
  74   1.0000      -0.443426       -12.0662 
  75   1.0000      -0.438943       -11.9442 
  76   1.0000      -0.437929       -11.9167 
  77   1.0000      -0.436347       -11.8736 
  78   1.0000      -0.433815       -11.8047 
  79   1.0000      -0.432036       -11.7563 
  80   1.0000      -0.428675       -11.6648 
  81   1.0000      -0.427089       -11.6217 
  82   1.0000      -0.425008       -11.5651 
  83   1.0000      -0.422327       -11.4921 
  84   1.0000      -0.417945       -11.3729 
  85   1.0000      -0.411408       -11.1950 
  86   1.0000      -0.404770       -11.0143 
  87   1.0000      -0.386577       -10.5193 
  88   1.0000      -0.378707       -10.3052 
  89   1.0000      -0.359601        -9.7852 
  90   1.0000      -0.337483        -9.1834 
  91   1.0000      -0.325537        -8.8583 
  92   1.0000      -0.240489        -6.5440 
  93   1.0000      -0.236831        -6.4445 
  94   1.0000      -0.220717        -6.0060 
  95   0.0000      -0.091913        -2.5011 
  96   0.0000      -0.028369        -0.7720 
  97   0.0000      -0.011561        -0.3146 
  98   0.0000      -0.002429        -0.0661 
  99   0.0000       0.032155         0.8750 
 100   0.0000       0.055294         1.5046 
 101   0.0000       0.084138         2.2895 
 102   0.0000       0.103467         2.8155 
 103   0.0000       0.109084         2.9683 
 104   0.0000       0.111551         3.0354 
 105   0.0000       0.125004         3.4015 
*Only the first 10 virtual orbitals were printed.

                    ********************************
                    * MULLIKEN POPULATION ANALYSIS *
                    ********************************

--------------------------------------------
MULLIKEN ATOMIC CHARGES AND SPIN POPULATIONS
--------------------------------------------
   0 C :    0.276856   -0.022329
   1 O :   -0.563545    0.004880
   2 O :   -0.540674    0.095424
   3 C :    0.083288    0.841010
   4 C :    0.386839   -0.012565
   5 C :    0.323945    0.008661
   6 C :    0.326909    0.001138
   7 C :    0.300056    0.000131
   8 C :    0.333212    0.000034
   9 C :    0.470425    0.000016
  10 F :   -0.213916    0.060015
  11 F :   -0.186004    0.019692
  12 F :   -0.188713    0.003480
  13 F :   -0.176458    0.000062
  14 F :   -0.175715    0.000331
  15 F :   -0.168170    0.000036
  16 F :   -0.167413   -0.000053
  17 F :   -0.165463    0.000027
  18 F :   -0.165490    0.000003
  19 F :   -0.164313   -0.000001
  20 F :   -0.161015    0.000003
  21 F :   -0.156660   -0.000000
  22 F :   -0.153531    0.000006
  23 F :   -0.154452    0.000000
Sum of atomic charges         :   -1.0000000
Sum of atomic spin populations:    1.0000000

-----------------------------------------------------
MULLIKEN REDUCED ORBITAL CHARGES AND SPIN POPULATIONS
-----------------------------------------------------
CHARGE
  0 C s       :     3.144047  s :     3.144047
      pz      :     0.826067  p :     2.368482
      px      :     0.843702
      py      :     0.698713
      dz2     :     0.012109  d :     0.194285
      dxz     :     0.013728
      dyz     :     0.058373
      dx2y2   :     0.047253
      dxy     :     0.062822
      f0      :     0.001627  f :     0.016330
      f+1     :     0.001033
      f-1     :     0.002055
      f+2     :     0.002413
      f-2     :     0.001674
      f+3     :     0.003527
      f-3     :     0.004002

  1 O s       :     3.874826  s :     3.874826
      pz      :     1.597172  p :     4.664589
      px      :     1.647161
      py      :     1.420256
      dz2     :     0.003024  d :     0.022907
      dxz     :     0.001630
      dyz     :     0.005237
      dx2y2   :     0.005538
      dxy     :     0.007479
      f0      :     0.000110  f :     0.001223
      f+1     :     0.000053
      f-1     :     0.000170
      f+2     :     0.000119
      f-2     :     0.000179
      f+3     :     0.000361
      f-3     :     0.000230

  2 O s       :     3.874239  s :     3.874239
      pz      :     1.619061  p :     4.641870
      px      :     1.712282
      py      :     1.310527
      dz2     :     0.003047  d :     0.023313
      dxz     :     0.000335
      dyz     :     0.005971
      dx2y2   :     0.008662
      dxy     :     0.005299
      f0      :     0.000116  f :     0.001252
      f+1     :     0.000016
      f-1     :     0.000222
      f+2     :     0.000209
      f-2     :     0.000033
      f+3     :     0.000284
      f-3     :     0.000372

  3 C s       :     3.326903  s :     3.326903
      pz      :     0.608094  p :     2.448467
      px      :     0.901431
      py      :     0.938942
      dz2     :     0.031642  d :     0.127587
      dxz     :     0.035765
      dyz     :     0.026729
      dx2y2   :     0.015619
      dxy     :     0.017833
      f0      :     0.003152  f :     0.013754
      f+1     :     0.002999
      f-1     :     0.002574
      f+2     :     0.001479
      f-2     :     0.001663
      f+3     :     0.000987
      f-3     :     0.000900

  4 C s       :     3.106557  s :     3.106557
      pz      :     0.604149  p :     2.199974
      px      :     0.924113
      py      :     0.671712
      dz2     :     0.058572  d :     0.280002
      dxz     :     0.055869
      dyz     :     0.065716
      dx2y2   :     0.040340
      dxy     :     0.059504
      f0      :     0.003463  f :     0.026627
      f+1     :     0.004768
      f-1     :     0.007690
      f+2     :     0.002152
      f-2     :     0.002529
      f+3     :     0.003633
      f-3     :     0.002393

  5 C s       :     3.134199  s :     3.134199
      pz      :     0.579917  p :     2.233561
      px      :     0.942107
      py      :     0.711537
      dz2     :     0.073864  d :     0.281416
      dxz     :     0.059990
      dyz     :     0.058118
      dx2y2   :     0.033533
      dxy     :     0.055912
      f0      :     0.004744  f :     0.026880
      f+1     :     0.004228
      f-1     :     0.005957
      f+2     :     0.003045
      f-2     :     0.004267
      f+3     :     0.002553
      f-3     :     0.002084

  6 C s       :     3.140382  s :     3.140382
      pz      :     0.577779  p :     2.220604
      px      :     0.927521
      py      :     0.715304
      dz2     :     0.080852  d :     0.285072
      dxz     :     0.060813
      dyz     :     0.054260
      dx2y2   :     0.032221
      dxy     :     0.056927
      f0      :     0.005917  f :     0.027033
      f+1     :     0.003817
      f-1     :     0.004198
      f+2     :     0.003940
      f-2     :     0.005130
      f+3     :     0.002103
      f-3     :     0.001929

  7 C s       :     3.149301  s :     3.149301
      pz      :     0.587141  p :     2.237334
      px      :     0.940036
      py      :     0.710157
      dz2     :     0.074680  d :     0.286244
      dxz     :     0.061128
      dyz     :     0.060786
      dx2y2   :     0.032164
      dxy     :     0.057486
      f0      :     0.004574  f :     0.027065
      f+1     :     0.004274
      f-1     :     0.006316
      f+2     :     0.002930
      f-2     :     0.004207
      f+3     :     0.002626
      f-3     :     0.002139

  8 C s       :     3.109866  s :     3.109866
      pz      :     0.617030  p :     2.247459
      px      :     0.940784
      py      :     0.689645
      dz2     :     0.058946  d :     0.282346
      dxz     :     0.059833
      dyz     :     0.072001
      dx2y2   :     0.033239
      dxy     :     0.058327
      f0      :     0.003467  f :     0.027118
      f+1     :     0.004904
      f-1     :     0.008106
      f+2     :     0.002099
      f-2     :     0.002374
      f+3     :     0.003743
      f-3     :     0.002424

  9 C s       :     3.030952  s :     3.030952
      pz      :     0.646691  p :     2.108019
      px      :     0.802497
      py      :     0.658832
      dz2     :     0.066669  d :     0.351300
      dxz     :     0.068478
      dyz     :     0.085465
      dx2y2   :     0.063452
      dxy     :     0.067238
      f0      :     0.004505  f :     0.039304
      f+1     :     0.007836
      f-1     :     0.008788
      f+2     :     0.004346
      f-2     :     0.003044
      f+3     :     0.007307
      f-3     :     0.003477

 10 F s       :     3.930443  s :     3.930443
      pz      :     1.518412  p :     5.268438
      px      :     1.906605
      py      :     1.843420
      dz2     :     0.006167  d :     0.014461
      dxz     :     0.003347
      dyz     :     0.004047
      dx2y2   :     0.000450
      dxy     :     0.000450
      f0      :     0.000208  f :     0.000575
      f+1     :     0.000127
      f-1     :     0.000165
      f+2     :     0.000036
      f-2     :     0.000035
      f+3     :     0.000002
      f-3     :     0.000002

 11 F s       :     3.925881  s :     3.925881
      pz      :     1.813780  p :     5.243219
      px      :     1.904168
      py      :     1.525271
      dz2     :     0.002085  d :     0.016226
      dxz     :     0.000809
      dyz     :     0.005187
      dx2y2   :     0.004786
      dxy     :     0.003358
      f0      :     0.000074  f :     0.000679
      f+1     :     0.000004
      f-1     :     0.000120
      f+2     :     0.000178
      f-2     :     0.000064
      f+3     :     0.000109
      f-3     :     0.000130

 12 F s       :     3.927003  s :     3.927003
      pz      :     1.455236  p :     5.244889
      px      :     1.905413
      py      :     1.884240
      dz2     :     0.008292  d :     0.016145
      dxz     :     0.003789
      dyz     :     0.003439
      dx2y2   :     0.000316
      dxy     :     0.000309
      f0      :     0.000329  f :     0.000675
      f+1     :     0.000157
      f-1     :     0.000158
      f+2     :     0.000012
      f-2     :     0.000018
      f+3     :     0.000001
      f-3     :     0.000002

 13 F s       :     3.929523  s :     3.929523
      pz      :     1.706387  p :     5.229708
      px      :     1.900209
      py      :     1.623112
      dz2     :     0.002694  d :     0.016541
      dxz     :     0.001674
      dyz     :     0.006502
      dx2y2   :     0.003095
      dxy     :     0.002577
      f0      :     0.000077  f :     0.000686
      f+1     :     0.000014
      f-1     :     0.000183
      f+2     :     0.000187
      f-2     :     0.000105
      f+3     :     0.000060
      f-3     :     0.000060

 14 F s       :     3.929654  s :     3.929654
      pz      :     1.502525  p :     5.228840
      px      :     1.902304
      py      :     1.824011
      dz2     :     0.006789  d :     0.016534
      dxz     :     0.003385
      dyz     :     0.004929
      dx2y2   :     0.000655
      dxy     :     0.000776
      f0      :     0.000226  f :     0.000687
      f+1     :     0.000110
      f-1     :     0.000231
      f+2     :     0.000051
      f-2     :     0.000060
      f+3     :     0.000005
      f-3     :     0.000004

 15 F s       :     3.929415  s :     3.929415
      pz      :     1.589649  p :     5.221390
      px      :     1.898401
      py      :     1.733340
      dz2     :     0.004560  d :     0.016677
      dxz     :     0.002661
      dyz     :     0.006310
      dx2y2   :     0.001553
      dxy     :     0.001593
      f0      :     0.000118  f :     0.000688
      f+1     :     0.000056
      f-1     :     0.000251
      f+2     :     0.000122
      f-2     :     0.000102
      f+3     :     0.000021
      f-3     :     0.000018

 16 F s       :     3.929286  s :     3.929286
      pz      :     1.600715  p :     5.220710
      px      :     1.898922
      py      :     1.721073
      dz2     :     0.004332  d :     0.016725
      dxz     :     0.002567
      dyz     :     0.006430
      dx2y2   :     0.001703
      dxy     :     0.001694
      f0      :     0.000111  f :     0.000692
      f+1     :     0.000050
      f-1     :     0.000249
      f+2     :     0.000132
      f-2     :     0.000105
      f+3     :     0.000024
      f-3     :     0.000021

 17 F s       :     3.930127  s :     3.930127
      pz      :     1.715209  p :     5.217868
      px      :     1.899323
      py      :     1.603336
      dz2     :     0.002622  d :     0.016776
      dxz     :     0.001548
      dyz     :     0.006557
      dx2y2   :     0.003368
      dxy     :     0.002682
      f0      :     0.000078  f :     0.000692
      f+1     :     0.000010
      f-1     :     0.000176
      f+2     :     0.000195
      f-2     :     0.000100
      f+3     :     0.000065
      f-3     :     0.000068

 18 F s       :     3.930031  s :     3.930031
      pz      :     1.490431  p :     5.218013
      px      :     1.898672
      py      :     1.828910
      dz2     :     0.007070  d :     0.016755
      dxz     :     0.003528
      dyz     :     0.004857
      dx2y2   :     0.000587
      dxy     :     0.000714
      f0      :     0.000239  f :     0.000690
      f+1     :     0.000117
      f-1     :     0.000227
      f+2     :     0.000045
      f-2     :     0.000056
      f+3     :     0.000004
      f-3     :     0.000003

[...]
      f+1     :     0.000000
      f-1     :     0.000000
      f+2     :     0.000000
      f-2     :     0.000001
      f+3     :     0.000001
      f-3     :    -0.000000

 16 F s       :     0.000057  s :     0.000057
      pz      :     0.000032  p :    -0.000160
      px      :    -0.000064
      py      :    -0.000128
      dz2     :     0.000001  d :     0.000027
      dxz     :     0.000009
      dyz     :     0.000001
      dx2y2   :     0.000014
      dxy     :     0.000002
      f0      :    -0.000000  f :     0.000002
      f+1     :     0.000000
      f-1     :     0.000000
      f+2     :     0.000000
      f-2     :     0.000001
      f+3     :     0.000000
      f-3     :     0.000000

 17 F s       :     0.000009  s :     0.000009
      pz      :     0.000007  p :    -0.000057
      px      :    -0.000024
      py      :    -0.000039
      dz2     :    -0.000000  d :     0.000009
      dxz     :     0.000005
      dyz     :     0.000001
      dx2y2   :     0.000005
      dxy     :    -0.000002
      f0      :    -0.000000  f :     0.000001
      f+1     :     0.000000
      f-1     :     0.000000
      f+2     :     0.000000
      f-2     :     0.000000
      f+3     :    -0.000000
      f-3     :     0.000000

 18 F s       :     0.000002  s :     0.000002
      pz      :    -0.000037  p :     0.000097
      px      :     0.000032
      py      :     0.000102
      dz2     :     0.000003  d :     0.000022
      dxz     :     0.000008
      dyz     :     0.000008
      dx2y2   :     0.000004
      dxy     :     0.000000
      f0      :     0.000000  f :     0.000001
      f+1     :     0.000000
      f-1     :     0.000000
      f+2     :     0.000000
      f-2     :     0.000000
      f+3     :     0.000000
      f-3     :     0.000000

 19 F s       :     0.000004  s :     0.000004
      pz      :     0.000001  p :    -0.000021
      px      :    -0.000010
      py      :    -0.000012
      dz2     :    -0.000000  d :     0.000004
      dxz     :     0.000001
      dyz     :     0.000001
      dx2y2   :     0.000001
      dxy     :     0.000001
      f0      :     0.000000  f :     0.000000
      f+1     :    -0.000000
      f-1     :    -0.000000
      f+2     :     0.000000
      f-2     :     0.000000
      f+3     :     0.000000
      f-3     :     0.000000

 20 F s       :     0.000001  s :     0.000001
      pz      :    -0.000017  p :     0.000033
      px      :     0.000029
      py      :     0.000021
      dz2     :     0.000001  d :     0.000008
      dxz     :     0.000005
      dyz     :     0.000002
      dx2y2   :     0.000000
      dxy     :     0.000000
      f0      :     0.000000  f :     0.000001
      f+1     :     0.000000
      f-1     :     0.000000
      f+2     :    -0.000000
      f-2     :     0.000000
      f+3     :     0.000000
      f-3     :    -0.000000

 21 F s       :    -0.000001  s :    -0.000001
      pz      :     0.000001  p :    -0.000011
      px      :    -0.000002
      py      :    -0.000010
      dz2     :    -0.000000  d :     0.000001
      dxz     :     0.000000
      dyz     :     0.000000
      dx2y2   :     0.000001
      dxy     :    -0.000000
      f0      :     0.000000  f :     0.000000
      f+1     :    -0.000000
      f-1     :     0.000000
      f+2     :     0.000000
      f-2     :     0.000000
      f+3     :     0.000000
      f-3     :     0.000000

 22 F s       :     0.000008  s :     0.000008
      pz      :     0.000000  p :     0.000103
      px      :     0.000093
      py      :     0.000009
      dz2     :     0.000001  d :     0.000005
      dxz     :     0.000000
      dyz     :     0.000000
      dx2y2   :     0.000004
      dxy     :     0.000000
      f0      :     0.000000  f :     0.000000
      f+1     :     0.000000
      f-1     :     0.000000
      f+2     :     0.000000
      f-2     :     0.000000
      f+3     :     0.000000
      f-3     :    -0.000000

 23 F s       :     0.000000  s :     0.000000
      pz      :    -0.000003  p :     0.000004
      px      :    -0.000003
      py      :     0.000009
      dz2     :     0.000001  d :     0.000002
      dxz     :     0.000000
      dyz     :     0.000001
      dx2y2   :    -0.000000
      dxy     :     0.000000
      f0      :     0.000000  f :     0.000000
      f+1     :     0.000000
      f-1     :     0.000000
      f+2     :    -0.000000
      f-2     :     0.000000
      f+3     :    -0.000000
      f-3     :    -0.000000



                      *****************************
                      * MAYER POPULATION ANALYSIS *
                      *****************************

  NA   - Mulliken gross atomic population
  ZA   - Total nuclear charge
  QA   - Mulliken gross atomic charge
  VA   - Mayer's total valence
  BVA  - Mayer's bonded valence
  FA   - Mayer's free valence

  ATOM       NA         ZA         QA         VA         BVA        FA
  0 C      5.7332     6.0000     0.2668     4.5969     4.5931     0.0038
  1 O      8.5334     8.0000    -0.5334     1.9263     1.9190     0.0073
  2 O      8.5410     8.0000    -0.5410     1.9264     1.9240     0.0024
  3 C      5.9567     6.0000     0.0433     3.5930     3.0321     0.5609
  4 C      5.5640     6.0000     0.4360     4.1313     4.1285     0.0028
  5 C      5.7254     6.0000     0.2746     4.1881     4.1865     0.0016
  6 C      5.6704     6.0000     0.3296     4.1641     4.1641     0.0001
  7 C      5.7013     6.0000     0.2987     4.1842     4.1841     0.0000
  8 C      5.6692     6.0000     0.3308     4.2100     4.2100     0.0000
  9 C      5.5296     6.0000     0.4704     4.4694     4.4694     0.0000
 10 F      9.1919     9.0000    -0.1919     1.0990     1.0907     0.0084
 11 F      9.1986     9.0000    -0.1986     1.0943     1.0942     0.0001
 12 F      9.1803     9.0000    -0.1803     1.1176     1.1175     0.0001
 13 F      9.1698     9.0000    -0.1698     1.1513     1.1513     0.0000
 14 F      9.1800     9.0000    -0.1800     1.1333     1.1333     0.0000
 15 F      9.1689     9.0000    -0.1689     1.1486     1.1486     0.0000
 16 F      9.1671     9.0000    -0.1671     1.1527     1.1527     0.0000
 17 F      9.1652     9.0000    -0.1652     1.1573     1.1573     0.0000
 18 F      9.1652     9.0000    -0.1652     1.1551     1.1551     0.0000
 19 F      9.1638     9.0000    -0.1638     1.1580     1.1580     0.0000
 20 F      9.1605     9.0000    -0.1605     1.1595     1.1595     0.0000
 21 F      9.1563     9.0000    -0.1563     1.1644     1.1644     0.0000
 22 F      9.1540     9.0000    -0.1540     1.1633     1.1633     0.0000
 23 F      9.1543     9.0000    -0.1543     1.1657     1.1657     0.0000

  Mayer bond orders larger than 0.100000
B(  0-C ,  1-O ) :   1.7951 B(  0-C ,  2-O ) :   1.8130 B(  0-C ,  3-C ) :   0.9607 
B(  3-C ,  4-C ) :   0.9424 B(  3-C , 10-F ) :   1.0314 B(  4-C ,  5-C ) :   0.9306 
B(  4-C , 11-F ) :   1.0310 B(  4-C , 12-F ) :   1.0869 B(  5-C ,  6-C ) :   0.9232 
B(  5-C , 13-F ) :   1.0909 B(  5-C , 14-F ) :   1.0674 B(  6-C ,  7-C ) :   0.9217 
B(  6-C , 15-F ) :   1.0749 B(  6-C , 16-F ) :   1.0816 B(  7-C ,  8-C ) :   0.9335 
B(  7-C , 17-F ) :   1.0802 B(  7-C , 18-F ) :   1.0881 B(  8-C ,  9-C ) :   0.9533 
B(  8-C , 19-F ) :   1.0829 B(  8-C , 20-F ) :   1.0979 B(  9-C , 21-F ) :   1.1290 
B(  9-C , 22-F ) :   1.1329 B(  9-C , 23-F ) :   1.1429 

-------
TIMINGS
-------

Total SCF time: 0 days 0 hours 0 min 38 sec 

Total time                  ....      38.206 sec
Sum of individual times     ....      36.918 sec  ( 96.6%)

SCF preparation             ....       1.095 sec  (  2.9%)
Fock matrix formation       ....      31.560 sec  ( 82.6%)
  Startup                   ....       0.277 sec  (  0.9% of F)
  Split-RI-J                ....       1.939 sec  (  6.1% of F)
  Chain of spheres X        ....      19.965 sec  ( 63.3% of F)
  XC integration            ....       7.313 sec  ( 23.2% of F)
    Basis function eval.    ....       0.476 sec  (  6.5% of XC)
    Density eval.           ....       2.291 sec  ( 31.3% of XC)
    XC-Functional eval.     ....       0.149 sec  (  2.0% of XC)
    XC-Potential eval.      ....       2.019 sec  ( 27.6% of XC)
  CPCM terms                ....       1.648 sec  (  5.2% of F)
Diagonalization             ....       0.000 sec  (  0.0%)
Density matrix formation    ....       0.445 sec  (  1.2%)
Total Energy calculation    ....       0.229 sec  (  0.6%)
Population analysis         ....       0.349 sec  (  0.9%)
Orbital Transformation      ....       0.398 sec  (  1.0%)
Orbital Orthonormalization  ....       0.000 sec  (  0.0%)
DIIS solution               ....       0.512 sec  (  1.3%)
SOSCF solution              ....       2.330 sec  (  6.1%)
Finished LeanSCF after  38.5 sec

Maximum memory used throughout the entire LEANSCF-calculation: 106.2 MB


-------------------------------------------------------------------------------
                          DFT DISPERSION CORRECTION                            
                                                                               
                              DFTD3 V3.1  Rev 1                                
                          USING Becke-Johnson damping                          
-------------------------------------------------------------------------------
The R2SCANh functional is recognized
Active option DFTDOPT                   ...         4   

molecular C6(AA) [au] = 6301.320294 


            DFT-D V3
 parameters
 s6 scaling factor         :     1.0000 
 a1 scaling factor         :     0.4709 
 s8 scaling factor         :     1.1236 
 a2 scaling factor         :     5.9157 
 ad hoc parameters k1-k3   :    16.0000     1.3333    -4.0000 

 Edisp/kcal,au: -5.114866817478  -0.008151058244 
 E6   /kcal   :  -3.727980754 
 E8   /kcal   :  -1.386886064 
 % E8         :  27.114803044 

-------------------------   ----------------
Dispersion correction           -0.008151058
-------------------------   ----------------


-------------------------   --------------------
FINAL SINGLE POINT ENERGY     -1853.117460133307
-------------------------   --------------------

                                *** OPTIMIZATION RUN DONE ***



           ************************************************************
           *        Program running with 20 parallel MPI-processes    *
           *              working on a common directory               *
           ************************************************************

------------------------------------------------------------------------------
                              ORCA PROPERTY CALCULATIONS
------------------------------------------------------------------------------

GBWName                                 ... rf_mecn_opt_r2s_C2_D_B_01.gbw
Number of atoms                         ...     24
Number of basis functions               ...    744
Max core memory                         ...   8000 MB

Electric properties:
Dipole moment                           ... YES
Quadrupole moment                       ...  NO
Static polarizability (Dipole/Dipole)   ...  NO
Static polarizability (Dipole/Quad.)    ...  NO
Static polarizability (Quad./Quad.)     ...  NO
Static polarizability (Velocity)        ...  NO

Atomic electric properties:
Dipole moment                           ...  NO
Quadrupole moment                       ...  NO
Static polarizability                   ...  NO

Choice of electric origin               ... Center of mass
Position of electric origin             ...    -0.392330     0.136819    -0.033971

General magnetic properties:
Magnetizability                         ...  NO

EPR properties:
g-Tensor (aka g-matrix)                 ...  NO
Zero-Field splitting spin-orbit         ...  NO
Zero-field splitting spin-spin          ...  NO
Hyperfine couplings                     ...  NO (   0 nuclei)
Quadrupole couplings                    ...  NO (   0 nuclei)
Contact density                         ...  NO (   0 nuclei)

NMR properties:
Chemical shifts                         ...  NO (   0 nuclei)
Spin-rotation constants                 ...  NO (   0 nuclei)
Spin-spin couplings                     ...  NO (   0 nuclei,    0 pairs)

Choice of magnetic origin               ... GIAO
Position of magnetic origin             ...     0.000000     0.000000     0.000000

Properties with geometric perturbations:
SCF Hessian                             ...  NO
IR spectrum                             ...  NO
VCD spectrum                            ...  NO
X-ray spectroscopy properties:
SCF XES/XAS/RIXS spectra                ...  NO


-------------
DIPOLE MOMENT
-------------

Method             : SCF
Type of density    : Electron Density
Multiplicity       :   2
Irrep              :   0
Energy             : -1853.1093090750625834 Eh
Relativity type    : 
Basis              : AO
                                X                 Y                 Z
Electronic contribution:    -18.389622435       3.245750895       1.817873539
Nuclear contribution   :     10.003002920      -1.691610340      -0.987966800
                        -----------------------------------------
Total Dipole Moment    :     -8.386619515       1.554140555       0.829906739
                        -----------------------------------------
Magnitude (a.u.)       :      8.569684064
Magnitude (Debye)      :     21.782405813



--------------------
Rotational spectrum 
--------------------
 
Rotational constants in cm-1:             0.020984             0.004247             0.004122 
Rotational constants in MHz :           629.098773           127.317096           123.562153 

Dipole components along the rotational axes: 
x,y,z [a.u.] :    -8.321068     2.048016    -0.070317 
x,y,z [Debye]:   -21.150474     5.205643    -0.178731 

 

Dipole moment calculation done in   0.1 sec 

Maximum memory used throughout the entire PROP-calculation: 54.7 MB

--------------------------------
SUGGESTED CITATIONS FOR THIS RUN
--------------------------------

Below you find a list of papers that are relevant to this ORCA run
We neither can nor want to force you to cite these papers, but we appreciate if you do
You receive ORCA, which is the product of decades of hard work by many enthusiastic individuals, for free
The only thing we kindly ask in return is that you cite our papers,
We deeply appreciate it, if you show your appreciation for ORCA by not just citing the generic ORCA reference.

Please note that relegating all ORCA citations to the supporting information does *not* help us.
SI sections are not indexed - citations you put there will not count into any citation statistics
But we need these citations in order to attract the funding resources that allow us to do what we are doing

Therefore, if you are a happy ORCA user, please consider citing a few of the papers listed below in the main body of your paper

In addition to the list printed below, the program has created the file rf_mecn_opt_r2s_C2_D_B_01.bibtex that contains the list in bibtex format
You can import this file easily into all common literature databanks and citation aid programs


List of essential papers. We consider these as the minimum necessary citations

  1. Neese,F.
     Software update: the ORCA program system, version 5.0
     WIRES Comput. Molec. Sci., 2022 12(1)e1606
     doi.org/10.1002/wcms.1606

List of papers to cite with high priority. The work reported in these papers was absolutely
necessary for this run to complete.
Our perspective: the developers of density functionals and basis sets usually get cited in chemistry papers
Good! But without the algorithms to do something with them, the functionals or basis sets would not do anything.
Hence, in our opinion, the algorithm design and method developments papers are equally worthy of getting cited

  1. Neese,F.
     An improvement of the resolution of the identity approximation for the formation of the Coulomb matrix
     J. Comp. Chem., 2003 24(14)1740-1747
     doi.org/10.1002/jcc.10318
  2. Neese,F.; Wennmohs,F.; Hansen,A.; Becker,U.
     Efficient, approximate and parallel Hartree-Fock and hybrid DFT calculations. A 'chain-of-spheres' algorithm for the Hartree-Fock exchange
     Chem. Phys., 2009 356(1-3)98-109
     doi.org/10.1016/j.chemphys.2008.10.036
  3. Garcia-Rates,M.; Neese,F.
     Effect of the Solute Cavity on the Solvation Energy and its Derivatives within the Framework of the Gaussian Charge Scheme
     J. Comput. Chem., 2020 41 922-939
     doi.org/10.1002/jcc.26139
  4. Helmich-Paris,B.; de Souza,B.; Neese,F.; Izsák,R.
     An improved chain of spheres for exchange algorithm
     J. Chem. Phys., 2021 155 104109
     doi.org/doi: 10.1063/5.0058766.
  5. Neese,F.
     The SHARK Integral Generation and Digestion System
     J. Comp. Chem., 2022  1-16
     doi.org/10.1002/jcc.26942
  6. Lehtola,S.; Steigemann,C.; Oliveira,M.; Marques,M.
     Recent developments in Libxc - A comprehensive library of functionals for density functional theory
     Software X, 2018 7 
     doi.org/10.1016/j.softx.2017.11.002
  7. Grimme,S.; Antony,J.; Ehrlich,S.; Krieg,H.
     A consistent and accurate ab initio parametrization of density functional dispersion correction (DFT-D) for the 94 elements H-Pu
     J. Chem. Phys., 2010 132 154104
     doi.org/10.1063/1.3382344
  8. Grimme,S.; Ehrlich,S.; Goerigk,L.
     Effect of the damping function in dispersion corrected density functional theory
     J. Comput. Chem., 2011 32(7)1456-1465
     doi.org/10.1002/jcc.21759
  9. Bursch,M.; Neugebauer,H.; Ehlert,S.; Grimme,S.
     Dispersion corrected r2SCAN based global hybrid functionals: r2SCANh, r2SCAN0, and r2SCAN50
     J. Phys. Chem., 2022 156(13)134105
     doi.org/10.1063/5.0086040

List of suggested additional citations. These are papers that are important in the 'surrounding' of 
of this run, or papers that preceded the highly important papers. If you like your results we are grateful for a citation.

  1. Izsak,R.; Neese,F.
     An overlap fitted chain of spheres exchange method
     J. Chem. Phys., 2011 135 144105
     doi.org/10.1063/1.3646921
  2. Izsak,R.; Hansen,A.; Neese,F.
     The resolution of identity and chain of spheres approximations for the LPNO-CCSD singles Fock term
     Molec. Phys., 2012 110 2413-2417
     doi.org/10.1080/00268976.2012.687466
  3. Neese,F.
     The ORCA program system
     WIRES Comput. Molec. Sci., 2012 2(1)73-78
     doi.org/10.1002/wcms.81
  4. Izsak,R.; Neese,F.; Klopper,W.
     Robust fitting techniques in the chain of spheres approximation to the Fock exchange: The role of the complementary space
     J. Chem. Phys., 2013 139 
     doi.org/10.1063/1.4819264
  5. Neese,F.
     Software update: the ORCA program system, version 4.0
     WIRES Comput. Molec. Sci., 2018 8(1)1-6
     doi.org/10.1002/wcms.1327
  6. Neese,F.; Wennmohs,F.; Becker,U.; Riplinger,C.
     The ORCA quantum chemistry program package
     J. Chem. Phys., 2020 152 Art. No. L224108
     doi.org/10.1063/5.0004608
  7. Wittmann,L.; Neugebauer,H.; Grimme,S.; Bursch,M.
     Dispersion-corrected r2SCAN based double-hybrid functionals
     J. Chem. Phys., 2023 159(22)224103
     doi.org/10.1063/5.0174988

List of optional additional citations

  1. Neese,F.
     Approximate second-order SCF convergence for spin unrestricted wavefunctions
     Chem. Phys. Lett., 2000 325(1-3)93-98
     doi.org/10.1016/s0009-2614(00)00662-x

Timings for individual modules:

Sum of individual times          ...     2522.232 sec (=  42.037 min)
Startup calculation              ...      111.421 sec (=   1.857 min)   4.4 %
SCF iterations                   ...     1860.434 sec (=  31.007 min)  73.8 %
Property calculations            ...        0.819 sec (=   0.014 min)   0.0 %
SCF Gradient evaluation          ...      549.152 sec (=   9.153 min)  21.8 %
Geometry relaxation              ...        0.405 sec (=   0.007 min)   0.0 %
                             ****ORCA TERMINATED NORMALLY****
TOTAL RUN TIME: 0 days 0 hours 42 minutes 20 seconds 800 msec
