
                                 *****************
                                 * O   R   C   A *
                                 *****************

                                            #,                                       
                                            ###                                      
                                            ####                                     
                                            #####                                    
                                            ######                                   
                                           ########,                                 
                                     ,,################,,,,,                         
                               ,,#################################,,                 
                          ,,##########################################,,             
                       ,#########################################, ''#####,          
                    ,#############################################,,   '####,        
                  ,##################################################,,,,####,       
                ,###########''''           ''''###############################       
              ,#####''   ,,,,##########,,,,          '''####'''          '####       
            ,##' ,,,,###########################,,,                        '##       
           ' ,,###''''                  '''############,,,                           
         ,,##''                                '''############,,,,        ,,,,,,###''
      ,#''                                            '''#######################'''  
     '                                                          ''''####''''         
             ,#######,   #######,   ,#######,      ##                                
            ,#'     '#,  ##    ##  ,#'     '#,    #''#        ,####,   ,####,        
            ##       ##  ##   ,#'  ##            #'  '#       #'       #'  '#        
            ##       ##  #######   ##           ,######,      #####,   #    #        
            '#,     ,#'  ##    ##  '#,     ,#' ,#      #,     #,   #   #,  ,#        
             '#######'   ##     ##  '#######'  #'      '#     '####' # '####'        



                #########################################################
                #                        -***-                          #
                #          Department of theory and spectroscopy        #
                #                                                       #
                #                      Frank Neese                      #
                #                                                       #
                #     Directorship, Architecture, Infrastructure        #
                #                    SHARK, DRIVERS                     #
                #        Core code/Algorithms in most modules           #
                #                                                       #
                #        Max Planck Institute fuer Kohlenforschung      #
                #                Kaiser Wilhelm Platz 1                 #
                #                 D-45470 Muelheim/Ruhr                 #
                #                      Germany                          #
                #                                                       #
                #                  All rights reserved                  #
                #                        -***-                          #
                #########################################################


                         Program Version 6.0.1  -  RELEASE   -


 With contributions from (in alphabetic order):
[Max-Planck-Institut fuer Kohlenforschung]                               
  Daniel Aravena         : Magnetic Suceptibility                        
  Michael Atanasov       : Ab Initio Ligand Field Theory (pilot matlab implementation)
  Alexander A. Auer      : GIAO ZORA, VPT2 properties, NMR spectrum      
  Ute Becker             : All parallelization in ORCA, NUMFREQ, NUMCALC 
  Giovanni Bistoni       : ED, misc. LED, open-shell LED, HFLD           
  Martin Brehm           : Molecular dynamics                            
  Dmytro Bykov           : pre 5.0 version of the SCF Hessian            
  Marcos Casanova-Páez   : Triplet and SCS-CIS(D). UHF-(DLPNO)-IP/EA/STEOM-CCSD. UHF-CVS-IP/STEOM-CCSD   
  Vijay G. Chilkuri      : MRCI spin determinant printing, contributions to CSF-ICE 
  Pauline Colinet        : FMM embedding                                 
  Dipayan Datta          : RHF DLPNO-CCSD density                        
  Achintya Kumar Dutta   : EOM-CC, STEOM-CC                              
  Nicolas Foglia         : Exact transition moments, OPA infrastructure, MCD improvements    
  Dmitry Ganyushin       : Spin-Orbit,Spin-Spin,Magnetic field MRCI      
  Miquel Garcia-Rates    : C-PCM and meta-GGA Hessian, CCSD/C-PCM, Gaussian charge scheme 
  Tiago L. C. Gouveia    : GS-ROHF, GS-ROCIS                             
  Yang Guo               : DLPNO-NEVPT2, F12-NEVPT2, CIM, IAO-localization        
  Andreas Hansen         : Spin unrestricted coupled pair/coupled cluster methods 
  Ingolf Harden          : AUTO-CI MPn and infrastructure                
  Benjamin Helmich-Paris : MC-RPA, TRAH-(SCF,CASSCF), AVAS, COSX integrals, SCF dyn. polar. 
  Lee Huntington         : MR-EOM, pCC                                   
  Robert Izsak           : Overlap fitted RIJCOSX, COSX-SCS-MP3, EOM     
  Riya Kayal             : Wick's Theorem for AUTO-CI, AUTO-CI UHF-CCSDT 
  Emily Kempfer          : AUTO-CI, RHF CISDT and CCSDT                  
  Christian Kollmar      : KDIIS, OOCD, Brueckner-CCSD(T), CCSD density, CASPT2, CASPT2-K, improved NEVPT2 
  Axel Koslowski         : Symmetry handling                             
  Simone Kossmann        : meta-GGA functionals, TD-DFT gradient, OOMP2, (MP2 Hessian; deprecated post 5.0) 
  Lucas Lang             : DCDCAS                                        
  Marvin Lechner         : AUTO-CI (C++ implementation), FIC-MRCC        
  Spencer Leger          : CASSCF response                               
  Dagmar Lenk            : GEPOL surface, SMD, ORCA-2-JSON               
  Dimitrios Liakos       : Extrapolation schemes; Compound Job, initial MDCI parallelization 
  Dimitrios Manganas     : Further ROCIS development; embedding schemes. LFT, Crystal Embedding 
  Dimitrios Pantazis     : SARC Basis sets                               
  Anastasios Papadopoulos: AUTO-CI, single reference methods and gradients 
  Taras Petrenko         : pre 6.0 DFT Hessian and TD-DFT gradient, (ASA, deprecated), ECA, 1-Electron XAS/XES, NRVS 
  Peter Pinski           : DLPNO-MP2, DLPNO-MP2 Gradient                 
  Christoph Reimann      : Effective Core Potentials                     
  Marius Retegan         : Local ZFS, SOC                                
  Christoph Riplinger    : Optimizer, TS searches, QM/MM, DLPNO-CCSD(T), (RO)-DLPNO pert. Triples 
  Michael Roemelt        : Original ROCIS implementation                 
  Masaaki Saitow         : Open-shell DLPNO-CCSD energy and density      
  Barbara Sandhoefer     : DKH picture change effects                    
  Kantharuban Sivalingam : CASSCF convergence/infrastructure, NEVPT2 and variants, FIC-MRCI 
  Bernardo de Souza      : ESD, SOC TD-DFT                               
  Georgi L. Stoychev     : AutoAux, RI-MP2 NMR, DLPNO-MP2 response, X2C  
  Van Anh Tran           : RI-MP2 g-tensors                              
  Willem Van den Heuvel  : Paramagnetic NMR                              
  Zikuan Wang            : NOTCH, Electric field optimization            
  Frank Wennmohs         : Technical directorship and infrastructure     
  Hang Xu                : AUTO-CI-Response properties                   
                                                                         
[FACCTs GmbH]                                                            
  Markus Bursch, Miquel Garcia-Rates, Christoph Riplinger, Bernardo de Souza, Georgi L. Stoychev 
                                                                 
  APM, Basis sets (HGBS, AHGBS, def-TZVP (Ac-Lr), def2-XVPD (La-Lu)), CI-OPT, improved COSX, DLPNO-Multilevel,           
  DOCKER, DRACO, updates on ESD, GOAT, IRC, LR-CPCM, MBIS, meta-GGA TD-DFT gradient, ML-optimized integration grids, 
  MM, NACMEs, nearIR, NEB, NEB-TS, NL-DFT gradient (VV10), 2- and 3-layer-ONIOM, interface openCOSMO-RS, QMMM,   
  Crystal-QMMM, SF, symmetry and pop. for TD-DFT, r2SCAN hybrids, SOLVATOR                                   
                                                                         
[Other institutions]                                                     
  V. Asgeirsson          : NEB                                           
  Christoph Bannwarth    : sTDA-DFT, sTD-DFT, PBEh-3c, B97-3c, D3        
  Sebastian Ehlert       : rSCAN, r2SCAN, r2SCAN-3c, D4, dhf basis sets  
  Marvin Friede          : D4 for Fr, Ra, Ac-Lr                          
  Lars Goerigk           : TD-DFT with DH, B97 family of functionals     
  Stefan Grimme          : VdW corrections, initial TS optimization, DFT functionals, gCP, sTDA/sTD-DF 
  Waldemar Hujo          : DFT-NL                                        
  H. Jonsson             : NEB                                           
  Holger Kruse           : gCP                                           
  Marcel Mueller         : wB97X-3c, vDZP basis set                      
  Hagen Neugebauer       : wr2SCAN                                       
  Tobias Risthaus        : range-separated hybrid DFT                    
  Lukas Wittmann         : regularized MP2, r2SCAN double-hybrids, wr2SCAN        
                                                                         
We gratefully acknowledge several colleagues who have allowed us to      
interface, adapt or use parts of their codes:                            
  Ed Valeev, F. Pavosevic, A. Kumar             : LibInt (2-el integral package), F12 methods 
  Garnet Chan, S. Sharma, J. Yang, R. Olivares  : DMRG                   
  Ulf Ekstrom                                   : XCFun DFT Library      
  Mihaly Kallay                                 : mrcc  (arbitrary order and MRCC methods)
  Frank Weinhold                                : gennbo (NPA and NBO analysis)           
  Simon Mueller                                 : openCOSMO-RS                            
  Christopher J. Cramer and Donald G. Truhlar   : smd solvation model                     
  S Lehtola, MJT Oliveira, MAL Marques          : LibXC Library                           
  Liviu Ungur et al                             : ANISO software                          


 Your calculation uses the libint2 library for the computation of 2-el integrals
 For citations please refer to: http://libint.valeyev.net

 Your ORCA version has been built with support for libXC version: 6.2.2
 For citations please refer to: https://libxc.gitlab.io

 This ORCA versions uses:
   CBLAS   interface :  Fast vector & matrix operations
   LAPACKE interface :  Fast linear algebra routines
   SCALAPACK package :  Parallel linear algebra routines
   Shared memory     :  Shared parallel matrices
   BLAS/LAPACK       :  OpenBLAS 0.3.27  USE64BITINT DYNAMIC_ARCH NO_AFFINITY SkylakeX SINGLE_THREADED
        Core in use  :  SkylakeX
   Copyright (c) 2011-2014, The OpenBLAS Project


NOTE: MaxCore=8000 MB was set to SCF,MP2,MDCI,CIPSI,MRCI and CIS
      => If you want to overwrite this, your respective input block should be placed after the MaxCore statement
Your calculation utilizes the atom-pairwise dispersion correction
with the Becke-Johnson damping scheme (D3BJ)


Your calculation utilizes the SMD solvation module
Please cite in your paper:
A.V. Marenich, C.J. Cramer, D.G. Truhlar J. Phys. Chem. B, 113, (2009), 6378 

Warning: RI is on but no J-basis has been assigned. Assigning Def2/J (nothing to worry about!)
================================================================================

----- Orbital basis set information -----
Your calculation utilizes the basis: def2-TZVP
   F. Weigend and R. Ahlrichs, Phys. Chem. Chem. Phys. 7, 3297 (2005).

----- AuxJ basis set information -----
Your calculation utilizes the auxiliary basis: def2/J
   F. Weigend, Phys. Chem. Chem. Phys. 8, 1057 (2006).

================================================================================
                                        WARNINGS
                       Please study these warnings very carefully!
================================================================================


WARNING: your system is open-shell and RHF/RKS was chosen
  ===> : WILL SWITCH to UHF/UKS


WARNING: Geometry Optimization
  ===> : Switching off AutoStart
         For restart on a previous wavefunction, please use MOREAD

================================================================================
                                       INPUT FILE
================================================================================
NAME = rf_mecn_opt_TP_C3_P_B.inp
|  1> !TPSSh def2-TZVP opt d3 TightSCF SlowConv defgrid2
|  2>  
|  3> %pal
|  4> nprocs 20
|  5> end
|  6>  
|  7> %scf
|  8> MaxIter 1500
|  9> end
| 10>  
| 11> %maxcore 8000
| 12>  
| 13> !CPCM
| 14> %cpcm smd true
| 15> SMDsolvent "ACETONITRILE"
| 16> end
| 17>  
| 18> * xyz 0 2
| 19> 6        4.790427000     -0.033865800     -0.529943200
| 20> 8        5.449345000     -1.206924000     -0.894594600
| 21> 8        4.978223000      1.323071000     -0.737377200
| 22> 6        3.506687600     -0.338741600      0.376153800
| 23> 6        2.222300000      0.400524800     -0.110681600
| 24> 6        0.900506800     -0.386389800      0.175703000
| 25> 6       -0.395261200      0.487294000      0.065549000
| 26> 6       -1.705693600     -0.364773800     -0.068373600
| 27> 6       -3.005136200      0.445344800      0.258164000
| 28> 6       -4.319880200     -0.214526000     -0.270540800
| 29> 9        3.211587400     -1.692050400      0.412735200
| 30> 9        3.741061800      0.055285800      1.689948800
| 31> 9        2.314152400      0.589704000     -1.455769200
| 32> 9        0.794028800     -1.413561400     -0.700839000
| 33> 9        0.958350600     -0.884509000      1.435093400
| 34> 9       -0.498373400      1.260265600      1.173340200
| 35> 9       -0.299075000      1.289512600     -1.020910800
| 36> 9       -1.641790400     -1.418189000      0.779523800
| 37> 9       -1.792381400     -0.831391600     -1.336863600
| 38> 9       -2.918792200      1.679227200     -0.295171200
| 39> 9       -3.119771000      0.573779800      1.598579800
| 40> 9       -4.383115600     -1.504377600      0.089127600
| 41> 9       -5.365669800      0.430528600      0.260394200
| 42> 9       -4.396020400     -0.128550600     -1.602941800
| 43> 1        5.903122371     -2.014774547     -1.145719253
| 44> *
| 45> 
| 46>                          ****END OF INPUT****
================================================================================

                       *****************************
                       * Geometry Optimization Run *
                       *****************************

Geometry optimization settings:
Update method            Update   .... BFGS
Choice of coordinates    CoordSys .... (2022) Redundant Internals
Initial Hessian          InHess   .... Almloef's Model
Max. no of cycles        MaxIter  .... 75

Convergence Tolerances:
Energy Change            TolE     ....  5.0000e-06 Eh
Max. Gradient            TolMAXG  ....  3.0000e-04 Eh/bohr
RMS Gradient             TolRMSG  ....  1.0000e-04 Eh/bohr
Max. Displacement        TolMAXD  ....  4.0000e-03 bohr
RMS Displacement         TolRMSD  ....  2.0000e-03 bohr
Strict Convergence                .... False

------------------------------------------------------------------------------
                        ORCA OPTIMIZATION COORDINATE SETUP
------------------------------------------------------------------------------

The optimization will be done in redundant internal coordinates (2022)
Making redundant internal coordinates   ...  (2022 redundants) done
Evaluating the initial hessian          ...  (Almloef) done
Evaluating the coordinates              ...  done
Calculating the B-matrix                .... done
Calculating the G-matrix                .... done
Diagonalizing the G-matrix              .... done
Small eigenvalue found = 4.663e-03
Small eigenvalue found = 1.280e-02
Small eigenvalue found = 2.840e-02
Small eigenvalue found = 2.945e-02
The first mode is                       ....   39
The number of degrees of freedom        ....   69

    -----------------------------------------------------------------
                    Redundant Internal Coordinates


    -----------------------------------------------------------------
         Definition                    Initial Value    Approx d2E/dq
    -----------------------------------------------------------------
      1. B(O   1,C   0)                  1.3940         0.551454   
      2. B(O   2,C   0)                  1.3855         0.568952   
      3. B(C   3,C   0)                  1.6006         0.288221   
      4. B(C   4,C   3)                  1.5599         0.334759   
      5. B(C   5,C   4)                  1.5647         0.328824   
      6. B(C   6,C   5)                  1.5667         0.326486   
      7. B(C   7,C   6)                  1.5688         0.323927   
      8. B(C   8,C   7)                  1.5657         0.327637   
      9. B(C   9,C   8)                  1.5632         0.330714   
     10. B(F  10,C   3)                  1.3856         0.528443   
     11. B(F  11,C   3)                  1.3915         0.517117   
     12. B(F  12,C   4)                  1.3614         0.577499   
     13. B(F  13,C   5)                  1.3545         0.592326   
     14. B(F  14,C   5)                  1.3556         0.590092   
     15. B(F  15,C   6)                  1.3547         0.591865   
     16. B(F  16,C   6)                  1.3540         0.593567   
     17. B(F  17,C   7)                  1.3538         0.593973   
     18. B(F  18,C   7)                  1.3544         0.592672   
     19. B(F  19,C   8)                  1.3550         0.591238   
     20. B(F  20,C   8)                  1.3514         0.599114   
     21. B(F  21,C   9)                  1.3406         0.623533   
     22. B(F  22,C   9)                  1.3385         0.628179   
     23. B(F  23,C   9)                  1.3373         0.630929   
     24. B(H  24,O   1)                  0.9600         0.519956   
     25. A(O   1,C   0,O   2)          136.1318         0.413163   
     26. A(O   1,C   0,C   3)          111.5249         0.369222   
     27. A(O   2,C   0,C   3)          112.3347         0.371210   
     28. L(C   0,O   1,H  24,C   3, 2) 180.0000         0.362759   
     29. L(C   0,O   1,H  24,C   3, 1) 180.0000         0.362759   
     30. A(F  10,C   3,F  11)          106.7094         0.399684   
     31. A(C   0,C   3,F  11)          110.2099         0.363632   
     32. A(C   0,C   3,C   4)          113.1687         0.341363   
     33. A(C   4,C   3,F  11)          107.4072         0.373095   
     34. A(C   4,C   3,F  10)          107.2033         0.374492   
     35. A(C   0,C   3,F  10)          111.8265         0.364982   
     36. A(C   3,C   4,F  12)          108.5818         0.380286   
     37. A(C   3,C   4,C   5)          113.5839         0.349005   
     38. A(C   5,C   4,F  12)          107.9208         0.379109   
     39. A(F  13,C   5,F  14)          109.0206         0.417483   
     40. A(C   6,C   5,F  14)          107.7906         0.380059   
     41. A(C   4,C   5,F  14)          108.5900         0.380529   
     42. A(C   6,C   5,F  13)          108.2026         0.380308   
     43. A(C   4,C   5,F  13)          109.2282         0.380779   
     44. A(C   4,C   5,C   6)          113.9128         0.347536   
     45. A(C   5,C   6,C   7)          113.2023         0.346660   
     46. A(F  15,C   6,F  16)          108.8752         0.417862   
     47. A(C   7,C   6,F  16)          108.2186         0.379927   
     48. A(C   5,C   6,F  16)          109.1523         0.380446   
     49. A(C   7,C   6,F  15)          108.4284         0.379738   
     50. A(C   5,C   6,F  15)          108.8835         0.380256   
     51. A(C   8,C   7,F  18)          108.6915         0.380579   
     52. A(C   6,C   7,F  18)          108.6955         0.379828   
     53. A(C   8,C   7,F  17)          108.1296         0.380723   
     54. A(F  17,C   7,F  18)          108.7561         0.418014   
     55. A(C   6,C   7,F  17)          109.2524         0.379972   
     56. A(C   6,C   7,C   8)          113.2298         0.346865   
     57. A(F  19,C   8,F  20)          108.8987         0.418476   
     58. A(C   7,C   8,C   9)          114.1471         0.348078   
     59. A(C   9,C   8,F  20)          107.7127         0.381912   
     60. A(C   7,C   8,F  20)          109.0521         0.381293   
     61. A(C   9,C   8,F  19)          107.4499         0.381036   
     62. A(C   7,C   8,F  19)          109.4572         0.380419   
     63. A(F  22,C   9,F  23)          108.6464         0.426961   
     64. A(F  21,C   9,F  23)          109.0552         0.426394   
     65. A(C   8,C   9,F  23)          110.9604         0.385362   
     66. A(F  21,C   9,F  22)          108.6877         0.426061   
     67. A(C   8,C   9,F  22)          108.6349         0.385069   
     68. A(C   8,C   9,F  21)          110.7995         0.384572   
     69. D(C   4,C   3,C   0,O   2)     49.8076         0.006601   
     70. D(C   4,C   3,C   0,O   1)   -131.0839         0.006601   
     71. D(F  10,C   3,C   0,O   2)    171.0025         0.006601   
     72. D(F  10,C   3,C   0,O   1)     -9.8890         0.006601   
     73. D(F  11,C   3,C   0,O   1)    108.6317         0.006601   
     74. D(F  11,C   3,C   0,O   2)    -70.4768         0.006601   
     75. D(C   5,C   4,C   3,C   0)    148.6429         0.008543   
     76. D(F  12,C   4,C   3,C   0)     28.5784         0.008543   
     77. D(F  12,C   4,C   3,F  10)    -95.1911         0.008543   
     78. D(C   5,C   4,C   3,F  10)     24.8733         0.008543   
     79. D(C   5,C   4,C   3,F  11)    -89.4885         0.008543   
     80. D(F  13,C   5,C   4,C   3)    -74.9661         0.008276   
     81. D(C   6,C   5,C   4,F  12)    -75.6292         0.008276   
     82. D(F  13,C   5,C   4,F  12)     45.4721         0.008276   
     83. D(C   6,C   5,C   4,C   3)    163.9326         0.008276   
     84. D(F  14,C   5,C   4,C   3)     43.8158         0.008276   
     85. D(F  15,C   6,C   5,F  14)     44.2190         0.008700   
     86. D(F  15,C   6,C   5,F  13)    161.9826         0.008700   
     87. D(F  15,C   6,C   5,C   4)    -76.3465         0.008700   
     88. D(C   7,C   6,C   5,F  14)    -76.4529         0.008700   
     89. D(C   7,C   6,C   5,F  13)     41.3107         0.008700   
     90. D(C   7,C   6,C   5,C   4)    162.9815         0.008700   
     91. D(F  17,C   7,C   6,F  16)    162.9167         0.008578   
     92. D(F  17,C   7,C   6,F  15)    -79.1358         0.008578   
     93. D(F  17,C   7,C   6,C   5)     41.7939         0.008578   
     94. D(C   8,C   7,C   6,F  16)    -76.5134         0.008578   
     95. D(C   8,C   7,C   6,F  15)     41.4341         0.008578   
     96. D(C   8,C   7,C   6,C   5)    162.3638         0.008578   
     97. D(C   9,C   8,C   7,F  18)     41.5227         0.008755   
     98. D(C   9,C   8,C   7,F  17)    -76.3785         0.008755   
     99. D(C   9,C   8,C   7,C   6)    162.4166         0.008755   
    100. D(F  19,C   8,C   7,F  18)    -78.9355         0.008755   
    101. D(F  19,C   8,C   7,F  17)    163.1633         0.008755   
    102. D(F  19,C   8,C   7,C   6)     41.9584         0.008755   
    103. D(F  22,C   9,C   8,F  20)     48.1091         0.008903   
    104. D(F  22,C   9,C   8,F  19)    -69.0724         0.008903   
    105. D(F  22,C   9,C   8,C   7)    169.3552         0.008903   
    106. D(F  21,C   9,C   8,F  20)    -71.2185         0.008903   
    107. D(F  21,C   9,C   8,F  19)    171.5999         0.008903   
    108. D(F  21,C   9,C   8,C   7)     50.0276         0.008903   
    -----------------------------------------------------------------

Number of atoms                         .... 25
Number of degrees of freedom            .... 108


         *************************************************************
         *                GEOMETRY OPTIMIZATION CYCLE   1            *
         *************************************************************
---------------------------------
CARTESIAN COORDINATES (ANGSTROEM)
---------------------------------
  C      4.790427   -0.033866   -0.529943
  O      5.449345   -1.206924   -0.894595
  O      4.978223    1.323071   -0.737377
  C      3.506688   -0.338742    0.376154
  C      2.222300    0.400525   -0.110682
  C      0.900507   -0.386390    0.175703
  C     -0.395261    0.487294    0.065549
  C     -1.705694   -0.364774   -0.068374
  C     -3.005136    0.445345    0.258164
  C     -4.319880   -0.214526   -0.270541
  F      3.211587   -1.692050    0.412735
  F      3.741062    0.055286    1.689949
  F      2.314152    0.589704   -1.455769
  F      0.794029   -1.413561   -0.700839
  F      0.958351   -0.884509    1.435093
  F     -0.498373    1.260266    1.173340
  F     -0.299075    1.289513   -1.020911
  F     -1.641790   -1.418189    0.779524
  F     -1.792381   -0.831392   -1.336864
  F     -2.918792    1.679227   -0.295171
  F     -3.119771    0.573780    1.598580
  F     -4.383116   -1.504378    0.089128
  F     -5.365670    0.430529    0.260394
  F     -4.396020   -0.128551   -1.602942
  H      5.903122   -2.014775   -1.145719

----------------------------
CARTESIAN COORDINATES (A.U.)
----------------------------
  NO LB      ZA    FRAG     MASS         X           Y           Z
   0 C     6.0000    0    12.011    9.052595   -0.063997   -1.001448
   1 O     8.0000    0    15.999   10.297770   -2.280756   -1.690539
   2 O     8.0000    0    15.999    9.407478    2.500242   -1.393441
   3 C     6.0000    0    12.011    6.626679   -0.640129    0.710828
   4 C     6.0000    0    12.011    4.199538    0.756882   -0.209158
   5 C     6.0000    0    12.011    1.701711   -0.730171    0.332031
   6 C     6.0000    0    12.011   -0.746935    0.920852    0.123870
   7 C     6.0000    0    12.011   -3.223294   -0.689323   -0.129207
   8 C     6.0000    0    12.011   -5.678884    0.841580    0.487859
   9 C     6.0000    0    12.011   -8.163391   -0.405395   -0.511248
  10 F     9.0000    0    18.998    6.069021   -3.197512    0.779956
  11 F     9.0000    0    18.998    7.069582    0.104475    3.193540
  12 F     9.0000    0    18.998    4.373114    1.114379   -2.751005
  13 F     9.0000    0    18.998    1.500497   -2.671244   -1.324394
  14 F     9.0000    0    18.998    1.811020   -1.671480    2.711934
  15 F     9.0000    0    18.998   -0.941789    2.381557    2.217292
  16 F     9.0000    0    18.998   -0.565170    2.436826   -1.929242
  17 F     9.0000    0    18.998   -3.102534   -2.679989    1.473086
  18 F     9.0000    0    18.998   -3.387110   -1.571102   -2.526306
  19 F     9.0000    0    18.998   -5.515718    3.173280   -0.557793
  20 F     9.0000    0    18.998   -5.895513    1.084287    3.020878
  21 F     9.0000    0    18.998   -8.282888   -2.842862    0.168427
  22 F     9.0000    0    18.998  -10.139646    0.813581    0.492074
  23 F     9.0000    0    18.998   -8.307275   -0.242925   -3.029121
  24 H     1.0000    0     1.008   11.155285   -3.807372   -2.165096

--------------------------------
INTERNAL COORDINATES (ANGSTROEM)
--------------------------------
 C      0   0   0     0.000000000000     0.00000000     0.00000000
 O      1   0   0     1.393990356793     0.00000000     0.00000000
 O      1   2   0     1.385486802956   136.13177198     0.00000000
 C      1   2   3     1.600608594862   111.52489317   181.18992567
 C      4   1   2     1.559863783763   113.16872737   228.91614990
 C      5   4   1     1.564732561934   113.58394786   148.64287440
 C      6   5   4     1.566675459667   113.91280616   163.93256239
 C      7   6   5     1.568817348692   113.20226571   162.98152714
 C      8   7   6     1.565717094808   113.22984595   162.36375422
 C      9   8   7     1.563173062643   114.14707705   162.41661495
 F      4   1   2     1.385592665621   111.82651119   350.11101305
 F      4   1   2     1.391490625050   110.20991618   108.63170802
 F      5   4   1     1.361428031433   108.58179722    28.57841973
 F      6   5   4     1.354527570075   109.22822656   285.03385927
 F      6   5   4     1.355556277776   108.59004089    43.81583148
 F      7   6   5     1.354739297058   108.88346185   283.65347401
 F      7   6   5     1.353957667090   109.15230848    42.38718856
 F      8   7   6     1.353771473879   109.25240264    41.79387651
 F      8   7   6     1.354368423305   108.69554158   283.25540020
 F      9   8   7     1.355028009646   109.45719767    41.95842364
 F      9   8   7     1.351425618925   109.05210362   282.91820052
 F     10   9   8     1.340551089588   110.79953142    50.02756898
 F     10   9   8     1.338530275591   108.63493714   169.35523750
 F     10   9   8     1.337341214598   110.96044107   288.72891896
 H      2   1   3     0.960000000033   180.00000000     0.00000000

---------------------------
INTERNAL COORDINATES (A.U.)
---------------------------
 C      0   0   0     0.000000000000     0.00000000     0.00000000
 O      1   0   0     2.634260007667     0.00000000     0.00000000
 O      1   2   0     2.618190619750   136.13177198     0.00000000
 C      1   2   3     3.024711891890   111.52489317   181.18992567
 C      4   1   2     2.947715357535   113.16872737   228.91614990
 C      5   4   1     2.956916014884   113.58394786   148.64287440
 C      6   5   4     2.960587559506   113.91280616   163.93256239
 C      7   6   5     2.964635143173   113.20226571   162.98152714
 C      8   7   6     2.958776512386   113.22984595   162.36375422
 C      9   8   7     2.953968988318   114.14707705   162.41661495
 F      4   1   2     2.618390671194   111.82651119   350.11101305
 F      4   1   2     2.629536199263   110.20991618   108.63170802
 F      5   4   1     2.572726130452   108.58179722    28.57841973
 F      6   5   4     2.559686148288   109.22822656   285.03385927
 F      6   5   4     2.561630124115   108.59004089    43.81583148
 F      7   6   5     2.560086254300   108.88346185   283.65347401
 F      7   6   5     2.558609187723   109.15230848    42.38718856
 F      8   7   6     2.558257333546   109.25240264    41.79387651
 F      8   7   6     2.559385404477   108.69554158   283.25540020
 F      9   8   7     2.560631842023   109.45719767    41.95842364
 F      9   8   7     2.553824310132   109.05210362   282.91820052
 F     10   9   8     2.533274427850   110.79953142    50.02756898
 F     10   9   8     2.529455642830   108.63493714   169.35523750
 F     10   9   8     2.527208643196   110.96044107   288.72891896
 H      2   1   3     1.814137088628   180.00000000     0.00000000

---------------------
BASIS SET INFORMATION
---------------------
There are 4 groups of distinct atoms

 Group   1 Type C   : 11s6p2d1f contracted to 5s3p2d1f pattern {62111/411/11/1}
 Group   2 Type O   : 11s6p2d1f contracted to 5s3p2d1f pattern {62111/411/11/1}
 Group   3 Type F   : 11s6p2d1f contracted to 5s3p2d1f pattern {62111/411/11/1}
 Group   4 Type H   : 5s1p contracted to 3s1p pattern {311/1}

Atom   0C    basis set group =>   1
Atom   1O    basis set group =>   2
Atom   2O    basis set group =>   2
Atom   3C    basis set group =>   1
Atom   4C    basis set group =>   1
Atom   5C    basis set group =>   1
Atom   6C    basis set group =>   1
Atom   7C    basis set group =>   1
Atom   8C    basis set group =>   1
Atom   9C    basis set group =>   1
Atom  10F    basis set group =>   3
Atom  11F    basis set group =>   3
Atom  12F    basis set group =>   3
Atom  13F    basis set group =>   3
Atom  14F    basis set group =>   3
Atom  15F    basis set group =>   3
Atom  16F    basis set group =>   3
Atom  17F    basis set group =>   3
Atom  18F    basis set group =>   3
Atom  19F    basis set group =>   3
Atom  20F    basis set group =>   3
Atom  21F    basis set group =>   3
Atom  22F    basis set group =>   3
Atom  23F    basis set group =>   3
Atom  24H    basis set group =>   4
---------------------------------
AUXILIARY/J BASIS SET INFORMATION
---------------------------------
There are 4 groups of distinct atoms

 Group   1 Type C   : 12s5p4d2f1g contracted to 6s4p3d1f1g pattern {711111/2111/211/2/1}
 Group   2 Type O   : 12s5p4d2f1g contracted to 6s4p3d1f1g pattern {711111/2111/211/2/1}
 Group   3 Type F   : 12s5p4d2f1g contracted to 6s4p3d1f1g pattern {711111/2111/211/2/1}
 Group   4 Type H   : 5s2p1d contracted to 3s1p1d pattern {311/2/1}

Atom   0C    basis set group =>   1
Atom   1O    basis set group =>   2
Atom   2O    basis set group =>   2
Atom   3C    basis set group =>   1
Atom   4C    basis set group =>   1
Atom   5C    basis set group =>   1
Atom   6C    basis set group =>   1
Atom   7C    basis set group =>   1
Atom   8C    basis set group =>   1
Atom   9C    basis set group =>   1
Atom  10F    basis set group =>   3
Atom  11F    basis set group =>   3
Atom  12F    basis set group =>   3
Atom  13F    basis set group =>   3
Atom  14F    basis set group =>   3
Atom  15F    basis set group =>   3
Atom  16F    basis set group =>   3
Atom  17F    basis set group =>   3
Atom  18F    basis set group =>   3
Atom  19F    basis set group =>   3
Atom  20F    basis set group =>   3
Atom  21F    basis set group =>   3
Atom  22F    basis set group =>   3
Atom  23F    basis set group =>   3
Atom  24H    basis set group =>   4


           ************************************************************
           *        Program running with 20 parallel MPI-processes    *
           *              working on a common directory               *
           ************************************************************
------------------------------------------------------------------------------
                             ORCA STARTUP CALCULATIONS
                           -- RI-GTO INTEGRALS CHOSEN --
------------------------------------------------------------------------------
------------------------------------------------------------------------------
                   ___                                                        
                  /   \      - P O W E R E D   B Y -                         
                 /     \                                                     
                 |  |  |   _    _      __       _____    __    __             
                 |  |  |  | |  | |    /  \     |  _  \  |  |  /  |          
                  \  \/   | |  | |   /    \    | | | |  |  | /  /          
                 / \  \   | |__| |  /  /\  \   | |_| |  |  |/  /          
                |  |  |   |  __  | /  /__\  \  |    /   |      \           
                |  |  |   | |  | | |   __   |  |    \   |  |\   \          
                \     /   | |  | | |  |  |  |  | |\  \  |  | \   \       
                 \___/    |_|  |_| |__|  |__|  |_| \__\ |__|  \__/        
                                                                              
                      - O R C A' S   B I G   F R I E N D -                    
                                      &                                       
                       - I N T E G R A L  F E E D E R -                       
                                                                              
 v1 FN, 2020, v2 2021, v3 2022-2024                                           
------------------------------------------------------------------------------


----------------------
SHARK INTEGRAL PACKAGE
----------------------

Number of atoms                             ...     25
Number of basis functions                   ...    750
Number of shells                            ...    268
Maximum angular momentum                    ...      3
Integral batch strategy                     ... SHARK/LIBINT Hybrid
RI-J (if used) integral strategy            ... SPLIT-RIJ (Revised 2003 algorithm where possible)
Printlevel                                  ...      1
Contraction scheme used                     ... SEGMENTED contraction
Prescreening option                         ... SCHWARTZ
   Thresh                                   ... 2.500e-11
   Tcut                                     ... 2.500e-12
   Tpresel                                  ... 2.500e-12 
Coulomb Range Separation                    ... NOT USED
Exchange Range Separation                   ... NOT USED
Multipole approximations                    ... NOT USED
Finite Nucleus Model                        ... NOT USED
CABS basis                                  ... NOT available
Auxiliary Coulomb fitting basis             ... AVAILABLE
   # of basis functions in Aux-J            ...   1187
   # of shells in Aux-J                     ...    365
   Maximum angular momentum in Aux-J        ...      4
Auxiliary J/K fitting basis                 ... NOT available
Auxiliary Correlation fitting basis         ... NOT available
Auxiliary 'external' fitting basis          ... NOT available

Checking pre-screening integrals            ... done (  0.0 sec) Dimension = 268
Check shell pair data                       ... done (  0.0 sec)
Shell pair information
Shell pair cut-off parameter TPreSel        ...   2.5e-12
Total number of shell pairs                 ...     36046
Shell pairs after pre-screening             ...     22035
Total number of primitive shell pairs       ...    118872
Primitive shell pairs kept                  ...     46707
          la=0 lb=0:   4199 shell pairs
          la=1 lb=0:   6017 shell pairs
          la=1 lb=1:   2083 shell pairs
          la=2 lb=0:   3272 shell pairs
          la=2 lb=1:   2394 shell pairs
          la=2 lb=2:    673 shell pairs
          la=3 lb=0:   1484 shell pairs
          la=3 lb=1:   1149 shell pairs
          la=3 lb=2:    616 shell pairs
          la=3 lb=3:    148 shell pairs

Calculating one electron integrals          ... done (  0.1 sec)
Calculating RI/J V-Matrix + Cholesky decomp.... done (  0.1 sec)
Calculating Nuclear repulsion               ... done (  0.0 sec) ENN=   2623.917721077008 Eh

Diagonalization of the overlap matrix:
Smallest eigenvalue                        ... 6.454e-05
Time for diagonalization                   ...    0.130 sec
Threshold for overlap eigenvalues          ... 1.000e-07
Number of eigenvalues below threshold      ... 0
Time for construction of square roots      ...    0.057 sec
Total time needed                          ...    0.193 sec

-------------------
DFT GRID GENERATION
-------------------

General Integration Accuracy     IntAcc      ... 4.388
Radial Grid Type                 RadialGrid  ... OptM3 with GC (2021)
Angular Grid (max. ang.)         AngularGrid ... 4 (Lebedev-302)
Angular grid pruning method      GridPruning ... 4 (adaptive)
Weight generation scheme         WeightScheme... mBecke (2022)
Basis function cutoff            BFCut       ... 1.0000e-11
Integration weight cutoff        WCut        ... 1.0000e-14
Partially contracted basis set               ... off
Rotationally invariant grid construction     ... off
Angular grids for H and He will be reduced by one unit

Total number of grid points                  ...   148753
Total number of batches                      ...     2337
Average number of points per batch           ...       63
Average number of grid points per atom       ...     5950

--------------------
COSX GRID GENERATION
--------------------

GRIDX 1
-------
General Integration Accuracy     IntAcc      ... 3.816
Radial Grid Type                 RadialGrid  ... OptM3 with GC (2021)
Angular Grid (max. ang.)         AngularGrid ... 1 (Lebedev-50)
Angular grid pruning method      GridPruning ... 4 (adaptive)
Weight generation scheme         WeightScheme... mBecke (2022)
Basis function cutoff            BFCut       ... 1.0000e-11
Integration weight cutoff        WCut        ... 1.0000e-14
Partially contracted basis set               ... on
Rotationally invariant grid construction     ... off
Angular grids for H and He will be reduced by one unit

Total number of grid points                  ...    18716
Total number of batches                      ...      158
Average number of points per batch           ...      118
Average number of grid points per atom       ...      749
UseSFitting                                  ... on

GRIDX 2
-------
General Integration Accuracy     IntAcc      ... 4.020
Radial Grid Type                 RadialGrid  ... OptM3 with GC (2021)
Angular Grid (max. ang.)         AngularGrid ... 2 (Lebedev-110)
Angular grid pruning method      GridPruning ... 4 (adaptive)
Weight generation scheme         WeightScheme... mBecke (2022)
Basis function cutoff            BFCut       ... 1.0000e-11
Integration weight cutoff        WCut        ... 1.0000e-14
Partially contracted basis set               ... on
Rotationally invariant grid construction     ... off
Angular grids for H and He will be reduced by one unit

Total number of grid points                  ...    44123
Total number of batches                      ...      359
Average number of points per batch           ...      122
Average number of grid points per atom       ...     1765
UseSFitting                                  ... on

GRIDX 3
-------
General Integration Accuracy     IntAcc      ... 4.338
Radial Grid Type                 RadialGrid  ... OptM3 with GC (2021)
Angular Grid (max. ang.)         AngularGrid ... 3 (Lebedev-194)
Angular grid pruning method      GridPruning ... 4 (adaptive)
Weight generation scheme         WeightScheme... mBecke (2022)
Basis function cutoff            BFCut       ... 1.0000e-11
Integration weight cutoff        WCut        ... 1.0000e-14
Partially contracted basis set               ... on
Rotationally invariant grid construction     ... off
Angular grids for H and He will be reduced by one unit

Total number of grid points                  ...    97698
Total number of batches                      ...      774
Average number of points per batch           ...      126
Average number of grid points per atom       ...     3908
UseSFitting                                  ... on
Initializing property integral containers    ... done (  0.0 sec)

SHARK setup successfully completed in   4.0 seconds

Maximum memory used throughout the entire STARTUP-calculation: 56.9 MB


           ************************************************************
           *        Program running with 20 parallel MPI-processes    *
           *              working on a common directory               *
           ************************************************************
-------------------------------------------------------------------------------
                                 ORCA GUESS
                   Start orbitals & Density for SCF / CASSCF
-------------------------------------------------------------------------------

------------
SCF SETTINGS
------------
Hamiltonian:
 Density Functional     Method          .... DFT(GTOs)
 Exchange Functional    Exchange        .... TPSS
 Correlation Functional Correlation     .... TPSS
 LDA part of GGA corr.  LDAOpt          .... PW91-LDA
 Gradients option       PostSCFGGA      .... off
 Hybrid DFT is turned on
   Fraction HF Exchange ScalHFX         ....  0.100000
   Scaling of DF-GGA-X  ScalDFX         ....  0.900000
   Scaling of DF-GGA-C  ScalDFC         ....  1.000000
   Scaling of DF-LDA-C  ScalLDAC        ....  1.000000
   Perturbative correction              ....  0.000000
   NL short-range parameter             ....  5.200000
 RI-approximation to the Coulomb term is turned on
   Number of AuxJ basis functions       .... 1187
   RIJ-COSX (HFX calculated with COS-X)).... on


General Settings:
 Integral files         IntName         .... rf_mecn_opt_TP_C3_P_B
 Hartree-Fock type      HFTyp           .... UHF
 Total Charge           Charge          ....    0
 Multiplicity           Mult            ....    2
 Number of Electrons    NEL             ....  191
 Basis Dimension        Dim             ....  750
 Nuclear Repulsion      ENuc            ....   2623.9177210770 Eh

Convergence Acceleration:
 AO-DIIS                CNVDIIS         .... on
   Start iteration      DIISMaxIt       ....     0
   Startup error        DIISStart       ....  0.200000
   # of expansion vecs  DIISMaxEq       ....     5
   Bias factor          DIISBfac        ....   1.050
   Max. coefficient     DIISMaxC        ....  10.000
 MO-DIIS                CNVKDIIS        .... off
 Trust-Rad. Augm. Hess. CNVTRAH         .... auto
   Auto Start mean grad. ratio tolernc. ....  1.125000
   Auto Start start iteration           ....    50
   Auto Start num. interpolation iter.  ....    10
   Max. Number of Micro iterations      ....    24
   Max. Number of Macro iterations      .... Maxiter - #DIIS iter
   Number of Davidson start vectors     ....     2
   Converg. threshold    (grad. norm)   ....   1.000e-05
   Grad. Scal. Fac. for Micro threshold ....   0.100
   Minimum threshold for Micro iter.    ....   1.000e-02
   NR start threshold (gradient norm)   ....   1.000e-04
   Initial trust radius                 ....   0.400
   Minimum AH scaling param. (alpha)    ....   1.000
   Maximum AH scaling param. (alpha)    .... 1000.000
   Quad. conv. algorithm                .... NR
   White noise on init. David. guess    .... on
   Maximum white noise                  ....   0.010
   Pseudo random numbers                .... off
   Inactive MOs                         .... canonical
   Orbital update algorithm             .... Taylor
   Preconditioner                       .... Diag
   Full preconditioner red. dimension   ....   250
 SOSCF                  CNVSOSCF        .... on
   Start iteration      SOSCFMaxIt      ....   150
   Startup grad/error   SOSCFStart      ....  0.001000
   Hessian update       SOSCFHessUp     .... L-BFGS
 Level Shifting         CNVShift        .... on
   Level shift para.    LevelShift      ....    0.2500
   Turn off err/grad.   ShiftErr        ....    0.0000
 Zerner damping         CNVZerner       .... off
 Static damping         CNVDamp         .... on
   Fraction old density DampFac         ....    0.8500
   Max. Damping (<1)    DampMax         ....    0.9800
   Min. Damping (>=0)   DampMin         ....    0.0000
   Turn off err/grad.   DampErr         ....    0.0300

SCF Procedure:
 Maximum # iterations   MaxIter         ....  1500
 SCF integral mode      SCFMode         .... Direct
   Integral package                     .... SHARK and LIBINT hybrid scheme
 Reset frequency        DirectResetFreq ....    20
 Integral Threshold     Thresh          ....  2.500e-11 Eh
 Primitive CutOff       TCut            ....  2.500e-12 Eh

Convergence Tolerance:
 Convergence Check Mode ConvCheckMode   .... Total+1el-Energy
 Convergence forced     ConvForced      .... 0
 Energy Change          TolE            ....  1.000e-08 Eh
 1-El. energy change                    ....  1.000e-05 Eh
 Orbital Gradient       TolG            ....  1.000e-05
 Orbital Rotation angle TolX            ....  1.000e-05
 DIIS Error             TolErr          ....  5.000e-07

------------------------------
INITIAL GUESS: MODEL POTENTIAL
------------------------------
Loading Hartree-Fock densities                     ... done
Calculating cut-offs                               ... done
Initializing the effective Hamiltonian             ... done
Setting up the integral package (SHARK)            ... done
Starting the Coulomb interaction                   ... done (   0.3 sec)
Making the grid                                    ... done (   0.5 sec)
Mapping shells                                     ... done
Starting the XC term evaluation                    ... done (   0.2 sec)
  promolecular density results
     # of electrons  =    191.000271550
     EX              =   -197.376192416
     EC              =     -6.683058622
     EX+EC           =   -204.059251038
Transforming the Hamiltonian                       ... done (   0.1 sec)
Diagonalizing the Hamiltonian                      ... done (   0.1 sec)
Back transforming the eigenvectors                 ... done (   0.0 sec)
Now organizing SCF variables                       ... done
                      ------------------
                      INITIAL GUESS DONE (   1.3 sec)
                      ------------------
             **** ENERGY FILE WAS UPDATED (rf_mecn_opt_TP_C3_P_B.en.tmp) ****
Finished Guess after   2.3 sec
Maximum memory used throughout the entire GUESS-calculation: 45.9 MB


           ************************************************************
           *        Program running with 20 parallel MPI-processes    *
           *              working on a common directory               *
           ************************************************************

-------------------------------------------------------------------------------------------
                                      ORCA LEAN-SCF
                              memory conserving SCF solver
-------------------------------------------------------------------------------------------

--------------------
CPCM SOLVATION MODEL
--------------------
CPCM parameters:
  Epsilon                                         ...      35.6880
  Refrac                                          ...       1.3442
  Rsolv                                           ...       1.3000
  Surface type                                    ... GAUSSIAN VDW
  Discretization scheme                           ... Constant charge density
    Threshold for H atoms                         ...       5.0000 (charges/Ang^2)
    Threshold for non-H atoms                     ...       5.0000 (charges/Ang^2)
  Epsilon function type                           ...         CPCM
Solvent:                                          ... ACETONITRILE
SMD-CDS solvent descriptors:
  Soln                                            ...       1.3442
  Soln25                                          ...       1.3416
  Sola                                            ...       0.0700
  Solb                                            ...       0.3200
  Solg                                            ...      41.2500
  Solc                                            ...       0.0000
  Solh                                            ...       0.0000
Radii:
  Scheme                                          ... Element-dependent radii
  Radius for C  used is    3.4960 Bohr (=   1.8500 Ang.)
  Radius for O  used is    4.0969 Bohr (=   2.1680 Ang.)
  Radius for F  used is    3.2692 Bohr (=   1.7300 Ang.)
  Radius for H  used is    2.2677 Bohr (=   1.2000 Ang.)
Calculating surface                               ...        done! (  0.0s)
Cavity surface points                             ...         2173
Cavity Volume                                     ...    2135.3840
Cavity Surface-area                               ...    1122.6499
Calculating surface distance matrix               ...        done! (  0.1s)
Performing Cholesky decomposition & store         ...        done! (  0.1s)
Overall time for CPCM initialization              ...                 0.2s

----------------------------------------D-I-I-S--------------------------------------------
Iteration    Energy (Eh)           Delta-E    RMSDP     MaxDP     DIISErr   Damp  Time(sec)
-------------------------------------------------------------------------------------------
               ***  Starting incremental Fock matrix formation  ***
    1    -1853.8437691209787772     0.00e+00  2.02e-04  1.64e-02  1.44e-01  0.850   8.2
Warning: op=1 Small HOMO/LUMO gap (   0.025) - skipping pre-diagonalization
         Will do a full diagonalization
    2    -1853.9866207039317487    -1.43e-01  1.89e-04  1.51e-02  8.64e-02  0.850   5.7
                               ***Turning on AO-DIIS***
    3    -1854.0555720771667438    -6.90e-02  8.00e-05  4.45e-03  4.93e-02  0.850   4.7
    4    -1854.0958807807196536    -4.03e-02  5.04e-05  3.57e-03  3.45e-02  0.850   4.4
    5    -1854.1244238201647931    -2.85e-02  4.10e-05  3.87e-03  2.71e-02  0.850   4.4
    6    -1854.1471943271221789    -2.28e-02  2.43e-04  2.62e-02  2.50e-02  0.000   4.3
    7    -1854.2699796973488446    -1.23e-01  4.26e-05  4.33e-03  5.22e-03  0.000   4.8
    8    -1854.2702899808723487    -3.10e-04  1.17e-05  1.36e-03  3.74e-03  0.000   4.1
    9    -1854.2704011246310074    -1.11e-04  5.20e-06  4.01e-04  1.05e-03  0.000   3.9
                              *** Initializing SOSCF ***
---------------------------------------S-O-S-C-F--------------------------------------
Iteration    Energy (Eh)           Delta-E    RMSDP     MaxDP     MaxGrad    Time(sec)
--------------------------------------------------------------------------------------
   10    -1854.2704229361447688    -2.18e-05  3.37e-06  3.98e-04  3.10e-04     4.6
               *** Restarting incremental Fock matrix formation ***
   11    -1854.2704387401486201    -1.58e-05  4.05e-06  3.74e-04  4.80e-04     7.9
   12    -1854.2704397127822631    -9.73e-07  3.52e-06  3.24e-04  5.39e-04     5.0
   13    -1854.2704412199086619    -1.51e-06  2.41e-06  2.39e-04  3.90e-04     5.0
   14    -1854.2704417532208936    -5.33e-07  1.37e-06  9.08e-05  1.31e-04     4.9
   15    -1854.2704423829504776    -6.30e-07  9.38e-07  9.49e-05  6.54e-05     4.6
   16    -1854.2704425489996538    -1.66e-07  3.79e-07  2.84e-05  3.06e-05     4.4
   17    -1854.2704426086552303    -5.97e-08  2.87e-07  2.88e-05  2.18e-05     3.9
   18    -1854.2704425850774896     2.36e-08  1.39e-07  9.02e-06  7.04e-06     3.9
   19    -1854.2704425913611885    -6.28e-09  7.91e-08  4.48e-06  3.66e-06     3.7
                 **** Energy Check signals convergence ****

               *****************************************************
               *                     SUCCESS                       *
               *           SCF CONVERGED AFTER  19 CYCLES          *
               *****************************************************

Recomputing exchange energy using gridx3       ... done (    8.751 sec)
Old exchange energy                            :    -19.881031368 Eh
New exchange energy                            :    -19.881044827 Eh
Exchange energy change after final integration :     -0.000013460 Eh
Total energy after final integration           :  -1854.270456051 Eh

SMD CDS free energy correction energy :                 3.62113     Kcal/mol
Total Energy after SMD CDS correction =             -1854.264685421 Eh
             **** ENERGY FILE WAS UPDATED (rf_mecn_opt_TP_C3_P_B.en.tmp) ****

----------------
TOTAL SCF ENERGY
----------------

Total Energy       :      -1854.26468542142243 Eh          -50457.10728 eV

Components:
Nuclear Repulsion  :       2623.91772107700808 Eh           71400.43112 eV
Electronic Energy  :      -4478.17217863943370 Eh         -121857.26008 eV
One Electron Energy:      -7799.75349448245470 Eh         -212242.08276 eV
Two Electron Energy:       3321.58131584302055 Eh           90384.82268 eV
CPCM Dielectric    :         -0.01598502893496 Eh              -0.43497 eV
SMD CDS (Gcds)     :          0.00577062983621 Eh               0.15703 eV

Virial components:
Potential Energy   :      -3701.14474140041511 Eh         -100713.26858 eV
Kinetic Energy     :       1846.88005597899246 Eh           50256.16130 eV
Virial Ratio       :          2.00399843477573

DFT components:
N(Alpha)           :       95.999969387791 electrons
N(Beta)            :       94.999959895641 electrons
N(Total)           :      190.999929283433 electrons
E(X)               :     -180.728375287562 Eh       
E(C)               :       -6.698315115057 Eh       
E(XC)              :     -187.426690402619 Eh       

CPCM Solvation Model Properties:
Surface-charge          :         -0.00877457462705
Corrected charge        :          0.00000000000000
Outlying charge corr.   :          0.00000418477472 Eh               0.00011 eV
Free-energy (cav+disp)  :          0.00577062983621 Eh               0.15703 eV

---------------
SCF CONVERGENCE
---------------

  Last Energy change         ...    6.2837e-09  Tolerance :   1.0000e-08
  Last MAX-Density change    ...    4.4813e-06  Tolerance :   1.0000e-07
  Last RMS-Density change    ...    7.9078e-08  Tolerance :   5.0000e-09
  Last DIIS Error            ...    3.0995e-04  Tolerance :   5.0000e-07
  Last Orbital Gradient      ...    3.6554e-06  Tolerance :   1.0000e-05
  Last Orbital Rotation      ...    3.7098e-05  Tolerance :   1.0000e-05


----------------------
UHF SPIN CONTAMINATION
----------------------

Warning: in a DFT calculation there is little theoretical justification to 
         calculate <S**2> as in Hartree-Fock theory. We will do it anyways
         but you should keep in mind that the values have only limited relevance

Expectation value of <S**2>     :     0.753980
Ideal value S*(S+1) for S=0.5   :     0.750000
Deviation                       :     0.003980

----------------
ORBITAL ENERGIES
----------------
                 SPIN UP ORBITALS
  NO   OCC          E(Eh)            E(eV) 
   0   1.0000     -24.662288      -671.0950 
   1   1.0000     -24.661550      -671.0749 
   2   1.0000     -24.661502      -671.0736 
   3   1.0000     -24.661318      -671.0686 
   4   1.0000     -24.661270      -671.0673 
   5   1.0000     -24.660815      -671.0549 
   6   1.0000     -24.660358      -671.0425 
   7   1.0000     -24.660346      -671.0421 
   8   1.0000     -24.660105      -671.0356 
   9   1.0000     -24.659047      -671.0068 
  10   1.0000     -24.657467      -670.9638 
  11   1.0000     -24.653812      -670.8643 
  12   1.0000     -24.645363      -670.6344 
  13   1.0000     -24.641793      -670.5373 
  14   1.0000     -19.128439      -520.5113 
  15   1.0000     -19.096537      -519.6432 
  16   1.0000     -10.397819      -282.9391 
  17   1.0000     -10.346902      -281.5535 
  18   1.0000     -10.346017      -281.5294 
  19   1.0000     -10.343839      -281.4702 
  20   1.0000     -10.343616      -281.4641 
  21   1.0000     -10.341285      -281.4007 
  22   1.0000     -10.337448      -281.2963 
  23   1.0000     -10.279217      -279.7117 
  24   1.0000      -1.321855       -35.9695 
  25   1.0000      -1.299303       -35.3558 
  26   1.0000      -1.284312       -34.9479 
  27   1.0000      -1.276572       -34.7373 
  28   1.0000      -1.274452       -34.6796 
  29   1.0000      -1.255097       -34.1529 
  30   1.0000      -1.245475       -33.8911 
  31   1.0000      -1.238180       -33.6926 
  32   1.0000      -1.232101       -33.5272 
  33   1.0000      -1.231766       -33.5180 
  34   1.0000      -1.225245       -33.3406 
  35   1.0000      -1.222029       -33.2531 
  36   1.0000      -1.219238       -33.1772 
  37   1.0000      -1.200701       -32.6727 
  38   1.0000      -1.064810       -28.9749 
  39   1.0000      -0.977529       -26.5999 
  40   1.0000      -0.827437       -22.5157 
  41   1.0000      -0.811459       -22.0809 
  42   1.0000      -0.783912       -21.3313 
  43   1.0000      -0.748685       -20.3728 
  44   1.0000      -0.716883       -19.5074 
  45   1.0000      -0.683778       -18.6065 
  46   1.0000      -0.661957       -18.0128 
  47   1.0000      -0.643297       -17.5050 
  48   1.0000      -0.623357       -16.9624 
  49   1.0000      -0.618167       -16.8212 
  50   1.0000      -0.611037       -16.6272 
  51   1.0000      -0.601735       -16.3741 
  52   1.0000      -0.597884       -16.2693 
  53   1.0000      -0.594990       -16.1905 
  54   1.0000      -0.583644       -15.8818 
  55   1.0000      -0.581884       -15.8339 
  56   1.0000      -0.578168       -15.7328 
  57   1.0000      -0.566049       -15.4030 
  58   1.0000      -0.558625       -15.2010 
  59   1.0000      -0.555932       -15.1277 
  60   1.0000      -0.549337       -14.9482 
  61   1.0000      -0.547026       -14.8853 
  62   1.0000      -0.491805       -13.3827 
  63   1.0000      -0.487604       -13.2684 
  64   1.0000      -0.483615       -13.1598 
  65   1.0000      -0.478134       -13.0107 
  66   1.0000      -0.475810       -12.9474 
  67   1.0000      -0.474307       -12.9066 
  68   1.0000      -0.470754       -12.8099 
  69   1.0000      -0.469140       -12.7660 
  70   1.0000      -0.460311       -12.5257 
  71   1.0000      -0.457554       -12.4507 
  72   1.0000      -0.457202       -12.4411 
  73   1.0000      -0.448982       -12.2174 
  74   1.0000      -0.446782       -12.1575 
  75   1.0000      -0.438284       -11.9263 
  76   1.0000      -0.435958       -11.8630 
  77   1.0000      -0.435038       -11.8380 
  78   1.0000      -0.428756       -11.6670 
  79   1.0000      -0.425851       -11.5880 
  80   1.0000      -0.425171       -11.5695 
  81   1.0000      -0.423548       -11.5253 
  82   1.0000      -0.421984       -11.4828 
  83   1.0000      -0.418290       -11.3822 
  84   1.0000      -0.417915       -11.3720 
  85   1.0000      -0.415260       -11.2998 
  86   1.0000      -0.413535       -11.2529 
  87   1.0000      -0.408910       -11.1270 
  88   1.0000      -0.406212       -11.0536 
  89   1.0000      -0.392194       -10.6721 
  90   1.0000      -0.367423        -9.9981 
  91   1.0000      -0.341577        -9.2948 
  92   1.0000      -0.326655        -8.8887 
  93   1.0000      -0.324411        -8.8277 
  94   1.0000      -0.300216        -8.1693 
  95   1.0000      -0.283712        -7.7202 
  96   0.0000      -0.107841        -2.9345 
  97   0.0000      -0.027098        -0.7374 
  98   0.0000      -0.010365        -0.2820 
  99   0.0000      -0.009329        -0.2539 
 100   0.0000       0.015429         0.4198 
 101   0.0000       0.052985         1.4418 
 102   0.0000       0.062836         1.7098 
 103   0.0000       0.066507         1.8098 
 104   0.0000       0.093108         2.5336 
 105   0.0000       0.095966         2.6114 
 106   0.0000       0.102178         2.7804 

                 SPIN DOWN ORBITALS
  NO   OCC          E(Eh)            E(eV) 
   0   1.0000     -24.662288      -671.0950 
   1   1.0000     -24.661548      -671.0748 
   2   1.0000     -24.661502      -671.0736 
   3   1.0000     -24.661316      -671.0685 
   4   1.0000     -24.661270      -671.0673 
   5   1.0000     -24.660815      -671.0549 
   6   1.0000     -24.660346      -671.0421 
   7   1.0000     -24.660086      -671.0351 
   8   1.0000     -24.659021      -671.0061 
   9   1.0000     -24.656392      -670.9345 
  10   1.0000     -24.656161      -670.9283 
  11   1.0000     -24.653825      -670.8647 
  12   1.0000     -24.643990      -670.5970 
  13   1.0000     -24.641643      -670.5332 
  14   1.0000     -19.128456      -520.5117 
  15   1.0000     -19.096321      -519.6373 
  16   1.0000     -10.397820      -282.9391 
  17   1.0000     -10.346917      -281.5539 
  18   1.0000     -10.346020      -281.5295 
  19   1.0000     -10.343654      -281.4651 
  20   1.0000     -10.343497      -281.4609 
  21   1.0000     -10.341110      -281.3959 
  22   1.0000     -10.337508      -281.2979 
  23   1.0000     -10.262949      -279.2690 
  24   1.0000      -1.321854       -35.9695 
  25   1.0000      -1.299050       -35.3489 
  26   1.0000      -1.283657       -34.9301 
  27   1.0000      -1.276512       -34.7357 
  28   1.0000      -1.273719       -34.6597 
  29   1.0000      -1.252992       -34.0956 
  30   1.0000      -1.239398       -33.7257 
  31   1.0000      -1.237542       -33.6752 
  32   1.0000      -1.232002       -33.5245 
  33   1.0000      -1.231368       -33.5072 
  34   1.0000      -1.224819       -33.3290 
  35   1.0000      -1.221915       -33.2500 
  36   1.0000      -1.218478       -33.1565 
  37   1.0000      -1.199203       -32.6320 
  38   1.0000      -1.064813       -28.9750 
  39   1.0000      -0.977162       -26.5899 
  40   1.0000      -0.825846       -22.4724 
  41   1.0000      -0.803435       -21.8626 
  42   1.0000      -0.779005       -21.1978 
  43   1.0000      -0.747562       -20.3422 
  44   1.0000      -0.713152       -19.4059 
  45   1.0000      -0.682951       -18.5840 
  46   1.0000      -0.661223       -17.9928 
  47   1.0000      -0.639013       -17.3884 
  48   1.0000      -0.622466       -16.9382 
  49   1.0000      -0.617602       -16.8058 
  50   1.0000      -0.610783       -16.6202 
  51   1.0000      -0.599996       -16.3267 
  52   1.0000      -0.597090       -16.2477 
  53   1.0000      -0.593322       -16.1451 
  54   1.0000      -0.582392       -15.8477 
  55   1.0000      -0.580373       -15.7927 
  56   1.0000      -0.577480       -15.7140 
  57   1.0000      -0.564586       -15.3632 
  58   1.0000      -0.556493       -15.1429 
  59   1.0000      -0.553855       -15.0712 
  60   1.0000      -0.546647       -14.8750 
  61   1.0000      -0.542445       -14.7607 
  62   1.0000      -0.487525       -13.2662 
  63   1.0000      -0.483941       -13.1687 
  64   1.0000      -0.477885       -13.0039 
  65   1.0000      -0.476113       -12.9557 
  66   1.0000      -0.474055       -12.8997 
  67   1.0000      -0.471108       -12.8195 
  68   1.0000      -0.468714       -12.7544 
  69   1.0000      -0.465725       -12.6730 
  70   1.0000      -0.459746       -12.5103 
  71   1.0000      -0.456649       -12.4261 
  72   1.0000      -0.454680       -12.3725 
  73   1.0000      -0.446803       -12.1581 
  74   1.0000      -0.445204       -12.1146 
  75   1.0000      -0.436088       -11.8666 
  76   1.0000      -0.434577       -11.8254 
  77   1.0000      -0.434067       -11.8116 
  78   1.0000      -0.426562       -11.6073 
  79   1.0000      -0.425371       -11.5749 
  80   1.0000      -0.424779       -11.5588 
  81   1.0000      -0.421970       -11.4824 
  82   1.0000      -0.421375       -11.4662 
  83   1.0000      -0.417569       -11.3626 
  84   1.0000      -0.417208       -11.3528 
  85   1.0000      -0.413916       -11.2632 
  86   1.0000      -0.413280       -11.2459 
  87   1.0000      -0.408281       -11.1099 
  88   1.0000      -0.405184       -11.0256 
  89   1.0000      -0.390220       -10.6184 
  90   1.0000      -0.365444        -9.9442 
  91   1.0000      -0.340944        -9.2776 
  92   1.0000      -0.324933        -8.8419 
  93   1.0000      -0.323940        -8.8149 
  94   1.0000      -0.296299        -8.0627 
  95   0.0000      -0.149015        -4.0549 
  96   0.0000      -0.105427        -2.8688 
  97   0.0000      -0.024600        -0.6694 
  98   0.0000      -0.008610        -0.2343 
  99   0.0000      -0.007371        -0.2006 
 100   0.0000       0.021083         0.5737 
 101   0.0000       0.062980         1.7138 
 102   0.0000       0.067819         1.8455 
 103   0.0000       0.070452         1.9171 
 104   0.0000       0.093981         2.5573 
 105   0.0000       0.096863         2.6358 
*Only the first 10 virtual orbitals were printed.

                    ********************************
                    * MULLIKEN POPULATION ANALYSIS *
                    ********************************

--------------------------------------------
MULLIKEN ATOMIC CHARGES AND SPIN POPULATIONS
--------------------------------------------
   0 C :    0.335222   -0.001878
   1 O :   -0.430767   -0.000607
   2 O :   -0.371333    0.005813
   3 C :    0.378130    0.004033
   4 C :    0.088433    0.847829
   5 C :    0.357032    0.007080
   6 C :    0.300399    0.000005
   7 C :    0.273752    0.000521
   8 C :    0.297401   -0.000043
   9 C :    0.408582   -0.000012
  10 F :   -0.164398    0.028700
  11 F :   -0.174012    0.002650
  12 F :   -0.144449    0.081769
  13 F :   -0.148974    0.023599
  14 F :   -0.157584    0.000107
  15 F :   -0.154975    0.000176
  16 F :   -0.152270    0.000350
  17 F :   -0.149715   -0.000027
  18 F :   -0.149435   -0.000013
  19 F :   -0.147629    0.000003
  20 F :   -0.144383   -0.000005
  21 F :   -0.136420    0.000002
  22 F :   -0.132428   -0.000001
  23 F :   -0.133199    0.000002
  24 H :    0.453023   -0.000054
Sum of atomic charges         :    0.0000000
Sum of atomic spin populations:    1.0000000

-----------------------------------------------------
MULLIKEN REDUCED ORBITAL CHARGES AND SPIN POPULATIONS
-----------------------------------------------------
CHARGE
  0 C s       :     3.177357  s :     3.177357
      pz      :     0.791965  p :     2.255359
      px      :     0.804210
      py      :     0.659184
      dz2     :     0.016463  d :     0.213969
      dxz     :     0.015268
      dyz     :     0.059263
      dx2y2   :     0.054278
      dxy     :     0.068696
      f0      :     0.001778  f :     0.018093
      f+1     :     0.001065
      f-1     :     0.002335
      f+2     :     0.002558
      f-2     :     0.001965
      f+3     :     0.003878
      f-3     :     0.004513

  1 O s       :     3.667375  s :     3.667375
      pz      :     1.717689  p :     4.746627
      px      :     1.685944
      py      :     1.342994
      dz2     :     0.001646  d :     0.013926
      dxz     :     0.001195
      dyz     :     0.003040
      dx2y2   :     0.003132
      dxy     :     0.004913
      f0      :     0.000275  f :     0.002840
      f+1     :     0.000128
      f-1     :     0.000380
      f+2     :     0.000245
      f-2     :     0.000430
      f+3     :     0.000941
      f-3     :     0.000439

  2 O s       :     3.884654  s :     3.884654
      pz      :     1.534054  p :     4.461573
      px      :     1.689958
      py      :     1.237561
      dz2     :     0.003091  d :     0.023789
      dxz     :     0.000315
      dyz     :     0.006299
      dx2y2   :     0.008795
      dxy     :     0.005289
      f0      :     0.000117  f :     0.001316
      f+1     :     0.000012
      f-1     :     0.000224
      f+2     :     0.000230
      f-2     :     0.000029
      f+3     :     0.000299
      f-3     :     0.000405

  3 C s       :     3.077814  s :     3.077814
      pz      :     0.683851  p :     2.242147
      px      :     0.915264
      py      :     0.643032
      dz2     :     0.049650  d :     0.276164
      dxz     :     0.055127
      dyz     :     0.065896
      dx2y2   :     0.047635
      dxy     :     0.057857
      f0      :     0.005354  f :     0.025745
      f+1     :     0.003628
      f-1     :     0.003947
      f+2     :     0.003865
      f-2     :     0.002048
      f+3     :     0.003892
      f-3     :     0.003012

  4 C s       :     3.308709  s :     3.308709
      pz      :     0.621233  p :     2.438339
      px      :     0.912976
      py      :     0.904130
      dz2     :     0.033339  d :     0.148747
      dxz     :     0.044089
      dyz     :     0.035995
      dx2y2   :     0.014349
      dxy     :     0.020976
      f0      :     0.003040  f :     0.015771
      f+1     :     0.004851
      f-1     :     0.004136
      f+2     :     0.000539
      f-2     :     0.000972
      f+3     :     0.001087
      f-3     :     0.001146

  5 C s       :     3.108503  s :     3.108503
      pz      :     0.595492  p :     2.196697
      px      :     0.901484
      py      :     0.699720
      dz2     :     0.077155  d :     0.309540
      dxz     :     0.064777
      dyz     :     0.059541
      dx2y2   :     0.039560
      dxy     :     0.068506
      f0      :     0.005002  f :     0.028228
      f+1     :     0.004460
      f-1     :     0.006091
      f+2     :     0.003423
      f-2     :     0.004357
      f+3     :     0.002705
      f-3     :     0.002189

  6 C s       :     3.128891  s :     3.128891
      pz      :     0.586749  p :     2.241996
      px      :     0.923014
      py      :     0.732233
      dz2     :     0.082252  d :     0.300617
      dxz     :     0.063751
      dyz     :     0.056286
      dx2y2   :     0.036255
      dxy     :     0.062074
      f0      :     0.006263  f :     0.028096
      f+1     :     0.003980
      f-1     :     0.004285
      f+2     :     0.004204
      f-2     :     0.005241
      f+3     :     0.002194
      f-3     :     0.001929

  7 C s       :     3.135200  s :     3.135200
      pz      :     0.599263  p :     2.261150
      px      :     0.939848
      py      :     0.722040
      dz2     :     0.076659  d :     0.301705
      dxz     :     0.064188
      dyz     :     0.062907
      dx2y2   :     0.035835
      dxy     :     0.062117
      f0      :     0.004845  f :     0.028194
      f+1     :     0.004446
      f-1     :     0.006472
      f+2     :     0.003213
      f-2     :     0.004321
      f+3     :     0.002728
      f-3     :     0.002169

  8 C s       :     3.103122  s :     3.103122
      pz      :     0.630115  p :     2.275661
      px      :     0.942891
      py      :     0.702655
      dz2     :     0.060803  d :     0.295578
      dxz     :     0.062911
      dyz     :     0.073872
      dx2y2   :     0.036779
      dxy     :     0.061214
      f0      :     0.003603  f :     0.028238
      f+1     :     0.005051
      f-1     :     0.008345
      f+2     :     0.002418
      f-2     :     0.002482
      f+3     :     0.003867
      f-3     :     0.002473

  9 C s       :     3.022765  s :     3.022765
      pz      :     0.666456  p :     2.167144
      px      :     0.821910
      py      :     0.678778
      dz2     :     0.067667  d :     0.361389
      dxz     :     0.071156
      dyz     :     0.088114
      dx2y2   :     0.065174
      dxy     :     0.069278
      f0      :     0.004463  f :     0.040119
      f+1     :     0.008025
      f-1     :     0.008953
      f+2     :     0.004504
      f-2     :     0.003177
      f+3     :     0.007532
      f-3     :     0.003465

 10 F s       :     3.921447  s :     3.921447
      pz      :     1.893210  p :     5.227909
      px      :     1.877755
      py      :     1.456945
      dz2     :     0.002033  d :     0.014415
      dxz     :     0.000312
      dyz     :     0.002759
      dx2y2   :     0.005425
      dxy     :     0.003887
      f0      :     0.000050  f :     0.000627
      f+1     :     0.000016
      f-1     :     0.000126
      f+2     :     0.000070
      f-2     :     0.000018
      f+3     :     0.000167
      f-3     :     0.000179

 11 F s       :     3.921050  s :     3.921050
      pz      :     1.475018  p :     5.238495
      px      :     1.899915
      py      :     1.863562
      dz2     :     0.006258  d :     0.013852
      dxz     :     0.003234
      dyz     :     0.003545
      dx2y2   :     0.000403
      dxy     :     0.000412
      f0      :     0.000223  f :     0.000616
      f+1     :     0.000131
      f-1     :     0.000182
      f+2     :     0.000036
      f-2     :     0.000038
      f+3     :     0.000003
      f-3     :     0.000003

 12 F s       :     3.925757  s :     3.925757
      pz      :     1.451020  p :     5.202209
      px      :     1.907957
      py      :     1.843232
      dz2     :     0.007631  d :     0.015819
      dxz     :     0.003441
      dyz     :     0.004230
      dx2y2   :     0.000259
      dxy     :     0.000259
      f0      :     0.000319  f :     0.000664
      f+1     :     0.000141
      f-1     :     0.000174
      f+2     :     0.000012
      f-2     :     0.000015
      f+3     :     0.000001
      f-3     :     0.000001

 13 F s       :     3.918200  s :     3.918200
      pz      :     1.701906  p :     5.214353
      px      :     1.896499
      py      :     1.615948
      dz2     :     0.002572  d :     0.015723
      dxz     :     0.001549
      dyz     :     0.006186
      dx2y2   :     0.002965
      dxy     :     0.002452
      f0      :     0.000078  f :     0.000697
      f+1     :     0.000013
      f-1     :     0.000187
      f+2     :     0.000195
      f-2     :     0.000103
      f+3     :     0.000059
      f-3     :     0.000063

 14 F s       :     3.918503  s :     3.918503
      pz      :     1.494530  p :     5.222633
      px      :     1.903296
      py      :     1.824806
      dz2     :     0.006495  d :     0.015748
      dxz     :     0.003167
      dyz     :     0.004689
      dx2y2   :     0.000615
      dxy     :     0.000782
      f0      :     0.000234  f :     0.000701
      f+1     :     0.000107
      f-1     :     0.000241
      f+2     :     0.000051
      f-2     :     0.000058
      f+3     :     0.000005
      f-3     :     0.000004

 15 F s       :     3.919484  s :     3.919484
      pz      :     1.586117  p :     5.218991
      px      :     1.900519
      py      :     1.732354
      dz2     :     0.004284  d :     0.015800
      dxz     :     0.002526
      dyz     :     0.006004
      dx2y2   :     0.001482
      dxy     :     0.001504
      f0      :     0.000118  f :     0.000700
      f+1     :     0.000055
      f-1     :     0.000262
      f+2     :     0.000126
      f-2     :     0.000100
      f+3     :     0.000021
      f-3     :     0.000018

 16 F s       :     3.919420  s :     3.919420
      pz      :     1.596772  p :     5.216274
      px      :     1.900144
      py      :     1.719358
      dz2     :     0.004100  d :     0.015872
      dxz     :     0.002414
      dyz     :     0.006114
      dx2y2   :     0.001636
      dxy     :     0.001609
      f0      :     0.000110  f :     0.000704
      f+1     :     0.000049
      f-1     :     0.000260
      f+2     :     0.000137
      f-2     :     0.000102
      f+3     :     0.000024
      f-3     :     0.000022

 17 F s       :     3.919203  s :     3.919203
      pz      :     1.711071  p :     5.213874
      px      :     1.900621
      py      :     1.602182
      dz2     :     0.002477  d :     0.015934
      dxz     :     0.001462
      dyz     :     0.006237
      dx2y2   :     0.003209
      dxy     :     0.002550
      f0      :     0.000078  f :     0.000704
      f+1     :     0.000010
      f-1     :     0.000181
      f+2     :     0.000203
      f-2     :     0.000098
      f+3     :     0.000063
      f-3     :     0.000071

 18 F s       :     3.919255  s :     3.919255
      pz      :     1.487032  p :     5.213570
      px      :     1.899617
      py      :     1.826921
      dz2     :     0.006705  d :     0.015908
      dxz     :     0.003327
      dyz     :     0.004616
      dx2y2   :     0.000570
      dxy     :     0.000690
      f0      :     0.000246  f :     0.000702
      f+1     :     0.000115
      f-1     :     0.000234
      f+2     :     0.000046
      f-2     :     0.000054
      f+3     :     0.000004
      f-3     :     0.000003

 19 F s       :     3.918684  s :     3.918684
      pz      :     1.813895  p :     5.212431
      px      :     1.897432
      py      :     1.501104
      dz2     :     0.002003  d :     0.015813
      dxz     :     0.000642
      dyz     :     0.004911
      dx2y2   :     0.004915
      dxy     :     0.003343
      f0      :     0.000079  f :     0.000700
      f+1     :     0.000004
      f-1     :     0.000119
      f+2     :     0.000182
      f-2     :     0.000055
      f+3     :     0.000114
      f-3     :     0.000147

 20 F s       :     3.916253  s :     3.916253
      pz      :     1.434875  p :     5.211417
      px      :     1.897337
      py      :     1.879206
      dz2     :     0.008355  d :     0.015997
      dxz     :     0.003838
      dyz     :     0.003388
      dx2y2   :     0.000205
      dxy     :     0.000211
      f0      :     0.000365  f :     0.000717
      f+1     :     0.000168
[...]

 15 F s       :     0.000100  s :     0.000100
      pz      :     0.000206  p :     0.000182
      px      :    -0.000243
      py      :     0.000219
      dz2     :     0.000005  d :     0.000187
      dxz     :     0.000017
      dyz     :     0.000025
      dx2y2   :     0.000139
      dxy     :     0.000001
      f0      :     0.000000  f :     0.000011
      f+1     :     0.000002
      f-1     :     0.000000
      f+2     :     0.000005
      f-2     :     0.000001
      f+3     :     0.000000
      f-3     :     0.000003

 16 F s       :     0.000115  s :     0.000115
      pz      :     0.000365  p :     0.000445
      px      :    -0.000166
      py      :     0.000245
      dz2     :     0.000007  d :     0.000186
      dxz     :     0.000009
      dyz     :     0.000032
      dx2y2   :     0.000141
      dxy     :    -0.000004
      f0      :     0.000000  f :     0.000012
      f+1     :     0.000002
      f-1     :     0.000001
      f+2     :     0.000006
      f-2     :     0.000001
      f+3     :     0.000000
      f-3     :     0.000002

 17 F s       :     0.000033  s :     0.000033
      pz      :     0.000029  p :    -0.000182
      px      :    -0.000088
      py      :    -0.000123
      dz2     :    -0.000000  d :     0.000026
      dxz     :     0.000004
      dyz     :     0.000004
      dx2y2   :     0.000004
      dxy     :     0.000015
      f0      :    -0.000000  f :     0.000001
      f+1     :     0.000000
      f-1     :     0.000000
      f+2     :     0.000000
      f-2     :     0.000001
      f+3     :     0.000001
      f-3     :    -0.000000

 18 F s       :     0.000006  s :     0.000006
      pz      :    -0.000025  p :     0.000203
      px      :     0.000064
      py      :     0.000164
      dz2     :     0.000008  d :     0.000047
      dxz     :     0.000021
      dyz     :     0.000001
      dx2y2   :    -0.000002
      dxy     :     0.000018
      f0      :     0.000001  f :     0.000002
      f+1     :     0.000001
      f-1     :     0.000000
      f+2     :    -0.000000
      f-2     :     0.000001
      f+3     :     0.000000
      f-3     :     0.000000

 19 F s       :     0.000003  s :     0.000003
      pz      :     0.000008  p :    -0.000071
      px      :    -0.000018
      py      :    -0.000061
      dz2     :    -0.000000  d :     0.000008
      dxz     :     0.000003
      dyz     :     0.000001
      dx2y2   :     0.000005
      dxy     :    -0.000000
      f0      :     0.000000  f :     0.000001
      f+1     :    -0.000000
      f-1     :     0.000000
      f+2     :     0.000000
      f-2     :     0.000000
      f+3     :    -0.000000
      f-3     :     0.000001

 20 F s       :     0.000001  s :     0.000001
      pz      :    -0.000047  p :     0.000071
      px      :     0.000000
      py      :     0.000118
      dz2     :     0.000002  d :     0.000017
      dxz     :     0.000004
      dyz     :     0.000009
      dx2y2   :     0.000002
      dxy     :    -0.000000
      f0      :     0.000000  f :     0.000001
      f+1     :     0.000000
      f-1     :     0.000000
      f+2     :     0.000000
      f-2     :    -0.000000
      f+3     :    -0.000000
      f-3     :     0.000000

 21 F s       :    -0.000001  s :    -0.000001
      pz      :     0.000005  p :    -0.000022
      px      :    -0.000017
      py      :    -0.000010
      dz2     :     0.000000  d :     0.000003
      dxz     :    -0.000000
      dyz     :     0.000001
      dx2y2   :     0.000000
      dxy     :     0.000002
      f0      :     0.000000  f :     0.000000
      f+1     :     0.000000
      f-1     :     0.000000
      f+2     :     0.000000
      f-2     :    -0.000000
      f+3     :     0.000000
      f-3     :     0.000000

 22 F s       :     0.000013  s :     0.000013
      pz      :    -0.000002  p :     0.000239
      px      :     0.000242
      py      :    -0.000001
      dz2     :     0.000001  d :     0.000010
      dxz     :     0.000001
      dyz     :     0.000000
      dx2y2   :     0.000004
      dxy     :     0.000003
      f0      :     0.000000  f :     0.000001
      f+1     :     0.000000
      f-1     :     0.000000
      f+2     :     0.000000
      f-2     :     0.000000
      f+3     :    -0.000000
      f-3     :     0.000000

 23 F s       :     0.000001  s :     0.000001
      pz      :    -0.000006  p :     0.000014
      px      :     0.000010
      py      :     0.000010
      dz2     :     0.000001  d :     0.000004
      dxz     :     0.000003
      dyz     :     0.000001
      dx2y2   :    -0.000000
      dxy     :    -0.000000
      f0      :     0.000000  f :     0.000000
      f+1     :     0.000000
      f-1     :     0.000000
      f+2     :     0.000000
      f-2     :     0.000000
      f+3     :    -0.000000
      f-3     :    -0.000000

 24 H s       :     0.000327  s :     0.000327
      pz      :    -0.000015  p :    -0.000015
      px      :     0.000003
      py      :    -0.000003



                      *****************************
                      * MAYER POPULATION ANALYSIS *
                      *****************************

  NA   - Mulliken gross atomic population
  ZA   - Total nuclear charge
  QA   - Mulliken gross atomic charge
  VA   - Mayer's total valence
  BVA  - Mayer's bonded valence
  FA   - Mayer's free valence

  ATOM       NA         ZA         QA         VA         BVA        FA
  0 C      5.7724     6.0000     0.2276     4.3862     4.3862     0.0000
  1 O      8.3423     8.0000    -0.3423     2.1948     2.1948     0.0000
  2 O      8.2917     8.0000    -0.2917     2.2111     2.2111     0.0000
  3 C      5.5902     6.0000     0.4098     4.1677     4.1643     0.0034
  4 C      5.8988     6.0000     0.1012     3.9483     3.3750     0.5734
  5 C      5.6645     6.0000     0.3355     4.3076     4.3044     0.0031
  6 C      5.7241     6.0000     0.2759     4.2052     4.2044     0.0008
  7 C      5.7273     6.0000     0.2727     4.2115     4.2114     0.0000
  8 C      5.7030     6.0000     0.2970     4.2443     4.2443     0.0000
  9 C      5.5916     6.0000     0.4084     4.5705     4.5705     0.0000
 10 F      9.1730     9.0000    -0.1730     1.1301     1.1290     0.0010
 11 F      9.1661     9.0000    -0.1661     1.1452     1.1449     0.0003
 12 F      9.1305     9.0000    -0.1305     1.2190     1.2072     0.0117
 13 F      9.1564     9.0000    -0.1564     1.1625     1.1622     0.0003
 14 F      9.1525     9.0000    -0.1525     1.1686     1.1686     0.0001
 15 F      9.1536     9.0000    -0.1536     1.1780     1.1780     0.0000
 16 F      9.1532     9.0000    -0.1532     1.1754     1.1754     0.0000
 17 F      9.1490     9.0000    -0.1490     1.1806     1.1806     0.0000
 18 F      9.1493     9.0000    -0.1493     1.1788     1.1788     0.0000
 19 F      9.1468     9.0000    -0.1468     1.1804     1.1804     0.0000
 20 F      9.1439     9.0000    -0.1439     1.1823     1.1823     0.0000
 21 F      9.1357     9.0000    -0.1357     1.1893     1.1893     0.0000
 22 F      9.1325     9.0000    -0.1325     1.1925     1.1925     0.0000
 23 F      9.1330     9.0000    -0.1330     1.1926     1.1926     0.0000
 24 H      0.6186     1.0000     0.3814     0.8797     0.8797     0.0000

  Mayer bond orders larger than 0.100000
B(  0-C ,  1-O ) :   1.3114 B(  0-C ,  2-O ) :   2.0728 B(  0-C ,  3-C ) :   0.8899 
B(  1-O , 24-H ) :   0.8204 B(  3-C ,  4-C ) :   1.0450 B(  3-C , 10-F ) :   1.0857 
B(  3-C , 11-F ) :   1.0898 B(  4-C ,  5-C ) :   1.0589 B(  4-C , 12-F ) :   1.1322 
B(  5-C ,  6-C ) :   0.9406 B(  5-C , 13-F ) :   1.0799 B(  5-C , 14-F ) :   1.1014 
B(  6-C ,  7-C ) :   0.9381 B(  6-C , 15-F ) :   1.0943 B(  6-C , 16-F ) :   1.0912 
B(  7-C ,  8-C ) :   0.9402 B(  7-C , 17-F ) :   1.0961 B(  7-C , 18-F ) :   1.1025 
B(  8-C ,  9-C ) :   0.9700 B(  8-C , 19-F ) :   1.1005 B(  8-C , 20-F ) :   1.1116 
B(  9-C , 21-F ) :   1.1591 B(  9-C , 22-F ) :   1.1626 B(  9-C , 23-F ) :   1.1709 


-------
TIMINGS
-------

Total SCF time: 0 days 0 hours 0 min 49 sec 

Total time                  ....      49.113 sec
Sum of individual times     ....      47.855 sec  ( 97.4%)

SCF preparation             ....       1.462 sec  (  3.0%)
Fock matrix formation       ....      40.971 sec  ( 83.4%)
  Startup                   ....       0.182 sec  (  0.4% of F)
  Split-RI-J                ....       2.560 sec  (  6.2% of F)
  Chain of spheres X        ....      26.594 sec  ( 64.9% of F)
  XC integration            ....       8.857 sec  ( 21.6% of F)
    Basis function eval.    ....       0.592 sec  (  6.7% of XC)
    Density eval.           ....       2.786 sec  ( 31.5% of XC)
    XC-Functional eval.     ....       0.112 sec  (  1.3% of XC)
    XC-Potential eval.      ....       2.856 sec  ( 32.3% of XC)
  CPCM terms                ....       2.312 sec  (  5.6% of F)
Diagonalization             ....       0.000 sec  (  0.0%)
Density matrix formation    ....       0.515 sec  (  1.0%)
Total Energy calculation    ....       0.288 sec  (  0.6%)
Population analysis         ....       0.505 sec  (  1.0%)
Orbital Transformation      ....       0.518 sec  (  1.1%)
Orbital Orthonormalization  ....       0.000 sec  (  0.0%)
DIIS solution               ....       0.690 sec  (  1.4%)
SOSCF solution              ....       2.907 sec  (  5.9%)
Finished LeanSCF after  49.6 sec

Maximum memory used throughout the entire LEANSCF-calculation: 108.6 MB


-------------------------------------------------------------------------------
                          DFT DISPERSION CORRECTION                            
                                                                               
                              DFTD3 V3.1  Rev 1                                
                          USING Becke-Johnson damping                          
-------------------------------------------------------------------------------
The TPSSH functional is recognized
Active option DFTDOPT                   ...         4   

molecular C6(AA) [au] = 6514.479698 


            DFT-D V3
 parameters
 s6 scaling factor         :     1.0000 
 a1 scaling factor         :     0.4529 
 s8 scaling factor         :     2.2382 
 a2 scaling factor         :     4.6550 
 ad hoc parameters k1-k3   :    16.0000     1.3333    -4.0000 

 Edisp/kcal,au: -18.619330965240  -0.029671789429 
 E6   /kcal   :  -9.028353476 
 E8   /kcal   :  -9.590977489 
 % E8         :  51.510859906 

-------------------------   ----------------
Dispersion correction           -0.029671789
-------------------------   ----------------


-------------------------   --------------------
FINAL SINGLE POINT ENERGY     -1854.407545998650
-------------------------   --------------------

                                *** OPTIMIZATION RUN DONE ***



           ************************************************************
           *        Program running with 20 parallel MPI-processes    *
           *              working on a common directory               *
           ************************************************************

------------------------------------------------------------------------------
                              ORCA PROPERTY CALCULATIONS
------------------------------------------------------------------------------

GBWName                                 ... rf_mecn_opt_TP_C3_P_B.gbw
Number of atoms                         ...     25
Number of basis functions               ...    750
Max core memory                         ...   8000 MB

Electric properties:
Dipole moment                           ... YES
Quadrupole moment                       ...  NO
Static polarizability (Dipole/Dipole)   ...  NO
Static polarizability (Dipole/Quad.)    ...  NO
Static polarizability (Quad./Quad.)     ...  NO
Static polarizability (Velocity)        ...  NO

Atomic electric properties:
Dipole moment                           ...  NO
Quadrupole moment                       ...  NO
Static polarizability                   ...  NO

Choice of electric origin               ... Center of mass
Position of electric origin             ...    -0.271178    -0.335118    -0.042059

General magnetic properties:
Magnetizability                         ...  NO

EPR properties:
g-Tensor (aka g-matrix)                 ...  NO
Zero-Field splitting spin-orbit         ...  NO
Zero-field splitting spin-spin          ...  NO
Hyperfine couplings                     ...  NO (   0 nuclei)
Quadrupole couplings                    ...  NO (   0 nuclei)
Contact density                         ...  NO (   0 nuclei)

NMR properties:
Chemical shifts                         ...  NO (   0 nuclei)
Spin-rotation constants                 ...  NO (   0 nuclei)
Spin-spin couplings                     ...  NO (   0 nuclei,    0 pairs)

Choice of magnetic origin               ... GIAO
Position of magnetic origin             ...     0.000000     0.000000     0.000000

Properties with geometric perturbations:
SCF Hessian                             ...  NO
IR spectrum                             ...  NO
VCD spectrum                            ...  NO
X-ray spectroscopy properties:
SCF XES/XAS/RIXS spectra                ...  NO


-------------
DIPOLE MOMENT
-------------

Method             : SCF
Type of density    : Electron Density
Multiplicity       :   2
Irrep              :   0
Energy             : -1854.3778742092210905 Eh
Relativity type    : 
Basis              : AO
                                X                 Y                 Z
Electronic contribution:    -14.692309420      -1.688997176       1.159257266
Nuclear contribution   :     15.785892072       1.494968307      -1.960019384
                        -----------------------------------------
Total Dipole Moment    :      1.093582653      -0.194028869      -0.800762117
                        -----------------------------------------
Magnitude (a.u.)       :      1.369229779
Magnitude (Debye)      :      3.480305515



--------------------
Rotational spectrum 
--------------------
 
Rotational constants in cm-1:             0.020422             0.004047             0.003969 
Rotational constants in MHz :           612.249163           121.330956           118.977550 

Dipole components along the rotational axes: 
x,y,z [a.u.] :    -1.112634    -0.220274    -0.767017 
x,y,z [Debye]:    -2.828091    -0.559892    -1.949603 

 

Dipole moment calculation done in   0.1 sec 

Maximum memory used throughout the entire PROP-calculation: 56.3 MB

--------------------------------
SUGGESTED CITATIONS FOR THIS RUN
--------------------------------

Below you find a list of papers that are relevant to this ORCA run
We neither can nor want to force you to cite these papers, but we appreciate if you do
You receive ORCA, which is the product of decades of hard work by many enthusiastic individuals, for free
The only thing we kindly ask in return is that you cite our papers,
We deeply appreciate it, if you show your appreciation for ORCA by not just citing the generic ORCA reference.

Please note that relegating all ORCA citations to the supporting information does *not* help us.
SI sections are not indexed - citations you put there will not count into any citation statistics
But we need these citations in order to attract the funding resources that allow us to do what we are doing

Therefore, if you are a happy ORCA user, please consider citing a few of the papers listed below in the main body of your paper

In addition to the list printed below, the program has created the file rf_mecn_opt_TP_C3_P_B.bibtex that contains the list in bibtex format
You can import this file easily into all common literature databanks and citation aid programs


List of essential papers. We consider these as the minimum necessary citations

  1. Neese,F.
     Software update: the ORCA program system, version 5.0
     WIRES Comput. Molec. Sci., 2022 12(1)e1606
     doi.org/10.1002/wcms.1606

List of papers to cite with high priority. The work reported in these papers was absolutely
necessary for this run to complete.
Our perspective: the developers of density functionals and basis sets usually get cited in chemistry papers
Good! But without the algorithms to do something with them, the functionals or basis sets would not do anything.
Hence, in our opinion, the algorithm design and method developments papers are equally worthy of getting cited

  1. Neese,F.
     An improvement of the resolution of the identity approximation for the formation of the Coulomb matrix
     J. Comp. Chem., 2003 24(14)1740-1747
     doi.org/10.1002/jcc.10318
  2. Neese,F.; Wennmohs,F.; Hansen,A.; Becker,U.
     Efficient, approximate and parallel Hartree-Fock and hybrid DFT calculations. A 'chain-of-spheres' algorithm for the Hartree-Fock exchange
     Chem. Phys., 2009 356(1-3)98-109
     doi.org/10.1016/j.chemphys.2008.10.036
  3. Garcia-Rates,M.; Neese,F.
     Effect of the Solute Cavity on the Solvation Energy and its Derivatives within the Framework of the Gaussian Charge Scheme
     J. Comput. Chem., 2020 41 922-939
     doi.org/10.1002/jcc.26139
  4. Helmich-Paris,B.; de Souza,B.; Neese,F.; Izsák,R.
     An improved chain of spheres for exchange algorithm
     J. Chem. Phys., 2021 155 104109
     doi.org/doi: 10.1063/5.0058766.
  5. Neese,F.
     The SHARK Integral Generation and Digestion System
     J. Comp. Chem., 2022  1-16
     doi.org/10.1002/jcc.26942
  6. Grimme,S.; Antony,J.; Ehrlich,S.; Krieg,H.
     A consistent and accurate ab initio parametrization of density functional dispersion correction (DFT-D) for the 94 elements H-Pu
     J. Chem. Phys., 2010 132 154104
     doi.org/10.1063/1.3382344
  7. Grimme,S.; Ehrlich,S.; Goerigk,L.
     Effect of the damping function in dispersion corrected density functional theory
     J. Comput. Chem., 2011 32(7)1456-1465
     doi.org/10.1002/jcc.21759

List of suggested additional citations. These are papers that are important in the 'surrounding' of 
of this run, or papers that preceded the highly important papers. If you like your results we are grateful for a citation.

  1. Izsak,R.; Neese,F.
     An overlap fitted chain of spheres exchange method
     J. Chem. Phys., 2011 135 144105
     doi.org/10.1063/1.3646921
  2. Izsak,R.; Hansen,A.; Neese,F.
     The resolution of identity and chain of spheres approximations for the LPNO-CCSD singles Fock term
     Molec. Phys., 2012 110 2413-2417
     doi.org/10.1080/00268976.2012.687466
  3. Neese,F.
     The ORCA program system
     WIRES Comput. Molec. Sci., 2012 2(1)73-78
     doi.org/10.1002/wcms.81
  4. Izsak,R.; Neese,F.; Klopper,W.
     Robust fitting techniques in the chain of spheres approximation to the Fock exchange: The role of the complementary space
     J. Chem. Phys., 2013 139 
     doi.org/10.1063/1.4819264
  5. Neese,F.
     Software update: the ORCA program system, version 4.0
     WIRES Comput. Molec. Sci., 2018 8(1)1-6
     doi.org/10.1002/wcms.1327
  6. Neese,F.; Wennmohs,F.; Becker,U.; Riplinger,C.
     The ORCA quantum chemistry program package
     J. Chem. Phys., 2020 152 Art. No. L224108
     doi.org/10.1063/5.0004608

List of optional additional citations

  1. Neese,F.
     Approximate second-order SCF convergence for spin unrestricted wavefunctions
     Chem. Phys. Lett., 2000 325(1-3)93-98
     doi.org/10.1016/s0009-2614(00)00662-x

Timings for individual modules:

Sum of individual times          ...     3551.618 sec (=  59.194 min)
Startup calculation              ...      171.936 sec (=   2.866 min)   4.8 %
SCF iterations                   ...     2557.026 sec (=  42.617 min)  72.0 %
Property calculations            ...        1.085 sec (=   0.018 min)   0.0 %
SCF Gradient evaluation          ...      820.867 sec (=  13.681 min)  23.1 %
Geometry relaxation              ...        0.704 sec (=   0.012 min)   0.0 %
                             ****ORCA TERMINATED NORMALLY****
TOTAL RUN TIME: 0 days 0 hours 59 minutes 39 seconds 389 msec
