
                                 *****************
                                 * O   R   C   A *
                                 *****************

                                            #,                                       
                                            ###                                      
                                            ####                                     
                                            #####                                    
                                            ######                                   
                                           ########,                                 
                                     ,,################,,,,,                         
                               ,,#################################,,                 
                          ,,##########################################,,             
                       ,#########################################, ''#####,          
                    ,#############################################,,   '####,        
                  ,##################################################,,,,####,       
                ,###########''''           ''''###############################       
              ,#####''   ,,,,##########,,,,          '''####'''          '####       
            ,##' ,,,,###########################,,,                        '##       
           ' ,,###''''                  '''############,,,                           
         ,,##''                                '''############,,,,        ,,,,,,###''
      ,#''                                            '''#######################'''  
     '                                                          ''''####''''         
             ,#######,   #######,   ,#######,      ##                                
            ,#'     '#,  ##    ##  ,#'     '#,    #''#        ,####,   ,####,        
            ##       ##  ##   ,#'  ##            #'  '#       #'       #'  '#        
            ##       ##  #######   ##           ,######,      #####,   #    #        
            '#,     ,#'  ##    ##  '#,     ,#' ,#      #,     #,   #   #,  ,#        
             '#######'   ##     ##  '#######'  #'      '#     '####' # '####'        



                #########################################################
                #                        -***-                          #
                #          Department of theory and spectroscopy        #
                #                                                       #
                #                      Frank Neese                      #
                #                                                       #
                #     Directorship, Architecture, Infrastructure        #
                #                    SHARK, DRIVERS                     #
                #        Core code/Algorithms in most modules           #
                #                                                       #
                #        Max Planck Institute fuer Kohlenforschung      #
                #                Kaiser Wilhelm Platz 1                 #
                #                 D-45470 Muelheim/Ruhr                 #
                #                      Germany                          #
                #                                                       #
                #                  All rights reserved                  #
                #                        -***-                          #
                #########################################################


                         Program Version 6.0.1  -  RELEASE   -


 With contributions from (in alphabetic order):
[Max-Planck-Institut fuer Kohlenforschung]                               
  Daniel Aravena         : Magnetic Suceptibility                        
  Michael Atanasov       : Ab Initio Ligand Field Theory (pilot matlab implementation)
  Alexander A. Auer      : GIAO ZORA, VPT2 properties, NMR spectrum      
  Ute Becker             : All parallelization in ORCA, NUMFREQ, NUMCALC 
  Giovanni Bistoni       : ED, misc. LED, open-shell LED, HFLD           
  Martin Brehm           : Molecular dynamics                            
  Dmytro Bykov           : pre 5.0 version of the SCF Hessian            
  Marcos Casanova-Páez   : Triplet and SCS-CIS(D). UHF-(DLPNO)-IP/EA/STEOM-CCSD. UHF-CVS-IP/STEOM-CCSD   
  Vijay G. Chilkuri      : MRCI spin determinant printing, contributions to CSF-ICE 
  Pauline Colinet        : FMM embedding                                 
  Dipayan Datta          : RHF DLPNO-CCSD density                        
  Achintya Kumar Dutta   : EOM-CC, STEOM-CC                              
  Nicolas Foglia         : Exact transition moments, OPA infrastructure, MCD improvements    
  Dmitry Ganyushin       : Spin-Orbit,Spin-Spin,Magnetic field MRCI      
  Miquel Garcia-Rates    : C-PCM and meta-GGA Hessian, CCSD/C-PCM, Gaussian charge scheme 
  Tiago L. C. Gouveia    : GS-ROHF, GS-ROCIS                             
  Yang Guo               : DLPNO-NEVPT2, F12-NEVPT2, CIM, IAO-localization        
  Andreas Hansen         : Spin unrestricted coupled pair/coupled cluster methods 
  Ingolf Harden          : AUTO-CI MPn and infrastructure                
  Benjamin Helmich-Paris : MC-RPA, TRAH-(SCF,CASSCF), AVAS, COSX integrals, SCF dyn. polar. 
  Lee Huntington         : MR-EOM, pCC                                   
  Robert Izsak           : Overlap fitted RIJCOSX, COSX-SCS-MP3, EOM     
  Riya Kayal             : Wick's Theorem for AUTO-CI, AUTO-CI UHF-CCSDT 
  Emily Kempfer          : AUTO-CI, RHF CISDT and CCSDT                  
  Christian Kollmar      : KDIIS, OOCD, Brueckner-CCSD(T), CCSD density, CASPT2, CASPT2-K, improved NEVPT2 
  Axel Koslowski         : Symmetry handling                             
  Simone Kossmann        : meta-GGA functionals, TD-DFT gradient, OOMP2, (MP2 Hessian; deprecated post 5.0) 
  Lucas Lang             : DCDCAS                                        
  Marvin Lechner         : AUTO-CI (C++ implementation), FIC-MRCC        
  Spencer Leger          : CASSCF response                               
  Dagmar Lenk            : GEPOL surface, SMD, ORCA-2-JSON               
  Dimitrios Liakos       : Extrapolation schemes; Compound Job, initial MDCI parallelization 
  Dimitrios Manganas     : Further ROCIS development; embedding schemes. LFT, Crystal Embedding 
  Dimitrios Pantazis     : SARC Basis sets                               
  Anastasios Papadopoulos: AUTO-CI, single reference methods and gradients 
  Taras Petrenko         : pre 6.0 DFT Hessian and TD-DFT gradient, (ASA, deprecated), ECA, 1-Electron XAS/XES, NRVS 
  Peter Pinski           : DLPNO-MP2, DLPNO-MP2 Gradient                 
  Christoph Reimann      : Effective Core Potentials                     
  Marius Retegan         : Local ZFS, SOC                                
  Christoph Riplinger    : Optimizer, TS searches, QM/MM, DLPNO-CCSD(T), (RO)-DLPNO pert. Triples 
  Michael Roemelt        : Original ROCIS implementation                 
  Masaaki Saitow         : Open-shell DLPNO-CCSD energy and density      
  Barbara Sandhoefer     : DKH picture change effects                    
  Kantharuban Sivalingam : CASSCF convergence/infrastructure, NEVPT2 and variants, FIC-MRCI 
  Bernardo de Souza      : ESD, SOC TD-DFT                               
  Georgi L. Stoychev     : AutoAux, RI-MP2 NMR, DLPNO-MP2 response, X2C  
  Van Anh Tran           : RI-MP2 g-tensors                              
  Willem Van den Heuvel  : Paramagnetic NMR                              
  Zikuan Wang            : NOTCH, Electric field optimization            
  Frank Wennmohs         : Technical directorship and infrastructure     
  Hang Xu                : AUTO-CI-Response properties                   
                                                                         
[FACCTs GmbH]                                                            
  Markus Bursch, Miquel Garcia-Rates, Christoph Riplinger, Bernardo de Souza, Georgi L. Stoychev 
                                                                 
  APM, Basis sets (HGBS, AHGBS, def-TZVP (Ac-Lr), def2-XVPD (La-Lu)), CI-OPT, improved COSX, DLPNO-Multilevel,           
  DOCKER, DRACO, updates on ESD, GOAT, IRC, LR-CPCM, MBIS, meta-GGA TD-DFT gradient, ML-optimized integration grids, 
  MM, NACMEs, nearIR, NEB, NEB-TS, NL-DFT gradient (VV10), 2- and 3-layer-ONIOM, interface openCOSMO-RS, QMMM,   
  Crystal-QMMM, SF, symmetry and pop. for TD-DFT, r2SCAN hybrids, SOLVATOR                                   
                                                                         
[Other institutions]                                                     
  V. Asgeirsson          : NEB                                           
  Christoph Bannwarth    : sTDA-DFT, sTD-DFT, PBEh-3c, B97-3c, D3        
  Sebastian Ehlert       : rSCAN, r2SCAN, r2SCAN-3c, D4, dhf basis sets  
  Marvin Friede          : D4 for Fr, Ra, Ac-Lr                          
  Lars Goerigk           : TD-DFT with DH, B97 family of functionals     
  Stefan Grimme          : VdW corrections, initial TS optimization, DFT functionals, gCP, sTDA/sTD-DF 
  Waldemar Hujo          : DFT-NL                                        
  H. Jonsson             : NEB                                           
  Holger Kruse           : gCP                                           
  Marcel Mueller         : wB97X-3c, vDZP basis set                      
  Hagen Neugebauer       : wr2SCAN                                       
  Tobias Risthaus        : range-separated hybrid DFT                    
  Lukas Wittmann         : regularized MP2, r2SCAN double-hybrids, wr2SCAN        
                                                                         
We gratefully acknowledge several colleagues who have allowed us to      
interface, adapt or use parts of their codes:                            
  Ed Valeev, F. Pavosevic, A. Kumar             : LibInt (2-el integral package), F12 methods 
  Garnet Chan, S. Sharma, J. Yang, R. Olivares  : DMRG                   
  Ulf Ekstrom                                   : XCFun DFT Library      
  Mihaly Kallay                                 : mrcc  (arbitrary order and MRCC methods)
  Frank Weinhold                                : gennbo (NPA and NBO analysis)           
  Simon Mueller                                 : openCOSMO-RS                            
  Christopher J. Cramer and Donald G. Truhlar   : smd solvation model                     
  S Lehtola, MJT Oliveira, MAL Marques          : LibXC Library                           
  Liviu Ungur et al                             : ANISO software                          


 Your calculation uses the libint2 library for the computation of 2-el integrals
 For citations please refer to: http://libint.valeyev.net

 Your ORCA version has been built with support for libXC version: 6.2.2
 For citations please refer to: https://libxc.gitlab.io

 This ORCA versions uses:
   CBLAS   interface :  Fast vector & matrix operations
   LAPACKE interface :  Fast linear algebra routines
   SCALAPACK package :  Parallel linear algebra routines
   Shared memory     :  Shared parallel matrices
   BLAS/LAPACK       :  OpenBLAS 0.3.27  USE64BITINT DYNAMIC_ARCH NO_AFFINITY SkylakeX SINGLE_THREADED
        Core in use  :  SkylakeX
   Copyright (c) 2011-2014, The OpenBLAS Project


NOTE: MaxCore=8000 MB was set to SCF,MP2,MDCI,CIPSI,MRCI and CIS
      => If you want to overwrite this, your respective input block should be placed after the MaxCore statement
Your calculation utilizes the atom-pairwise dispersion correction
with the Becke-Johnson damping scheme (D3BJ)


Your calculation utilizes the SMD solvation module
Please cite in your paper:
A.V. Marenich, C.J. Cramer, D.G. Truhlar J. Phys. Chem. B, 113, (2009), 6378 

Warning: RI is on but no J-basis has been assigned. Assigning Def2/J (nothing to worry about!)
================================================================================

----- Orbital basis set information -----
Your calculation utilizes the basis: def2-TZVP
   F. Weigend and R. Ahlrichs, Phys. Chem. Chem. Phys. 7, 3297 (2005).

----- AuxJ basis set information -----
Your calculation utilizes the auxiliary basis: def2/J
   F. Weigend, Phys. Chem. Chem. Phys. 8, 1057 (2006).

================================================================================
                                        WARNINGS
                       Please study these warnings very carefully!
================================================================================



WARNING: SCAN, rSCAN, or r2SCAN functional requested.
  ===> : libXC variant has now been activated.



================================================================================
                                       INPUT FILE
================================================================================
NAME = rf_mecn_1H2O_freq_r2s_sw_03.inp
|  1> !r2scanh def2-TZVP freq d3 TightSCF SlowConv defgrid2
|  2>  
|  3> %pal
|  4> nprocs 20
|  5> end
|  6>  
|  7> %scf
|  8> MaxIter 1500
|  9> end
| 10>  
| 11> %maxcore 8000
| 12>  
| 13> !CPCM
| 14> %cpcm smd true
| 15> SMDsolvent "ACETONITRILE"
| 16> end
| 17>  
| 18> * xyz -1 1
| 19> 6        6.831820000     27.877865000      2.872044000
| 20> 6        6.061833000     26.598632000      2.443760000
| 21> 6        6.994178000     25.415713000      2.049245000
| 22> 6        6.269570000     24.037018000      2.078859000
| 23> 6        7.025431000     22.937417000      1.271829000
| 24> 6        6.594179000     21.491759000      1.653433000
| 25> 6        6.968235000     20.410999000      0.612131000
| 26> 6        6.914381000     18.966161000      1.226300000
| 27> 9        7.783920000     28.162216000      1.989659000
| 28> 9        7.380757000     27.719436000      4.068308000
| 29> 9        5.980021000     28.894403000      2.926785000
| 30> 9        5.274978000     26.234001000      3.467826000
| 31> 9        5.293434000     26.914487000      1.393939000
| 32> 9        7.459080000     25.643213000      0.811326000
| 33> 9        8.031018000     25.377506000      2.900074000
| 34> 9        6.153777000     23.649479000      3.357947000
| 35> 9        5.042073000     24.187533000      1.556346000
| 36> 9        6.785058000     23.141419000     -0.033308000
| 37> 9        8.343610000     23.073152000      1.495460000
| 38> 9        7.188462000     21.180507000      2.822795000
| 39> 9        5.260441000     21.487117000      1.839767000
| 40> 9        6.104555000     20.520440000     -0.431939000
| 41> 9        8.201760000     20.712117000      0.136672000
| 42> 8        8.002437000     18.429102000      1.421859000
| 43> 8        5.753942000     18.568465000      1.447732000
| 44> 8        3.310426000     19.410049000      0.522352000
| 45> 1        3.420232000     20.305716000      0.192051000
| 46> 1        4.203945000     19.162681000      0.838257000
| 47> *
| 48> 
| 49>                          ****END OF INPUT****
================================================================================

                       ****************************
                       * Single Point Calculation *
                       ****************************

---------------------------------
CARTESIAN COORDINATES (ANGSTROEM)
---------------------------------
  C      6.831820   27.877865    2.872044
  C      6.061833   26.598632    2.443760
  C      6.994178   25.415713    2.049245
  C      6.269570   24.037018    2.078859
  C      7.025431   22.937417    1.271829
  C      6.594179   21.491759    1.653433
  C      6.968235   20.410999    0.612131
  C      6.914381   18.966161    1.226300
  F      7.783920   28.162216    1.989659
  F      7.380757   27.719436    4.068308
  F      5.980021   28.894403    2.926785
  F      5.274978   26.234001    3.467826
  F      5.293434   26.914487    1.393939
  F      7.459080   25.643213    0.811326
  F      8.031018   25.377506    2.900074
  F      6.153777   23.649479    3.357947
  F      5.042073   24.187533    1.556346
  F      6.785058   23.141419   -0.033308
  F      8.343610   23.073152    1.495460
  F      7.188462   21.180507    2.822795
  F      5.260441   21.487117    1.839767
  F      6.104555   20.520440   -0.431939
  F      8.201760   20.712117    0.136672
  O      8.002437   18.429102    1.421859
  O      5.753942   18.568465    1.447732
  O      3.310426   19.410049    0.522352
  H      3.420232   20.305716    0.192051
  H      4.203945   19.162681    0.838257

----------------------------
CARTESIAN COORDINATES (A.U.)
----------------------------
  NO LB      ZA    FRAG     MASS         X           Y           Z
   0 C     6.0000    0    12.011   12.910269   52.681530    5.427377
   1 C     6.0000    0    12.011   11.455204   50.264130    4.618037
   2 C     6.0000    0    12.011   13.217081   48.028737    3.872512
   3 C     6.0000    0    12.011   11.847770   45.423381    3.928474
   4 C     6.0000    0    12.011   13.276141   43.345436    2.403408
   5 C     6.0000    0    12.011   12.461192   40.613539    3.124536
   6 C     6.0000    0    12.011   13.168056   38.571198    1.156760
   7 C     6.0000    0    12.011   13.066286   35.840850    2.317371
   8 F     9.0000    0    18.998   14.709477   53.218876    3.759911
   9 F     9.0000    0    18.998   13.947609   52.382143    7.687988
  10 F     9.0000    0    18.998   11.300602   54.602508    5.530822
  11 F     9.0000    0    18.998    9.968264   49.575077    6.553241
  12 F     9.0000    0    18.998   10.003141   50.861009    2.634163
  13 F     9.0000    0    18.998   14.095618   48.458650    1.533184
  14 F     9.0000    0    18.998   15.176425   47.956536    5.480346
  15 F     9.0000    0    18.998   11.628953   44.691039    6.345600
  16 F     9.0000    0    18.998    9.528137   45.707813    2.941068
  17 F     9.0000    0    18.998   12.821901   43.730944   -0.062943
  18 F     9.0000    0    18.998   15.767138   43.601938    2.826010
  19 F     9.0000    0    18.998   13.584225   40.025358    5.334309
  20 F     9.0000    0    18.998    9.940793   40.604767    3.476656
  21 F     9.0000    0    18.998   11.535937   38.778012   -0.816246
  22 F     9.0000    0    18.998   15.499080   39.140229    0.258273
  23 O     8.0000    0    15.999   15.122414   34.825956    2.686924
  24 O     8.0000    0    15.999   10.873375   35.089314    2.735817
  25 O     8.0000    0    15.999    6.255799   36.679677    0.987102
  26 H     1.0000    0     1.008    6.463302   38.372242    0.362924
  27 H     1.0000    0     1.008    7.944305   36.212219    1.584076

--------------------------------
INTERNAL COORDINATES (ANGSTROEM)
--------------------------------
 C      0   0   0     0.000000000000     0.00000000     0.00000000
 C      1   0   0     1.553301076132     0.00000000     0.00000000
 C      2   1   0     1.556986398403   113.49839399     0.00000000
 C      3   2   1     1.557797690872   112.89508425   161.06089649
 C      4   3   2     1.559405537832   112.87791247   161.70847665
 C      5   4   3     1.556125622591   113.19390996   161.40405451
 C      6   5   4     1.546696455010   114.64726280   161.90557937
 C      7   6   5     1.570878945088   111.78834108   162.53489872
 F      1   2   3     1.328891714710   110.38320459    48.14660592
 F      1   2   3     1.325699489215   110.83296766   287.09166216
 F      1   2   3     1.327368682366   108.90309953   167.60386297
 F      2   1   3     1.341941775765   107.69961028   121.71396573
 F      2   1   3     1.338777627639   107.84415535   239.24318663
 F      3   2   1     1.341765095002   108.20608002   282.03081439
 F      3   2   1     1.341792438379   108.88581561    40.12335471
 F      4   3   2     1.341514296276   108.29704361   282.94540735
 F      4   3   2     1.342543662382   108.58239823    41.09690872
 F      5   4   3     1.342675904268   108.00756440   282.51428781
 F      5   4   3     1.343886412770   108.54800610    40.30309333
 F      6   5   4     1.348131142967   107.75999061   282.70766336
 F      6   5   4     1.346699283569   108.15551927    39.70644537
 F      7   6   5     1.359412608365   107.88855807   284.40373491
 F      7   6   5     1.355845579788   107.51326318    39.38269223
 O      8   7   6     1.229040907008   115.70720728   252.52010400
 O      8   7   6     1.246520321439   113.25434586    71.66652126
 O     25   8   7     2.745061422940   132.14286969    17.92307936
 H     26  25   8     0.960924285845   107.45262528   340.32828420
 H     26  25   8     0.979470826421     3.44777721   338.94062209

---------------------------
INTERNAL COORDINATES (A.U.)
---------------------------
 C      0   0   0     0.000000000000     0.00000000     0.00000000
 C      1   0   0     2.935313637415     0.00000000     0.00000000
 C      2   1   0     2.942277887221   113.49839399     0.00000000
 C      3   2   1     2.943811007802   112.89508425   161.06089649
 C      4   3   2     2.946849398223   112.87791247   161.70847665
 C      5   4   3     2.940651256675   113.19390996   161.40405451
 C      6   5   4     2.922832712275   114.64726280   161.90557937
 C      7   6   5     2.968530995760   111.78834108   162.53489872
 F      1   2   3     2.511241402440   110.38320459    48.14660592
 F      1   2   3     2.505208970496   110.83296766   287.09166216
 F      1   2   3     2.508363288416   108.90309953   167.60386297
 F      2   1   3     2.535902443863   107.69961028   121.71396573
 F      2   1   3     2.529923070459   107.84415535   239.24318663
 F      3   2   1     2.535568565608   108.20608002   282.03081439
 F      3   2   1     2.535620237102   108.88581561    40.12335471
 F      4   3   2     2.535094624703   108.29704361   282.94540735
 F      4   3   2     2.537039844734   108.58239823    41.09690872
 F      5   4   3     2.537289745682   108.00756440   282.51428781
 F      5   4   3     2.539577275233   108.54800610    40.30309333
 F      6   5   4     2.547598652818   107.75999061   282.70766336
 F      6   5   4     2.544892830692   108.15551927    39.70644537
 F      7   6   5     2.568917532809   107.88855807   284.40373491
 F      7   6   5     2.562176825687   107.51326318    39.38269223
 O      8   7   6     2.322550721630   115.70720728   252.52010400
 O      8   7   6     2.355582027888   113.25434586    71.66652126
 O     25   8   7     5.187414310148   132.14286969    17.92307936
 H     26  25   8     1.815883735680   107.45262528   340.32828420
 H     26  25   8     1.850931618101     3.44777721   338.94062209

---------------------
BASIS SET INFORMATION
---------------------
There are 4 groups of distinct atoms

 Group   1 Type C   : 11s6p2d1f contracted to 5s3p2d1f pattern {62111/411/11/1}
 Group   2 Type F   : 11s6p2d1f contracted to 5s3p2d1f pattern {62111/411/11/1}
 Group   3 Type O   : 11s6p2d1f contracted to 5s3p2d1f pattern {62111/411/11/1}
 Group   4 Type H   : 5s1p contracted to 3s1p pattern {311/1}

Atom   0C    basis set group =>   1
Atom   1C    basis set group =>   1
Atom   2C    basis set group =>   1
Atom   3C    basis set group =>   1
Atom   4C    basis set group =>   1
Atom   5C    basis set group =>   1
Atom   6C    basis set group =>   1
Atom   7C    basis set group =>   1
Atom   8F    basis set group =>   2
Atom   9F    basis set group =>   2
Atom  10F    basis set group =>   2
Atom  11F    basis set group =>   2
Atom  12F    basis set group =>   2
Atom  13F    basis set group =>   2
Atom  14F    basis set group =>   2
Atom  15F    basis set group =>   2
Atom  16F    basis set group =>   2
Atom  17F    basis set group =>   2
Atom  18F    basis set group =>   2
Atom  19F    basis set group =>   2
Atom  20F    basis set group =>   2
Atom  21F    basis set group =>   2
Atom  22F    basis set group =>   2
Atom  23O    basis set group =>   3
Atom  24O    basis set group =>   3
Atom  25O    basis set group =>   3
Atom  26H    basis set group =>   4
Atom  27H    basis set group =>   4
---------------------------------
AUXILIARY/J BASIS SET INFORMATION
---------------------------------
There are 4 groups of distinct atoms

 Group   1 Type C   : 12s5p4d2f1g contracted to 6s4p3d1f1g pattern {711111/2111/211/2/1}
 Group   2 Type F   : 12s5p4d2f1g contracted to 6s4p3d1f1g pattern {711111/2111/211/2/1}
 Group   3 Type O   : 12s5p4d2f1g contracted to 6s4p3d1f1g pattern {711111/2111/211/2/1}
 Group   4 Type H   : 5s2p1d contracted to 3s1p1d pattern {311/2/1}

Atom   0C    basis set group =>   1
Atom   1C    basis set group =>   1
Atom   2C    basis set group =>   1
Atom   3C    basis set group =>   1
Atom   4C    basis set group =>   1
Atom   5C    basis set group =>   1
Atom   6C    basis set group =>   1
Atom   7C    basis set group =>   1
Atom   8F    basis set group =>   2
Atom   9F    basis set group =>   2
Atom  10F    basis set group =>   2
Atom  11F    basis set group =>   2
Atom  12F    basis set group =>   2
Atom  13F    basis set group =>   2
Atom  14F    basis set group =>   2
Atom  15F    basis set group =>   2
Atom  16F    basis set group =>   2
Atom  17F    basis set group =>   2
Atom  18F    basis set group =>   2
Atom  19F    basis set group =>   2
Atom  20F    basis set group =>   2
Atom  21F    basis set group =>   2
Atom  22F    basis set group =>   2
Atom  23O    basis set group =>   3
Atom  24O    basis set group =>   3
Atom  25O    basis set group =>   3
Atom  26H    basis set group =>   4
Atom  27H    basis set group =>   4


           ************************************************************
           *        Program running with 20 parallel MPI-processes    *
           *              working on a common directory               *
           ************************************************************
------------------------------------------------------------------------------
                             ORCA STARTUP CALCULATIONS
                           -- RI-GTO INTEGRALS CHOSEN --
------------------------------------------------------------------------------
------------------------------------------------------------------------------
                   ___                                                        
                  /   \      - P O W E R E D   B Y -                         
                 /     \                                                     
                 |  |  |   _    _      __       _____    __    __             
                 |  |  |  | |  | |    /  \     |  _  \  |  |  /  |          
                  \  \/   | |  | |   /    \    | | | |  |  | /  /          
                 / \  \   | |__| |  /  /\  \   | |_| |  |  |/  /          
                |  |  |   |  __  | /  /__\  \  |    /   |      \           
                |  |  |   | |  | | |   __   |  |    \   |  |\   \          
                \     /   | |  | | |  |  |  |  | |\  \  |  | \   \       
                 \___/    |_|  |_| |__|  |__|  |_| \__\ |__|  \__/        
                                                                              
                      - O R C A' S   B I G   F R I E N D -                    
                                      &                                       
                       - I N T E G R A L  F E E D E R -                       
                                                                              
 v1 FN, 2020, v2 2021, v3 2022-2024                                           
------------------------------------------------------------------------------


----------------------
SHARK INTEGRAL PACKAGE
----------------------

Number of atoms                             ...     28
Number of basis functions                   ...    818
Number of shells                            ...    294
Maximum angular momentum                    ...      3
Integral batch strategy                     ... SHARK/LIBINT Hybrid
RI-J (if used) integral strategy            ... SPLIT-RIJ (Revised 2003 algorithm where possible)
Printlevel                                  ...      1
Contraction scheme used                     ... SEGMENTED contraction
Prescreening option                         ... SCHWARTZ
   Thresh                                   ... 2.500e-11
   Tcut                                     ... 2.500e-12
   Tpresel                                  ... 2.500e-12 
Coulomb Range Separation                    ... NOT USED
Exchange Range Separation                   ... NOT USED
Multipole approximations                    ... NOT USED
Finite Nucleus Model                        ... NOT USED
CABS basis                                  ... NOT available
Auxiliary Coulomb fitting basis             ... AVAILABLE
   # of basis functions in Aux-J            ...   1296
   # of shells in Aux-J                     ...    400
   Maximum angular momentum in Aux-J        ...      4
Auxiliary J/K fitting basis                 ... NOT available
Auxiliary Correlation fitting basis         ... NOT available
Auxiliary 'external' fitting basis          ... NOT available

Checking pre-screening integrals            ... done (  0.0 sec) Dimension = 294
Check shell pair data                       ... done (  0.0 sec)
Shell pair information
Shell pair cut-off parameter TPreSel        ...   2.5e-12
Total number of shell pairs                 ...     43365
Shell pairs after pre-screening             ...     26042
Total number of primitive shell pairs       ...    142356
Primitive shell pairs kept                  ...     54557
          la=0 lb=0:   5082 shell pairs
          la=1 lb=0:   7193 shell pairs
          la=1 lb=1:   2455 shell pairs
          la=2 lb=0:   3838 shell pairs
          la=2 lb=1:   2763 shell pairs
          la=2 lb=2:    759 shell pairs
          la=3 lb=0:   1762 shell pairs
          la=3 lb=1:   1325 shell pairs
          la=3 lb=2:    699 shell pairs
          la=3 lb=3:    166 shell pairs

Calculating one electron integrals          ... done (  0.0 sec)
Calculating RI/J V-Matrix + Cholesky decomp.... done (  0.1 sec)
Calculating Nuclear repulsion               ... done (  0.0 sec) ENN=   3103.287489788057 Eh

Diagonalization of the overlap matrix:
Smallest eigenvalue                        ... 5.340e-05
Time for diagonalization                   ...    0.151 sec
Threshold for overlap eigenvalues          ... 1.000e-07
Number of eigenvalues below threshold      ... 0
Time for construction of square roots      ...    0.062 sec
Total time needed                          ...    0.222 sec

-------------------
DFT GRID GENERATION
-------------------

General Integration Accuracy     IntAcc      ... 4.388
Radial Grid Type                 RadialGrid  ... OptM3 with GC (2021)
Angular Grid (max. ang.)         AngularGrid ... 4 (Lebedev-302)
Angular grid pruning method      GridPruning ... 4 (adaptive)
Weight generation scheme         WeightScheme... mBecke (2022)
Basis function cutoff            BFCut       ... 1.0000e-11
Integration weight cutoff        WCut        ... 1.0000e-14
Partially contracted basis set               ... off
Rotationally invariant grid construction     ... off
Angular grids for H and He will be reduced by one unit

Total number of grid points                  ...   163940
Total number of batches                      ...     2574
Average number of points per batch           ...       63
Average number of grid points per atom       ...     5855

--------------------
COSX GRID GENERATION
--------------------

GRIDX 1
-------
General Integration Accuracy     IntAcc      ... 3.816
Radial Grid Type                 RadialGrid  ... OptM3 with GC (2021)
Angular Grid (max. ang.)         AngularGrid ... 1 (Lebedev-50)
Angular grid pruning method      GridPruning ... 4 (adaptive)
Weight generation scheme         WeightScheme... mBecke (2022)
Basis function cutoff            BFCut       ... 1.0000e-11
Integration weight cutoff        WCut        ... 1.0000e-14
Partially contracted basis set               ... on
Rotationally invariant grid construction     ... off
Angular grids for H and He will be reduced by one unit

Total number of grid points                  ...    20625
Total number of batches                      ...      173
Average number of points per batch           ...      119
Average number of grid points per atom       ...      737
UseSFitting                                  ... on

GRIDX 2
-------
General Integration Accuracy     IntAcc      ... 4.020
Radial Grid Type                 RadialGrid  ... OptM3 with GC (2021)
Angular Grid (max. ang.)         AngularGrid ... 2 (Lebedev-110)
Angular grid pruning method      GridPruning ... 4 (adaptive)
Weight generation scheme         WeightScheme... mBecke (2022)
Basis function cutoff            BFCut       ... 1.0000e-11
Integration weight cutoff        WCut        ... 1.0000e-14
Partially contracted basis set               ... on
Rotationally invariant grid construction     ... off
Angular grids for H and He will be reduced by one unit

Total number of grid points                  ...    48267
Total number of batches                      ...      391
Average number of points per batch           ...      123
Average number of grid points per atom       ...     1724
UseSFitting                                  ... on

GRIDX 3
-------
General Integration Accuracy     IntAcc      ... 4.338
Radial Grid Type                 RadialGrid  ... OptM3 with GC (2021)
Angular Grid (max. ang.)         AngularGrid ... 3 (Lebedev-194)
Angular grid pruning method      GridPruning ... 4 (adaptive)
Weight generation scheme         WeightScheme... mBecke (2022)
Basis function cutoff            BFCut       ... 1.0000e-11
Integration weight cutoff        WCut        ... 1.0000e-14
Partially contracted basis set               ... on
Rotationally invariant grid construction     ... off
Angular grids for H and He will be reduced by one unit

Total number of grid points                  ...   106811
Total number of batches                      ...      848
Average number of points per batch           ...      125
Average number of grid points per atom       ...     3815
UseSFitting                                  ... on
Initializing property integral containers    ... done (  0.0 sec)

SHARK setup successfully completed in   4.1 seconds

Maximum memory used throughout the entire STARTUP-calculation: 64.6 MB


           ************************************************************
           *        Program running with 20 parallel MPI-processes    *
           *              working on a common directory               *
           ************************************************************
-------------------------------------------------------------------------------
                                 ORCA GUESS
                   Start orbitals & Density for SCF / CASSCF
-------------------------------------------------------------------------------

------------
SCF SETTINGS
------------
Hamiltonian:
 Density Functional     Method          .... DFT(GTOs)
  Functional kind                       .... Exchange
  Functional name                       .... Re-regularized SCAN exchange by Furness et al
  Functional family                     .... MGGA
  Functional refs                              
    [ 0] J. W. Furness, A. D. Kaplan, J. Ning, J. P. Perdew, and J. Sun.,  J. Phys. Chem. Lett. 11, 8208-8215 (2020), doi: 10.1021/acs.jpclett.0c02405
    [ 1] J. W. Furness, A. D. Kaplan, J. Ning, J. P. Perdew, and J. Sun.,  J. Phys. Chem. Lett. 11, 9248-9248 (2020), doi: 10.1021/acs.jpclett.0c03077
  Functional external parameters        .... 6
    Parameter  0 _c1        =  6.670000e-01 : c1 parameter        
    Parameter  1 _c2        =  8.000000e-01 : c2 parameter        
    Parameter  2 _d         =  1.240000e+00 : d parameter         
    Parameter  3 _k1        =  6.500000e-02 : k1 parameter        
    Parameter  4 _eta       =  1.000000e-03 : eta parameter       
    Parameter  5 _dp2       =  3.610000e-01 : dp2 parameter       
  Functional kind                       .... Correlation
  Functional name                       .... Re-regularized SCAN correlation by Furness et al
  Functional family                     .... MGGA
  Functional refs                              
    [ 0] J. W. Furness, A. D. Kaplan, J. Ning, J. P. Perdew, and J. Sun.,  J. Phys. Chem. Lett. 11, 8208-8215 (2020), doi: 10.1021/acs.jpclett.0c02405
    [ 1] J. W. Furness, A. D. Kaplan, J. Ning, J. P. Perdew, and J. Sun.,  J. Phys. Chem. Lett. 11, 9248-9248 (2020), doi: 10.1021/acs.jpclett.0c03077
  Functional external parameters        .... 1
    Parameter  0 _eta       =  1.000000e-03 : Regularization parameter
 Gradients option       PostSCFGGA      .... off
 Hybrid DFT is turned on
   Fraction HF Exchange ScalHFX         ....  0.100000
   Scaling of DF-GGA-X  ScalDFX         ....  0.900000
   Scaling of DF-GGA-C  ScalDFC         ....  1.000000
   Scaling of DF-LDA-C  ScalLDAC        ....  1.000000
   Perturbative correction              ....  0.000000
   NL short-range parameter             .... 11.900000
 RI-approximation to the Coulomb term is turned on
   Number of AuxJ basis functions       .... 1296
   RIJ-COSX (HFX calculated with COS-X)).... on


General Settings:
 Integral files         IntName         .... rf_mecn_1H2O_freq_r2s_sw_03
 Hartree-Fock type      HFTyp           .... RHF
 Total Charge           Charge          ....   -1
 Multiplicity           Mult            ....    1
 Number of Electrons    NEL             ....  210
 Basis Dimension        Dim             ....  818
 Nuclear Repulsion      ENuc            ....   3103.2874897881 Eh

Convergence Acceleration:
 AO-DIIS                CNVDIIS         .... on
   Start iteration      DIISMaxIt       ....     0
   Startup error        DIISStart       ....  0.200000
   # of expansion vecs  DIISMaxEq       ....     5
   Bias factor          DIISBfac        ....   1.050
   Max. coefficient     DIISMaxC        ....  10.000
 MO-DIIS                CNVKDIIS        .... off
 Trust-Rad. Augm. Hess. CNVTRAH         .... auto
   Auto Start mean grad. ratio tolernc. ....  1.125000
   Auto Start start iteration           ....    50
   Auto Start num. interpolation iter.  ....    10
   Max. Number of Micro iterations      ....    24
   Max. Number of Macro iterations      .... Maxiter - #DIIS iter
   Number of Davidson start vectors     ....     2
   Converg. threshold    (grad. norm)   ....   1.000e-05
   Grad. Scal. Fac. for Micro threshold ....   0.100
   Minimum threshold for Micro iter.    ....   1.000e-02
   NR start threshold (gradient norm)   ....   1.000e-04
   Initial trust radius                 ....   0.400
   Minimum AH scaling param. (alpha)    ....   1.000
   Maximum AH scaling param. (alpha)    .... 1000.000
   Quad. conv. algorithm                .... NR
   White noise on init. David. guess    .... on
   Maximum white noise                  ....   0.010
   Pseudo random numbers                .... off
   Inactive MOs                         .... canonical
   Orbital update algorithm             .... Taylor
   Preconditioner                       .... Diag
   Full preconditioner red. dimension   ....   250
 SOSCF                  CNVSOSCF        .... on
   Start iteration      SOSCFMaxIt      ....   150
   Startup grad/error   SOSCFStart      ....  0.001000
   Hessian update       SOSCFHessUp     .... L-BFGS
 Level Shifting         CNVShift        .... on
   Level shift para.    LevelShift      ....    0.2500
   Turn off err/grad.   ShiftErr        ....    0.0000
 Zerner damping         CNVZerner       .... off
 Static damping         CNVDamp         .... on
   Fraction old density DampFac         ....    0.8500
   Max. Damping (<1)    DampMax         ....    0.9800
   Min. Damping (>=0)   DampMin         ....    0.0000
   Turn off err/grad.   DampErr         ....    0.0300

SCF Procedure:
 Maximum # iterations   MaxIter         ....  1500
 SCF integral mode      SCFMode         .... Direct
   Integral package                     .... SHARK and LIBINT hybrid scheme
 Reset frequency        DirectResetFreq ....    20
 Integral Threshold     Thresh          ....  2.500e-11 Eh
 Primitive CutOff       TCut            ....  2.500e-12 Eh

Convergence Tolerance:
 Convergence Check Mode ConvCheckMode   .... Total+1el-Energy
 Convergence forced     ConvForced      .... 0
 Energy Change          TolE            ....  1.000e-08 Eh
 1-El. energy change                    ....  1.000e-05 Eh
 Orbital Gradient       TolG            ....  1.000e-05
 Orbital Rotation angle TolX            ....  1.000e-05
 DIIS Error             TolErr          ....  5.000e-07

------------------------------
INITIAL GUESS: MODEL POTENTIAL
------------------------------
Loading Hartree-Fock densities                     ... done
Calculating cut-offs                               ... done
Initializing the effective Hamiltonian             ... done
Setting up the integral package (SHARK)            ... done
Starting the Coulomb interaction                   ... done (   0.2 sec)
Making the grid                                    ... done (   0.5 sec)
Mapping shells                                     ... done
Starting the XC term evaluation                    ... done (   0.1 sec)
  promolecular density results
     # of electrons  =    209.003390722
     EX              =   -216.026796628
     EC              =     -7.338714873
     EX+EC           =   -223.365511501
Transforming the Hamiltonian                       ... done (   0.1 sec)
Diagonalizing the Hamiltonian                      ... done (   0.2 sec)
Back transforming the eigenvectors                 ... done (   0.0 sec)
Now organizing SCF variables                       ... done
                      ------------------
                      INITIAL GUESS DONE (   1.3 sec)
                      ------------------
             **** ENERGY FILE WAS UPDATED (rf_mecn_1H2O_freq_r2s_sw_03.en.tmp) ****
Finished Guess after   2.0 sec
Maximum memory used throughout the entire GUESS-calculation: 54.2 MB


           ************************************************************
           *        Program running with 20 parallel MPI-processes    *
           *              working on a common directory               *
           ************************************************************

-------------------------------------------------------------------------------------------
                                      ORCA LEAN-SCF
                              memory conserving SCF solver
-------------------------------------------------------------------------------------------

--------------------
CPCM SOLVATION MODEL
--------------------
CPCM parameters:
  Epsilon                                         ...      35.6880
  Refrac                                          ...       1.3442
  Rsolv                                           ...       1.3000
  Surface type                                    ... GAUSSIAN VDW
  Discretization scheme                           ... Constant charge density
    Threshold for H atoms                         ...       5.0000 (charges/Ang^2)
    Threshold for non-H atoms                     ...       5.0000 (charges/Ang^2)
  Epsilon function type                           ...         CPCM
Solvent:                                          ... ACETONITRILE
SMD-CDS solvent descriptors:
  Soln                                            ...       1.3442
  Soln25                                          ...       1.3416
  Sola                                            ...       0.0700
  Solb                                            ...       0.3200
  Solg                                            ...      41.2500
  Solc                                            ...       0.0000
  Solh                                            ...       0.0000
Radii:
  Scheme                                          ... Element-dependent radii
  Radius for C  used is    3.4960 Bohr (=   1.8500 Ang.)
  Radius for F  used is    3.2692 Bohr (=   1.7300 Ang.)
  Radius for O  used is    4.0969 Bohr (=   2.1680 Ang.)
  Radius for H  used is    2.2677 Bohr (=   1.2000 Ang.)
Calculating surface                               ...        done! (  0.0s)
Cavity surface points                             ...         2330
Cavity Volume                                     ...    2341.4035
Cavity Surface-area                               ...    1208.0949
Calculating surface distance matrix               ...        done! (  0.1s)
Performing Cholesky decomposition & store         ...        done! (  0.1s)
Overall time for CPCM initialization              ...                 0.2s

----------------------------------------D-I-I-S--------------------------------------------
Iteration    Energy (Eh)           Delta-E    RMSDP     MaxDP     DIISErr   Damp  Time(sec)
-------------------------------------------------------------------------------------------
               ***  Starting incremental Fock matrix formation  ***
    1    -2028.9154887484860410     0.00e+00  4.93e-04  5.97e-02  3.28e-01  0.850   7.8
Warning: op=0 Small HOMO/LUMO gap (   0.052) - skipping pre-diagonalization
         Will do a full diagonalization
    2    -2029.0760172126060752    -1.61e-01  6.00e-04  1.16e-01  2.33e-01  0.850   4.7
                               ***Turning on AO-DIIS***
    3    -2029.1654623098606862    -8.94e-02  3.12e-04  5.87e-02  1.48e-01  0.850   4.4
    4    -2029.2198600096312475    -5.44e-02  1.79e-04  2.52e-02  1.11e-01  0.850   4.4
    5    -2029.2587000442458702    -3.88e-02  1.20e-04  8.46e-03  9.08e-02  0.850   4.1
    6    -2029.2894051015050536    -3.07e-02  9.37e-05  8.08e-03  7.68e-02  0.850   3.9
    7    -2029.3148285949132514    -2.54e-02  8.13e-05  7.31e-03  6.59e-02  0.850   4.0
    8    -2029.3361990797689032    -2.14e-02  7.08e-05  6.37e-03  5.60e-02  0.850   3.8
    9    -2029.3539975881308237    -1.78e-02  6.04e-05  5.43e-03  4.68e-02  0.850   3.6
   10    -2029.3687617880118523    -1.48e-02  5.09e-05  4.62e-03  3.88e-02  0.850   3.7
   11    -2029.3810501632501655    -1.23e-02  4.29e-05  3.94e-03  3.23e-02  0.850   3.6
   12    -2029.3913273217908682    -1.03e-02  3.63e-05  3.38e-03  2.71e-02  0.850   3.7
   13    -2029.3999533173805503    -8.63e-03  2.06e-04  1.93e-02  2.28e-02  0.000   3.7
   14    -2029.4470948655484790    -4.71e-02  1.14e-05  1.82e-03  1.95e-03  0.000   4.2
                              *** Initializing SOSCF ***
---------------------------------------S-O-S-C-F--------------------------------------
Iteration    Energy (Eh)           Delta-E    RMSDP     MaxDP     MaxGrad    Time(sec)
--------------------------------------------------------------------------------------
   15    -2029.4471130996785178    -1.82e-05  6.50e-06  1.25e-03  4.75e-04     3.6
               *** Restarting incremental Fock matrix formation ***
   16    -2029.4471227237368112    -9.62e-06  4.78e-06  4.54e-04  8.43e-05     7.5
   17    -2029.4471224944632013     2.29e-07  1.42e-06  1.31e-04  1.20e-04     4.3
   18    -2029.4471229311725438    -4.37e-07  8.86e-07  1.38e-04  2.27e-05     3.7
   19    -2029.4471229200039488     1.12e-08  5.39e-07  7.57e-05  3.97e-05     3.4
   20    -2029.4471229336281795    -1.36e-08  3.01e-07  4.66e-05  1.97e-06     3.3
                  *** Gradient check signals convergence ***

               *****************************************************
               *                     SUCCESS                       *
               *           SCF CONVERGED AFTER  20 CYCLES          *
               *****************************************************

Recomputing exchange energy using gridx3       ... done (    9.395 sec)
Old exchange energy                            :    -21.821269012 Eh
New exchange energy                            :    -21.821267352 Eh
Exchange energy change after final integration :      0.000001660 Eh
Total energy after final integration           :  -2029.447121274 Eh

SMD CDS free energy correction energy :                 2.93716     Kcal/mol
Total Energy after SMD CDS correction =             -2029.442440606 Eh
             **** ENERGY FILE WAS UPDATED (rf_mecn_1H2O_freq_r2s_sw_03.en.tmp) ****

----------------
TOTAL SCF ENERGY
----------------

Total Energy       :      -2029.44244060599112 Eh          -55223.93634 eV

Components:
Nuclear Repulsion  :       3103.28748978805697 Eh           84444.74569 eV
Electronic Energy  :      -5132.65444592579661 Eh         -139666.62799 eV
One Electron Energy:      -9024.75675176971163 Eh         -245576.11606 eV
Two Electron Energy:       3892.10230584391547 Eh          105909.48808 eV
CPCM Dielectric    :         -0.08016679588928 Eh              -2.18145 eV
SMD CDS (Gcds)     :          0.00468066807590 Eh               0.12737 eV

Virial components:
Potential Energy   :      -4052.15631041282813 Eh         -110264.77896 eV
Kinetic Energy     :       2022.71386980683678 Eh           55040.84262 eV
Virial Ratio       :          2.00332650648201

DFT components:
N(Alpha)           :      104.999965949367 electrons
N(Beta)            :      104.999965949367 electrons
N(Total)           :      209.999931898735 electrons
E(X)               :     -197.436853561905 Eh       
E(C)               :       -7.303961485834 Eh       
E(XC)              :     -204.740815047739 Eh       

CPCM Solvation Model Properties:
Surface-charge          :          0.99086057400262
Corrected charge        :          1.00000000000000
Outlying charge corr.   :          0.00000438570135 Eh               0.00012 eV
Free-energy (cav+disp)  :          0.00468066807590 Eh               0.12737 eV

---------------
SCF CONVERGENCE
---------------

  Last Energy change         ...    1.3624e-08  Tolerance :   1.0000e-08
  Last MAX-Density change    ...    4.6564e-05  Tolerance :   1.0000e-07
  Last RMS-Density change    ...    3.0085e-07  Tolerance :   5.0000e-09
  Last DIIS Error            ...    4.7451e-04  Tolerance :   5.0000e-07
  Last Orbital Gradient      ...    1.9667e-06  Tolerance :   1.0000e-05
  Last Orbital Rotation      ...    3.2011e-06  Tolerance :   1.0000e-05


----------------
ORBITAL ENERGIES
----------------

  NO   OCC          E(Eh)            E(eV) 
   0   2.0000     -24.732378      -673.0022 
   1   2.0000     -24.731870      -672.9884 
   2   2.0000     -24.731796      -672.9864 
   3   2.0000     -24.731673      -672.9830 
   4   2.0000     -24.731151      -672.9688 
   5   2.0000     -24.730730      -672.9574 
   6   2.0000     -24.730458      -672.9500 
   7   2.0000     -24.729486      -672.9235 
   8   2.0000     -24.729326      -672.9192 
   9   2.0000     -24.724646      -672.7918 
  10   2.0000     -24.724042      -672.7754 
  11   2.0000     -24.715337      -672.5385 
  12   2.0000     -24.714547      -672.5170 
  13   2.0000     -24.691928      -671.9015 
  14   2.0000     -24.691650      -671.8939 
  15   2.0000     -19.072526      -518.9898 
  16   2.0000     -19.063032      -518.7315 
  17   2.0000     -19.059289      -518.6296 
  18   2.0000     -10.440031      -284.0877 
  19   2.0000     -10.386915      -282.6423 
  20   2.0000     -10.385366      -282.6002 
  21   2.0000     -10.384136      -282.5667 
  22   2.0000     -10.377971      -282.3990 
  23   2.0000     -10.363940      -282.0172 
  24   2.0000     -10.329600      -281.0827 
  25   2.0000     -10.245215      -278.7865 
  26   2.0000      -1.361819       -37.0570 
  27   2.0000      -1.338688       -36.4276 
  28   2.0000      -1.323513       -36.0146 
  29   2.0000      -1.314888       -35.7799 
  30   2.0000      -1.311767       -35.6950 
  31   2.0000      -1.301843       -35.4250 
  32   2.0000      -1.275982       -34.7212 
  33   2.0000      -1.273606       -34.6566 
  34   2.0000      -1.267336       -34.4860 
  35   2.0000      -1.266720       -34.4692 
  36   2.0000      -1.260257       -34.2933 
  37   2.0000      -1.256558       -34.1927 
  38   2.0000      -1.253383       -34.1063 
  39   2.0000      -1.243428       -33.8354 
  40   2.0000      -1.217439       -33.1282 
  41   2.0000      -1.041829       -28.3496 
  42   2.0000      -0.974082       -26.5061 
  43   2.0000      -0.955762       -26.0076 
  44   2.0000      -0.845976       -23.0202 
  45   2.0000      -0.824104       -22.4250 
  46   2.0000      -0.794339       -21.6151 
  47   2.0000      -0.755625       -20.5616 
  48   2.0000      -0.712354       -19.3842 
  49   2.0000      -0.682403       -18.5691 
  50   2.0000      -0.665543       -18.1104 
  51   2.0000      -0.642248       -17.4764 
  52   2.0000      -0.637643       -17.3511 
  53   2.0000      -0.629388       -17.1265 
  54   2.0000      -0.621283       -16.9060 
  55   2.0000      -0.617274       -16.7969 
  56   2.0000      -0.615697       -16.7540 
  57   2.0000      -0.603002       -16.4085 
  58   2.0000      -0.598873       -16.2962 
  59   2.0000      -0.595017       -16.1912 
  60   2.0000      -0.587792       -15.9946 
  61   2.0000      -0.576237       -15.6802 
  62   2.0000      -0.574299       -15.6275 
  63   2.0000      -0.568068       -15.4579 
  64   2.0000      -0.561376       -15.2758 
  65   2.0000      -0.545582       -14.8460 
  66   2.0000      -0.504619       -13.7314 
  67   2.0000      -0.501126       -13.6363 
  68   2.0000      -0.495208       -13.4753 
  69   2.0000      -0.494918       -13.4674 
  70   2.0000      -0.491156       -13.3650 
  71   2.0000      -0.486792       -13.2463 
  72   2.0000      -0.483937       -13.1686 
  73   2.0000      -0.480336       -13.0706 
  74   2.0000      -0.473526       -12.8853 
  75   2.0000      -0.470063       -12.7911 
  76   2.0000      -0.467624       -12.7247 
  77   2.0000      -0.464557       -12.6412 
  78   2.0000      -0.458975       -12.4893 
  79   2.0000      -0.457298       -12.4437 
  80   2.0000      -0.450804       -12.2670 
  81   2.0000      -0.449458       -12.2304 
  82   2.0000      -0.446820       -12.1586 
  83   2.0000      -0.439156       -11.9500 
  84   2.0000      -0.438111       -11.9216 
  85   2.0000      -0.435557       -11.8521 
  86   2.0000      -0.431388       -11.7387 
  87   2.0000      -0.430286       -11.7087 
  88   2.0000      -0.426745       -11.6123 
  89   2.0000      -0.426507       -11.6058 
  90   2.0000      -0.422538       -11.4978 
  91   2.0000      -0.421565       -11.4714 
  92   2.0000      -0.414234       -11.2719 
  93   2.0000      -0.406213       -11.0536 
  94   2.0000      -0.403951       -10.9921 
  95   2.0000      -0.400079       -10.8867 
  96   2.0000      -0.388993       -10.5850 
  97   2.0000      -0.386050       -10.5050 
  98   2.0000      -0.360027        -9.7968 
  99   2.0000      -0.344461        -9.3733 
 100   2.0000      -0.326689        -8.8897 
 101   2.0000      -0.270358        -7.3568 
 102   2.0000      -0.252830        -6.8799 
 103   2.0000      -0.239138        -6.5073 
 104   2.0000      -0.233968        -6.3666 
 105   0.0000      -0.017063        -0.4643 
 106   0.0000      -0.001602        -0.0436 
 107   0.0000       0.016346         0.4448 
 108   0.0000       0.044577         1.2130 
 109   0.0000       0.051081         1.3900 
 110   0.0000       0.083806         2.2805 
 111   0.0000       0.097001         2.6395 
 112   0.0000       0.099485         2.7071 
 113   0.0000       0.115184         3.1343 
 114   0.0000       0.131624         3.5817 
 115   0.0000       0.135629         3.6907 
*Only the first 10 virtual orbitals were printed.

                    ********************************
                    * MULLIKEN POPULATION ANALYSIS *
                    ********************************

-----------------------
MULLIKEN ATOMIC CHARGES
-----------------------
   0 C :    0.471195
   1 C :    0.328986
   2 C :    0.300041
   3 C :    0.325382
   4 C :    0.326016
   5 C :    0.295964
   6 C :    0.318585
   7 C :    0.276137
   8 F :   -0.155983
   9 F :   -0.153967
  10 F :   -0.153259
  11 F :   -0.163036
  12 F :   -0.159614
  13 F :   -0.163710
  14 F :   -0.163766
  15 F :   -0.164880
  16 F :   -0.165458
  17 F :   -0.168594
  18 F :   -0.170150
  19 F :   -0.181202
  20 F :   -0.182172
  21 F :   -0.208686
  22 F :   -0.202105
  23 O :   -0.486966
  24 O :   -0.551053
  25 O :   -0.741277
  26 H :    0.334707
  27 H :    0.358863
Sum of atomic charges:   -1.0000000

--------------------------------
MULLIKEN REDUCED ORBITAL CHARGES
--------------------------------
  0 C s       :     3.020527  s :     3.020527
      pz      :     0.639170  p :     2.108862
      px      :     0.674473
      py      :     0.795219
      dz2     :     0.075872  d :     0.358759
      dxz     :     0.073537
      dyz     :     0.075546
      dx2y2   :     0.070776
      dxy     :     0.063027
      f0      :     0.008069  f :     0.040657
      f+1     :     0.006246
      f-1     :     0.004571
      f+2     :     0.004186
      f-2     :     0.007938
      f+3     :     0.004336
      f-3     :     0.005311

  1 C s       :     3.101159  s :     3.101159
      pz      :     0.610389  p :     2.252829
      px      :     0.732863
      py      :     0.909578
      dz2     :     0.080017  d :     0.288927
      dxz     :     0.056534
      dyz     :     0.059028
      dx2y2   :     0.035600
      dxy     :     0.057748
      f0      :     0.006041  f :     0.028100
      f+1     :     0.004502
      f-1     :     0.002839
      f+2     :     0.005361
      f-2     :     0.004838
      f+3     :     0.002344
      f-3     :     0.002174

  2 C s       :     3.141588  s :     3.141588
      pz      :     0.592262  p :     2.237345
      px      :     0.710741
      py      :     0.934341
      dz2     :     0.075030  d :     0.292988
      dxz     :     0.061611
      dyz     :     0.065373
      dx2y2   :     0.032390
      dxy     :     0.058585
      f0      :     0.005033  f :     0.028038
      f+1     :     0.006285
      f-1     :     0.003831
      f+2     :     0.003518
      f-2     :     0.004549
      f+3     :     0.002157
      f-3     :     0.002664

  3 C s       :     3.135934  s :     3.135934
      pz      :     0.639203  p :     2.217986
      px      :     0.679624
      py      :     0.899159
      dz2     :     0.064821  d :     0.292677
      dxz     :     0.074270
      dyz     :     0.054364
      dx2y2   :     0.038288
      dxy     :     0.060935
      f0      :     0.004410  f :     0.028020
      f+1     :     0.007465
      f-1     :     0.003531
      f+2     :     0.003022
      f-2     :     0.003127
      f+3     :     0.002704
      f-3     :     0.003762

  4 C s       :     3.136709  s :     3.136709
      pz      :     0.648638  p :     2.220096
      px      :     0.648865
      py      :     0.922593
      dz2     :     0.049244  d :     0.289278
      dxz     :     0.079200
      dyz     :     0.060612
      dx2y2   :     0.042479
      dxy     :     0.057744
      f0      :     0.005216  f :     0.027901
      f+1     :     0.005627
      f-1     :     0.004580
      f+2     :     0.003482
      f-2     :     0.001849
      f+3     :     0.002349
      f-3     :     0.004798

  5 C s       :     3.139682  s :     3.139682
      pz      :     0.708144  p :     2.254483
      px      :     0.610683
      py      :     0.935656
      dz2     :     0.053515  d :     0.282167
      dxz     :     0.068960
      dyz     :     0.048736
      dx2y2   :     0.051099
      dxy     :     0.059856
      f0      :     0.005758  f :     0.027704
      f+1     :     0.003736
      f-1     :     0.003359
      f+2     :     0.005254
      f-2     :     0.002357
      f+3     :     0.002099
      f-3     :     0.005141

  6 C s       :     3.120287  s :     3.120287
      pz      :     0.702909  p :     2.275762
      px      :     0.591259
      py      :     0.981594
      dz2     :     0.049045  d :     0.258859
      dxz     :     0.052693
      dyz     :     0.048430
      dx2y2   :     0.051973
      dxy     :     0.056718
      f0      :     0.003841  f :     0.026506
      f+1     :     0.005257
      f-1     :     0.002056
      f+2     :     0.003922
      f-2     :     0.004518
      f+3     :     0.003135
      f-3     :     0.003777

  7 C s       :     3.016864  s :     3.016864
      pz      :     0.827967  p :     2.427594
      px      :     0.720365
      py      :     0.879262
      dz2     :     0.011479  d :     0.254653
      dxz     :     0.077989
      dyz     :     0.015332
      dx2y2   :     0.075740
      dxy     :     0.074112
      f0      :     0.002361  f :     0.024752
      f+1     :     0.002726
      f-1     :     0.001253
      f+2     :     0.002491
      f-2     :     0.003303
      f+3     :     0.008199
      f-3     :     0.004420

  8 F s       :     3.924632  s :     3.924632
      pz      :     1.694031  p :     5.213234
      px      :     1.652749
      py      :     1.866453
      dz2     :     0.003163  d :     0.017350
      dxz     :     0.006614
      dyz     :     0.002056
      dx2y2   :     0.002811
      dxy     :     0.002706
      f0      :     0.000090  f :     0.000767
      f+1     :     0.000202
      f-1     :     0.000034
      f+2     :     0.000181
      f-2     :     0.000136
      f+3     :     0.000058
      f-3     :     0.000066

  9 F s       :     3.923213  s :     3.923213
      pz      :     1.520468  p :     5.212446
      px      :     1.807361
      py      :     1.884618
      dz2     :     0.006613  d :     0.017525
      dxz     :     0.005630
      dyz     :     0.003480
      dx2y2   :     0.000805
      dxy     :     0.000997
      f0      :     0.000212  f :     0.000783
      f+1     :     0.000271
      f-1     :     0.000123
      f+2     :     0.000075
      f-2     :     0.000085
      f+3     :     0.000007
      f-3     :     0.000010

 10 F s       :     3.923099  s :     3.923099
      pz      :     1.889321  p :     5.211949
      px      :     1.709731
      py      :     1.612897
      dz2     :     0.002450  d :     0.017431
      dxz     :     0.001679
      dyz     :     0.002151
      dx2y2   :     0.004086
      dxy     :     0.007065
      f0      :     0.000066  f :     0.000781
      f+1     :     0.000073
      f-1     :     0.000096
      f+2     :     0.000011
      f-2     :     0.000109
      f+3     :     0.000227
      f-3     :     0.000200

 11 F s       :     3.928809  s :     3.928809
      pz      :     1.631155  p :     5.216272
      px      :     1.723780
      py      :     1.861336
      dz2     :     0.003967  d :     0.017234
      dxz     :     0.006041
      dyz     :     0.003142
      dx2y2   :     0.001846
      dxy     :     0.002238
      f0      :     0.000096  f :     0.000722
      f+1     :     0.000213
      f-1     :     0.000078
      f+2     :     0.000123
      f-2     :     0.000148
      f+3     :     0.000029
      f-3     :     0.000035

 12 F s       :     3.926636  s :     3.926636
      pz      :     1.614079  p :     5.214855
      px      :     1.728777
      py      :     1.871999
      dz2     :     0.004323  d :     0.017385
      dxz     :     0.006168
      dyz     :     0.003105
      dx2y2   :     0.001731
      dxy     :     0.002057
      f0      :     0.000107  f :     0.000738
      f+1     :     0.000231
      f-1     :     0.000080
      f+2     :     0.000125
      f-2     :     0.000140
      f+3     :     0.000024
      f-3     :     0.000032

 13 F s       :     3.928799  s :     3.928799
      pz      :     1.504021  p :     5.216862
      px      :     1.826997
      py      :     1.885843
      dz2     :     0.006927  d :     0.017326
      dxz     :     0.004911
      dyz     :     0.003890
      dx2y2   :     0.000707
      dxy     :     0.000891
      f0      :     0.000227  f :     0.000723
      f+1     :     0.000225
      f-1     :     0.000137
      f+2     :     0.000054
      f-2     :     0.000070
      f+3     :     0.000005
      f-3     :     0.000006

 14 F s       :     3.928845  s :     3.928845
      pz      :     1.710772  p :     5.216872
      px      :     1.607749
      py      :     1.898351
      dz2     :     0.002781  d :     0.017326
      dxz     :     0.006733
      dyz     :     0.001674
      dx2y2   :     0.003408
      dxy     :     0.002731
      f0      :     0.000081  f :     0.000723
      f+1     :     0.000188
      f-1     :     0.000012
      f+2     :     0.000201
      f-2     :     0.000106
      f+3     :     0.000069
      f-3     :     0.000065

 15 F s       :     3.928430  s :     3.928430
      pz      :     1.478110  p :     5.218424
      px      :     1.881309
      py      :     1.859004
      dz2     :     0.007808  d :     0.017302
      dxz     :     0.003438
      dyz     :     0.005020
      dx2y2   :     0.000542
      dxy     :     0.000493
      f0      :     0.000277  f :     0.000724
      f+1     :     0.000136
      f-1     :     0.000223
      f+2     :     0.000042
      f-2     :     0.000040
      f+3     :     0.000003
      f-3     :     0.000003

 16 F s       :     3.928443  s :     3.928443
      pz      :     1.825368  p :     5.219050
      px      :     1.502245
      py      :     1.891437
      dz2     :     0.002234  d :     0.017245
      dxz     :     0.005190
      dyz     :     0.000730
      dx2y2   :     0.005298
      dxy     :     0.003793
      f0      :     0.000078  f :     0.000720
      f+1     :     0.000125
      f-1     :     0.000007
      f+2     :     0.000172
      f-2     :     0.000062
      f+3     :     0.000146
      f-3     :     0.000130

 17 F s       :     3.927342  s :     3.927342
      pz      :     1.458437  p :     5.223345
      px      :     1.875247
      py      :     1.889661
      dz2     :     0.008305  d :     0.017186
      dxz     :     0.003847
      dyz     :     0.004311
      dx2y2   :     0.000414
      dxy     :     0.000308
      f0      :     0.000308  f :     0.000722
      f+1     :     0.000177
      f-1     :     0.000178
      f+2     :     0.000030
      f-2     :     0.000023
      f+3     :     0.000002
      f-3     :     0.000002

 18 F s       :     3.927800  s :     3.927800
      pz      :     1.877075  p :     5.224517
      px      :     1.452051
      py      :     1.895391
      dz2     :     0.002298  d :     0.017117
      dxz     :     0.003865
      dyz     :     0.000267
      dx2y2   :     0.006495
      dxy     :     0.004192
      f0      :     0.000065  f :     0.000716
      f+1     :     0.000134
      f-1     :     0.000012
      f+2     :     0.000117
      f-2     :     0.000016
      f+3     :     0.000211
      f-3     :     0.000161

 19 F s       :     3.927277  s :     3.927277
      pz      :     1.550915  p :     5.236443
      px      :     1.808359
      py      :     1.877169
      dz2     :     0.005560  d :     0.016776
      dxz     :     0.005096
      dyz     :     0.003818
      dx2y2   :     0.001180
      dxy     :     0.001121
      f0      :     0.000152  f :     0.000706
      f+1     :     0.000220
      f-1     :     0.000122
      f+2     :     0.000091
      f-2     :     0.000095
      f+3     :     0.000013
      f-3     :     0.000012

 20 F s       :     3.927904  s :     3.927904
      pz      :     1.881868  p :     5.236693
      px      :     1.453266
      py      :     1.901559
      dz2     :     0.002270  d :     0.016868
      dxz     :     0.003797
      dyz     :     0.000256
      dx2y2   :     0.006580
      dxy     :     0.003965
      f0      :     0.000064  f :     0.000707
      f+1     :     0.000134
      f-1     :     0.000010
      f+2     :     0.000110
      f-2     :     0.000015
      f+3     :     0.000222
      f-3     :     0.000151

 21 F s       :     3.923318  s :     3.923318
      pz      :     1.633427  p :     5.268882
      px      :     1.725923
      py      :     1.909531
      dz2     :     0.003559  d :     0.015816
      dxz     :     0.006156
      dyz     :     0.002473
      dx2y2   :     0.001974
      dxy     :     0.001653
      f0      :     0.000082  f :     0.000671
      f+1     :     0.000225
      f-1     :     0.000047
      f+2     :     0.000153
      f-2     :     0.000103
      f+3     :     0.000035
      f-3     :     0.000026

 22 F s       :     3.921619  s :     3.921619
      pz      :     1.836226  p :     5.263652
      px      :     1.541854
      py      :     1.885571
      dz2     :     0.001910  d :     0.016152
      dxz     :     0.004495
      dyz     :     0.000839
      dx2y2   :     0.004934
      dxy     :     0.003974
      f0      :     0.000068  f :     0.000683
      f+1     :     0.000104
      f-1     :     0.000007
      f+2     :     0.000138
      f-2     :     0.000073
      f+3     :     0.000151
      f-3     :     0.000141

 23 O s       :     3.807903  s :     3.807903
      pz      :     1.532933  p :     4.647478
      px      :     1.459088
      py      :     1.655457
      dz2     :     0.003222  d :     0.029696
      dxz     :     0.007740
      dyz     :     0.002013
      dx2y2   :     0.008049
      dxy     :     0.008674
      f0      :     0.000185  f :     0.001888
      f+1     :     0.000239
      f-1     :     0.000067
      f+2     :     0.000180
      f-2     :     0.000254
      f+3     :     0.000513
      f-3     :     0.000451

 24 O s       :     3.839301  s :     3.839301
      pz      :     1.583971  p :     4.682748
      px      :     1.365894
      py      :     1.732883
      dz2     :     0.003032  d :     0.027213
      dxz     :     0.007659
      dyz     :     0.001450
      dx2y2   :     0.007175
      dxy     :     0.007898
      f0      :     0.000181  f :     0.001790
      f+1     :     0.000260
      f-1     :     0.000046
      f+2     :     0.000261
      f-2     :     0.000144
      f+3     :     0.000453
      f-3     :     0.000445

 25 O s       :     3.805001  s :     3.805001
      pz      :     1.845712  p :     4.915782
      px      :     1.604624
      py      :     1.465447
      dz2     :     0.002483  d :     0.019290
      dxz     :     0.002850
      dyz     :     0.002244
      dx2y2   :     0.009348
      dxy     :     0.002364
      f0      :     0.000303  f :     0.001204
      f+1     :     0.000104
      f-1     :     0.000132
      f+2     :     0.000323
      f-2     :     0.000099
      f+3     :     0.000039
      f-3     :     0.000203

 26 H s       :     0.617270  s :     0.617270
      pz      :     0.016939  p :     0.048023
      px      :     0.012483
      py      :     0.018601

 27 H s       :     0.586253  s :     0.586253
      pz      :     0.015881  p :     0.054885
      px      :     0.026586
      py      :     0.012418



                     *******************************
                     * LOEWDIN POPULATION ANALYSIS *
                     *******************************

----------------------
LOEWDIN ATOMIC CHARGES
----------------------
   0 C :   -0.679758
   1 C :   -0.478998
   2 C :   -0.472513
   3 C :   -0.470799
   4 C :   -0.469724
   5 C :   -0.470000
   6 C :   -0.455221
   7 C :   -0.672360
   8 F :    0.230680
   9 F :    0.232945
  10 F :    0.232126
  11 F :    0.230319
  12 F :    0.232324
  13 F :    0.232364
  14 F :    0.231728
  15 F :    0.231475
  16 F :    0.229952
  17 F :    0.226650
  18 F :    0.224937
  19 F :    0.215711
  20 F :    0.218217
  21 F :    0.171644
  22 F :    0.180375
  23 O :   -0.022510
  24 O :   -0.048465
  25 O :   -0.363134
  26 H :    0.147772
  27 H :    0.134263

-------------------------------
LOEWDIN REDUCED ORBITAL CHARGES
-------------------------------
  0 C s       :     2.754419  s :     2.754419
      pz      :     0.786504  p :     2.495828
      px      :     0.815496
      py      :     0.893828
      dz2     :     0.256173  d :     1.164076
      dxz     :     0.271895
      dyz     :     0.192349
      dx2y2   :     0.189964
      dxy     :     0.253695
      f0      :     0.046501  f :     0.265435
      f+1     :     0.046457
      f-1     :     0.032434
      f+2     :     0.032648
      f-2     :     0.043939
      f+3     :     0.030321
      f-3     :     0.033136

  1 C s       :     2.759611  s :     2.759611
      pz      :     0.761220  p :     2.595614
      px      :     0.851654
      py      :     0.982740
      dz2     :     0.218030  d :     0.938878
      dxz     :     0.237525
      dyz     :     0.168644
      dx2y2   :     0.110218
      dxy     :     0.204461
      f0      :     0.034182  f :     0.184895
      f+1     :     0.037307
      f-1     :     0.021706
      f+2     :     0.035450
      f-2     :     0.029416
      f+3     :     0.013670
      f-3     :     0.013165

  2 C s       :     2.755993  s :     2.755993
      pz      :     0.744070  p :     2.591597
      px      :     0.845266
      py      :     1.002261
      dz2     :     0.240101  d :     0.940184
      dxz     :     0.231611
      dyz     :     0.150495
      dx2y2   :     0.126133
      dxy     :     0.191843
      f0      :     0.033505  f :     0.184739
      f+1     :     0.042024
      f-1     :     0.025631
      f+2     :     0.029459
      f-2     :     0.026028
      f+3     :     0.013232
      f-3     :     0.014861

  3 C s       :     2.756218  s :     2.756218
      pz      :     0.786646  p :     2.591056
      px      :     0.821087
      py      :     0.983322
      dz2     :     0.224355  d :     0.938954
      dxz     :     0.210080
      dyz     :     0.166246
      dx2y2   :     0.154215
      dxy     :     0.184059
      f0      :     0.033925  f :     0.184571
      f+1     :     0.040827
      f-1     :     0.025467
      f+2     :     0.025010
      f-2     :     0.018891
      f+3     :     0.018843
      f-3     :     0.021607

  4 C s       :     2.757098  s :     2.757098
      pz      :     0.794897  p :     2.591149
      px      :     0.791588
      py      :     1.004663
      dz2     :     0.216456  d :     0.937375
      dxz     :     0.205323
      dyz     :     0.167123
      dx2y2   :     0.186200
      dxy     :     0.162273
      f0      :     0.037050  f :     0.184102
      f+1     :     0.037070
      f-1     :     0.026897
      f+2     :     0.022202
      f-2     :     0.014167
      f+3     :     0.019934
      f-3     :     0.026783

  5 C s       :     2.759105  s :     2.759105
      pz      :     0.844890  p :     2.592326
      px      :     0.753390
      py      :     0.994045
      dz2     :     0.189501  d :     0.935745
      dxz     :     0.206253
      dyz     :     0.169244
      dx2y2   :     0.215997
      dxy     :     0.154749
      f0      :     0.033144  f :     0.182825
      f+1     :     0.033679
      f-1     :     0.019680
      f+2     :     0.028447
      f-2     :     0.017426
      f+3     :     0.020874
      f-3     :     0.029574

  6 C s       :     2.777163  s :     2.777163
      pz      :     0.832039  p :     2.596598
      px      :     0.725664
      py      :     1.038894
      dz2     :     0.150289  d :     0.904454
      dxz     :     0.224681
      dyz     :     0.179802
      dx2y2   :     0.203540
      dxy     :     0.146143
      f0      :     0.025376  f :     0.177007
      f+1     :     0.038081
      f-1     :     0.012444
      f+2     :     0.027055
      f-2     :     0.026793
      f+3     :     0.022188
      f-3     :     0.025070

  7 C s       :     2.770248  s :     2.770248
      pz      :     0.801929  p :     2.708863
      px      :     0.994167
      py      :     0.912767
      dz2     :     0.073988  d :     1.037234
      dxz     :     0.244926
      dyz     :     0.075022
      dx2y2   :     0.356535
      dxy     :     0.286763
      f0      :     0.010224  f :     0.156015
      f+1     :     0.020662
      f-1     :     0.005236
      f+2     :     0.013031
      f-2     :     0.024705
      f+3     :     0.054467
      f-3     :     0.027690

  8 F s       :     3.593056  s :     3.593056
      pz      :     1.690908  p :     5.142754
      px      :     1.660845
      py      :     1.791000
      dz2     :     0.005365  d :     0.031838
      dxz     :     0.012858
      dyz     :     0.003671
      dx2y2   :     0.004762
      dxy     :     0.005181
      f0      :     0.000209  f :     0.001673
      f+1     :     0.000426
      f-1     :     0.000071
      f+2     :     0.000371
      f-2     :     0.000312
      f+3     :     0.000120
      f-3     :     0.000163

  9 F s       :     3.591711  s :     3.591711
      pz      :     1.579282  p :     5.141518
      px      :     1.757110
      py      :     1.805125
      dz2     :     0.012332  d :     0.032128
      dxz     :     0.010741
      dyz     :     0.006127
      dx2y2   :     0.001268
      dxy     :     0.001661
      f0      :     0.000451  f :     0.001698
      f+1     :     0.000565
      f-1     :     0.000280
      f+2     :     0.000156
      f-2     :     0.000210
      f+3     :     0.000013
      f-3     :     0.000023

 10 F s       :     3.592971  s :     3.592971
      pz      :     1.810223  p :     5.141120
      px      :     1.700571
      py      :     1.630326
      dz2     :     0.004731  d :     0.032084
      dxz     :     0.002711
      dyz     :     0.003241
      dx2y2   :     0.007631
      dxy     :     0.013769
      f0      :     0.000149  f :     0.001700
      f+1     :     0.000142
      f-1     :     0.000203
      f+2     :     0.000019
      f-2     :     0.000246
      f+3     :     0.000477
      f-3     :     0.000464

 11 F s       :     3.591137  s :     3.591137
      pz      :     1.650122  p :     5.144774
      px      :     1.699601
      py      :     1.795051
      dz2     :     0.006945  d :     0.032178
      dxz     :     0.011579
      dyz     :     0.006053
      dx2y2   :     0.003189
      dxy     :     0.004411
      f0      :     0.000236  f :     0.001593
      f+1     :     0.000422
      f-1     :     0.000168
      f+2     :     0.000273
      f-2     :     0.000340
      f+3     :     0.000068
      f-3     :     0.000086

 12 F s       :     3.589940  s :     3.589940
      pz      :     1.639482  p :     5.143608
      px      :     1.702479
      py      :     1.801647
      dz2     :     0.007572  d :     0.032506
      dxz     :     0.011875
      dyz     :     0.006065
      dx2y2   :     0.003009
      dxy     :     0.003985
      f0      :     0.000256  f :     0.001623
      f+1     :     0.000454
      f-1     :     0.000176
      f+2     :     0.000269
      f-2     :     0.000335
      f+3     :     0.000052
      f-3     :     0.000079

 13 F s       :     3.589660  s :     3.589660
      pz      :     1.567736  p :     5.144078
      px      :     1.767599
      py      :     1.808743
      dz2     :     0.012637  d :     0.032304
      dxz     :     0.009107
      dyz     :     0.007913
      dx2y2   :     0.001019
      dxy     :     0.001627
      f0      :     0.000476  f :     0.001595
      f+1     :     0.000465
      f-1     :     0.000334
      f+2     :     0.000116
      f-2     :     0.000180
      f+3     :     0.000013
      f-3     :     0.000012

 14 F s       :     3.589993  s :     3.589993
      pz      :     1.701520  p :     5.144385
      px      :     1.625741
      py      :     1.817125
      dz2     :     0.004605  d :     0.032301
      dxz     :     0.012645
      dyz     :     0.003439
      dx2y2   :     0.006243
      dxy     :     0.005369
      f0      :     0.000182  f :     0.001593
      f+1     :     0.000392
      f-1     :     0.000026
      f+2     :     0.000387
      f-2     :     0.000287
      f+3     :     0.000131
      f-3     :     0.000189

 15 F s       :     3.589470  s :     3.589470
      pz      :     1.548529  p :     5.145166
[...]
 33:    338.17   0.000140    0.71  0.000130  ( 0.002714 -0.009737 -0.005239)
 34:    351.01   0.000536    2.71  0.000477  (-0.010328 -0.006991 -0.017918)
 35:    364.60   0.000517    2.61  0.000443  (-0.012579  0.004261 -0.016316)
 36:    368.74   0.000206    1.04  0.000174  (-0.001235  0.013148 -0.000078)
 37:    374.46   0.000170    0.86  0.000141  ( 0.003674 -0.011302  0.000340)
 38:    376.72   0.001252    6.32  0.001037  (-0.001615  0.032075  0.002317)
 39:    381.21   0.000043    0.22  0.000035  ( 0.000523 -0.005557 -0.002003)
 40:    413.86   0.001310    6.62  0.000988  ( 0.027447 -0.010843  0.010813)
 41:    448.30   0.018369   92.83  0.012787  (-0.074159  0.065713 -0.054491)
 42:    471.90   0.001779    8.99  0.001177  ( 0.022311 -0.025985 -0.001881)
 43:    515.80   0.012809   64.73  0.007750  ( 0.015894 -0.083755 -0.021961)
 44:    531.86   0.008456   42.73  0.004961  (-0.027059  0.060207  0.024583)
 45:    545.20   0.008085   40.86  0.004628  ( 0.000384 -0.053912 -0.041485)
 46:    561.66   0.010984   55.51  0.006103  (-0.035934 -0.067894  0.014213)
 47:    565.27   0.000941    4.76  0.000520  (-0.005489  0.013807  0.017286)
 48:    585.62   0.001826    9.23  0.000973  (-0.019177  0.019885 -0.014495)
 49:    605.14   0.002981   15.06  0.001537  (-0.000432 -0.037051 -0.012814)
 50:    619.95   0.000422    2.13  0.000212  (-0.007497  0.007063  0.010307)
 51:    649.45   0.023580  119.16  0.011330  ( 0.006210  0.102826  0.026807)
 52:    670.07   0.017039   86.11  0.007936  ( 0.011660 -0.087936 -0.008175)
 53:    692.39   0.001824    9.22  0.000822  ( 0.005036  0.027975  0.003737)
 54:    709.05   0.025982  131.30  0.011435  ( 0.024696 -0.043017 -0.094735)
 55:    731.32   0.000314    1.59  0.000134  (-0.006923  0.005863 -0.007196)
 56:    736.89   0.005208   26.32  0.002205  ( 0.000590 -0.044792 -0.014097)
 57:    780.07   0.000864    4.36  0.000345  ( 0.011600 -0.014256  0.002774)
 58:    812.21   0.018374   92.85  0.007059  ( 0.003809 -0.069287  0.047374)
 59:    887.66   0.003985   20.14  0.001401  (-0.008579  0.036433  0.000347)
 60:   1017.58   0.010056   50.82  0.003084  (-0.000734 -0.044292 -0.033489)
 61:   1107.35   0.015622   78.95  0.004402  ( 0.043320  0.044690 -0.022990)
 62:   1121.20   0.046044  232.69  0.012815  ( 0.093260  0.000908  0.064165)
 63:   1136.26   0.009059   45.78  0.002488  ( 0.016451 -0.004707 -0.046852)
 64:   1140.65   0.018266   92.31  0.004997  ( 0.006822  0.006477 -0.070064)
 65:   1150.65   0.052659  266.12  0.014281  ( 0.089749  0.042962 -0.066188)
 66:   1159.60   0.111120  561.55  0.029904  (-0.170041 -0.015751  0.027238)
 67:   1169.46   0.006939   35.07  0.001852  (-0.034855 -0.002950  0.025063)
 68:   1173.75   0.057506  290.61  0.015289  (-0.094986  0.001694 -0.079145)
 69:   1180.41   0.097543  492.94  0.025787  (-0.070792  0.023096 -0.142276)
 70:   1188.34   0.091567  462.74  0.024046  ( 0.109934 -0.013507 -0.108526)
 71:   1192.95   0.079413  401.32  0.020774  ( 0.080171 -0.050435  0.108640)
 72:   1208.30   0.087638  442.89  0.022634  (-0.020761  0.050751 -0.140098)
 73:   1218.55   0.006327   31.98  0.001620  ( 0.034041 -0.003438  0.021207)
 74:   1246.87   0.010849   54.83  0.002715  (-0.022639  0.043566 -0.017459)
 75:   1274.74   0.001775    8.97  0.000435  ( 0.017243 -0.011705  0.000482)
 76:   1296.09   0.005035   25.45  0.001212  ( 0.027677 -0.021126 -0.000060)
 77:   1315.23   0.007794   39.39  0.001849  ( 0.023475 -0.014565 -0.032956)
 78:   1368.71   0.048360  244.39  0.011026  (-0.021207 -0.102614 -0.006828)
 79:   1403.90   0.022187  112.12  0.004932  (-0.025414 -0.064228  0.012675)
 80:   1677.81   0.032778  165.64  0.006096  (-0.069789 -0.034978 -0.001584)
 81:   1753.86   0.182298  921.26  0.032436  (-0.177912  0.027396 -0.005744)
 82:   3463.33   0.211823  1070.46  0.019086  ( 0.129814 -0.027954  0.038120)
 83:   3858.18   0.014136   71.44  0.001143  ( 0.015882 -0.026345  0.014038)

* The epsilon (eps) is given for a Dirac delta lineshape.
** The dipole moment derivative (T) already includes vibrational overlap.

The first frequency considered to be a vibration is 6
The total number of vibrations considered is 78


--------------------------
THERMOCHEMISTRY AT 298.15K
--------------------------

Temperature         ...   298.15 K
Pressure            ...     1.00 atm
Total Mass          ...   431.07 AMU
Quasi RRHO          ...     True
Cut-Off Frequency   ...     1.00 cm^-1

Throughout the following assumptions are being made:
  (1) The electronic state is orbitally nondegenerate
  (2) There are no thermally accessible electronically excited states
  (3) Hindered rotations indicated by low frequency modes are not
      treated as such but are treated as vibrations and this may
      cause some error
  (4) All equations used are the standard statistical mechanics
      equations for an ideal gas
  (5) All vibrations are strictly harmonic

freq.      24.90  E(vib)   ...       0.56 
freq.      25.43  E(vib)   ...       0.56 
freq.      35.26  E(vib)   ...       0.54 
freq.      45.24  E(vib)   ...       0.53 
freq.      47.06  E(vib)   ...       0.53 
freq.      54.67  E(vib)   ...       0.52 
freq.      64.62  E(vib)   ...       0.50 
freq.      72.09  E(vib)   ...       0.50 
freq.      77.17  E(vib)   ...       0.49 
freq.      85.93  E(vib)   ...       0.48 
freq.     117.50  E(vib)   ...       0.44 
freq.     135.02  E(vib)   ...       0.42 
freq.     139.13  E(vib)   ...       0.42 
freq.     162.33  E(vib)   ...       0.39 
freq.     183.66  E(vib)   ...       0.37 
freq.     189.74  E(vib)   ...       0.36 
freq.     202.40  E(vib)   ...       0.35 
freq.     206.55  E(vib)   ...       0.35 
freq.     213.04  E(vib)   ...       0.34 
freq.     234.59  E(vib)   ...       0.32 
freq.     246.77  E(vib)   ...       0.31 
freq.     257.05  E(vib)   ...       0.30 
freq.     258.30  E(vib)   ...       0.30 
freq.     270.84  E(vib)   ...       0.29 
freq.     287.50  E(vib)   ...       0.27 
freq.     306.90  E(vib)   ...       0.26 
freq.     316.49  E(vib)   ...       0.25 
freq.     338.17  E(vib)   ...       0.24 
freq.     351.01  E(vib)   ...       0.23 
freq.     364.60  E(vib)   ...       0.22 
freq.     368.74  E(vib)   ...       0.21 
freq.     374.46  E(vib)   ...       0.21 
freq.     376.72  E(vib)   ...       0.21 
freq.     381.21  E(vib)   ...       0.21 
freq.     413.86  E(vib)   ...       0.19 
freq.     448.30  E(vib)   ...       0.17 
freq.     471.90  E(vib)   ...       0.15 
freq.     515.80  E(vib)   ...       0.13 
freq.     531.86  E(vib)   ...       0.13 
freq.     545.20  E(vib)   ...       0.12 
freq.     561.66  E(vib)   ...       0.11 
freq.     565.27  E(vib)   ...       0.11 
freq.     585.62  E(vib)   ...       0.11 
freq.     605.14  E(vib)   ...       0.10 
freq.     619.95  E(vib)   ...       0.09 
freq.     649.45  E(vib)   ...       0.08 
freq.     670.07  E(vib)   ...       0.08 
freq.     692.39  E(vib)   ...       0.07 
freq.     709.05  E(vib)   ...       0.07 
freq.     731.32  E(vib)   ...       0.06 
freq.     736.89  E(vib)   ...       0.06 
freq.     780.07  E(vib)   ...       0.05 
freq.     812.21  E(vib)   ...       0.05 
freq.     887.66  E(vib)   ...       0.04 
freq.    1017.58  E(vib)   ...       0.02 
freq.    1107.35  E(vib)   ...       0.02 
freq.    1121.20  E(vib)   ...       0.01 
freq.    1136.26  E(vib)   ...       0.01 
freq.    1140.65  E(vib)   ...       0.01 
freq.    1150.65  E(vib)   ...       0.01 
freq.    1159.60  E(vib)   ...       0.01 
freq.    1169.46  E(vib)   ...       0.01 
freq.    1173.75  E(vib)   ...       0.01 
freq.    1180.41  E(vib)   ...       0.01 
freq.    1188.34  E(vib)   ...       0.01 
freq.    1192.95  E(vib)   ...       0.01 
freq.    1208.30  E(vib)   ...       0.01 
freq.    1218.55  E(vib)   ...       0.01 
freq.    1246.87  E(vib)   ...       0.01 
freq.    1274.74  E(vib)   ...       0.01 
freq.    1296.09  E(vib)   ...       0.01 
freq.    1315.23  E(vib)   ...       0.01 
freq.    1368.71  E(vib)   ...       0.01 
freq.    1403.90  E(vib)   ...       0.00 
freq.    1677.81  E(vib)   ...       0.00 
freq.    1753.86  E(vib)   ...       0.00 
freq.    3463.33  E(vib)   ...       0.00 
freq.    3858.18  E(vib)   ...       0.00 

------------
INNER ENERGY
------------

The inner energy is: U= E(el) + E(ZPE) + E(vib) + E(rot) + E(trans)
    E(el)   - is the total energy from the electronic structure calculation
              = E(kin-el) + E(nuc-el) + E(el-el) + E(nuc-nuc)
    E(ZPE)  - the the zero temperature vibrational energy from the frequency calculation
    E(vib)  - the the finite temperature correction to E(ZPE) due to population
              of excited vibrational states
    E(rot)  - is the rotational thermal energy
    E(trans)- is the translational thermal energy

Summary of contributions to the inner energy U:
Electronic energy                ...  -2029.45190193 Eh
Zero point energy                ...      0.12341410 Eh      77.44 kcal/mol
Thermal vibrational correction   ...      0.02333677 Eh      14.64 kcal/mol
Thermal rotational correction    ...      0.00141627 Eh       0.89 kcal/mol
Thermal translational correction ...      0.00141627 Eh       0.89 kcal/mol
-----------------------------------------------------------------------
Total thermal energy                  -2029.30231851 Eh


Summary of corrections to the electronic energy:
(perhaps to be used in another calculation)
Total thermal correction                  0.02616931 Eh      16.42 kcal/mol
Non-thermal (ZPE) correction              0.12341410 Eh      77.44 kcal/mol
-----------------------------------------------------------------------
Total correction                          0.14958341 Eh      93.86 kcal/mol


--------
ENTHALPY
--------

The enthalpy is H = U + kB*T
                kB is Boltzmann's constant
Total thermal energy              ...  -2029.30231851 Eh 
Thermal Enthalpy correction       ...      0.00094421 Eh       0.59 kcal/mol
-----------------------------------------------------------------------
Total Enthalpy                    ...  -2029.30137430 Eh


Note: Only C1 symmetry has been detected, increase convergence thresholds 
      if your molecule has a higher symmetry. Symmetry factor of 1.0 is   
      used for the rotational entropy correction. 
 

Note: Rotational entropy computed according to Herzberg 
Infrared and Raman Spectra, Chapter V,1, Van Nostrand Reinhold, 1945 
Point Group:  C1, Symmetry Number:   1  
Rotational constants in cm-1:     0.017133     0.003500     0.003341 

Vibrational entropy computed according to the QRRHO of S. Grimme
Chem.Eur.J. 2012 18 9955 using a reference frequency of 100.0 cm-1


-------
ENTROPY
-------

The entropy contributions are T*S = T*(S(el)+S(vib)+S(rot)+S(trans))
     S(el)   - electronic entropy
     S(vib)  - vibrational entropy
     S(rot)  - rotational entropy
     S(trans)- translational entropy
The entropies will be listed as multiplied by the temperature to get
units of energy

Electronic entropy                ...      0.00000000 Eh      0.00 kcal/mol
Vibrational entropy               ...      0.04223961 Eh     26.51 kcal/mol
Rotational entropy                ...      0.01679188 Eh     10.54 kcal/mol
Translational entropy             ...      0.02094056 Eh     13.14 kcal/mol
-----------------------------------------------------------------------
Final entropy term                ...      0.07997205 Eh     50.18 kcal/mol

In case the symmetry of your molecule has not been determined correctly
or in case you have a reason to use a different symmetry number we print 
out the resulting rotational entropy values for sn=1,12:

 non-linear molecules -----------------------------------
|  sn= 1 | S(rot)=       0.01679188 Eh     10.54 kcal/mol|
|  sn= 2 | S(rot)=       0.01613742 Eh     10.13 kcal/mol|
|  sn= 3 | S(rot)=       0.01575459 Eh      9.89 kcal/mol|
|  sn= 4 | S(rot)=       0.01548296 Eh      9.72 kcal/mol|
|  sn= 5 | S(rot)=       0.01527228 Eh      9.58 kcal/mol|
|  sn= 6 | S(rot)=       0.01510013 Eh      9.48 kcal/mol|
|  sn= 7 | S(rot)=       0.01495458 Eh      9.38 kcal/mol|
|  sn= 8 | S(rot)=       0.01482851 Eh      9.31 kcal/mol|
|  sn= 9 | S(rot)=       0.01471730 Eh      9.24 kcal/mol|
|  sn=10 | S(rot)=       0.01461782 Eh      9.17 kcal/mol|
|  sn=11 | S(rot)=       0.01452783 Eh      9.12 kcal/mol|
|  sn=12 | S(rot)=       0.01444567 Eh      9.06 kcal/mol|
 linear molecules ---------------------------------------
|  Dinfh | S(rot)=       0.01070890 Eh      6.72 kcal/mol|
|  Cinfv | S(rot)=       0.01136336 Eh      7.13 kcal/mol|
 --------------------------------------------------------


-------------------
GIBBS FREE ENERGY
-------------------

The Gibbs free energy is G = H - T*S

Total enthalpy                    ...  -2029.30137430 Eh 
Total entropy correction          ...     -0.07997205 Eh    -50.18 kcal/mol
-----------------------------------------------------------------------
Final Gibbs free energy         ...  -2029.38134635 Eh

For completeness - the Gibbs free energy minus the electronic energy
G-E(el)                           ...      0.07055557 Eh     44.27 kcal/mol


Maximum memory used throughout the entire PROP-calculation: 373.9 MB

--------------------------------
SUGGESTED CITATIONS FOR THIS RUN
--------------------------------

Below you find a list of papers that are relevant to this ORCA run
We neither can nor want to force you to cite these papers, but we appreciate if you do
You receive ORCA, which is the product of decades of hard work by many enthusiastic individuals, for free
The only thing we kindly ask in return is that you cite our papers,
We deeply appreciate it, if you show your appreciation for ORCA by not just citing the generic ORCA reference.

Please note that relegating all ORCA citations to the supporting information does *not* help us.
SI sections are not indexed - citations you put there will not count into any citation statistics
But we need these citations in order to attract the funding resources that allow us to do what we are doing

Therefore, if you are a happy ORCA user, please consider citing a few of the papers listed below in the main body of your paper

In addition to the list printed below, the program has created the file rf_mecn_1H2O_freq_r2s_sw_03.bibtex that contains the list in bibtex format
You can import this file easily into all common literature databanks and citation aid programs


List of essential papers. We consider these as the minimum necessary citations

  1. Neese,F.
     Software update: the ORCA program system, version 5.0
     WIRES Comput. Molec. Sci., 2022 12(1)e1606
     doi.org/10.1002/wcms.1606

List of papers to cite with high priority. The work reported in these papers was absolutely
necessary for this run to complete.
Our perspective: the developers of density functionals and basis sets usually get cited in chemistry papers
Good! But without the algorithms to do something with them, the functionals or basis sets would not do anything.
Hence, in our opinion, the algorithm design and method developments papers are equally worthy of getting cited

  1. Neese,F.
     An improvement of the resolution of the identity approximation for the formation of the Coulomb matrix
     J. Comp. Chem., 2003 24(14)1740-1747
     doi.org/10.1002/jcc.10318
  2. Neese,F.; Wennmohs,F.; Hansen,A.; Becker,U.
     Efficient, approximate and parallel Hartree-Fock and hybrid DFT calculations. A 'chain-of-spheres' algorithm for the Hartree-Fock exchange
     Chem. Phys., 2009 356(1-3)98-109
     doi.org/10.1016/j.chemphys.2008.10.036
  3. Bykov,D.; Petrenko,T.; Izsak,R.; Kossmann,S.; Becker,U.; Valeev,E.; Neese,F.
     Efficient implementation of the analytic second derivatives of Hartree-Fock and hybrid DFT energies: a detailed analysis of different approximations
     Molec. Phys., 2015 113 1961-1977
     doi.org/10.1080/00268976.2015.1025114
  4. Garcia-Rates,M.; Neese,F.
     Efficient implementation of the analytical second derivatives of hartree-fock and hybrid DFT energies within the framework of the conductor-like polarizable continuum model
     J. Comput. Chem., 2019 40 1816-1828
     doi.org/10.1002/jcc.25833
  5. Garcia-Rates,M.; Neese,F.
     Effect of the Solute Cavity on the Solvation Energy and its Derivatives within the Framework of the Gaussian Charge Scheme
     J. Comput. Chem., 2020 41 922-939
     doi.org/10.1002/jcc.26139
  6. Helmich-Paris,B.; de Souza,B.; Neese,F.; Izsák,R.
     An improved chain of spheres for exchange algorithm
     J. Chem. Phys., 2021 155 104109
     doi.org/doi: 10.1063/5.0058766.
  7. Neese,F.
     The SHARK Integral Generation and Digestion System
     J. Comp. Chem., 2022  1-16
     doi.org/10.1002/jcc.26942
  8. Lehtola,S.; Steigemann,C.; Oliveira,M.; Marques,M.
     Recent developments in Libxc - A comprehensive library of functionals for density functional theory
     Software X, 2018 7 
     doi.org/10.1016/j.softx.2017.11.002
  9. Grimme,S.; Antony,J.; Ehrlich,S.; Krieg,H.
     A consistent and accurate ab initio parametrization of density functional dispersion correction (DFT-D) for the 94 elements H-Pu
     J. Chem. Phys., 2010 132 154104
     doi.org/10.1063/1.3382344
 10. Grimme,S.; Ehrlich,S.; Goerigk,L.
     Effect of the damping function in dispersion corrected density functional theory
     J. Comput. Chem., 2011 32(7)1456-1465
     doi.org/10.1002/jcc.21759
 11. Bursch,M.; Neugebauer,H.; Ehlert,S.; Grimme,S.
     Dispersion corrected r2SCAN based global hybrid functionals: r2SCANh, r2SCAN0, and r2SCAN50
     J. Phys. Chem., 2022 156(13)134105
     doi.org/10.1063/5.0086040

List of suggested additional citations. These are papers that are important in the 'surrounding' of 
of this run, or papers that preceded the highly important papers. If you like your results we are grateful for a citation.

  1. Izsak,R.; Neese,F.
     An overlap fitted chain of spheres exchange method
     J. Chem. Phys., 2011 135 144105
     doi.org/10.1063/1.3646921
  2. Izsak,R.; Hansen,A.; Neese,F.
     The resolution of identity and chain of spheres approximations for the LPNO-CCSD singles Fock term
     Molec. Phys., 2012 110 2413-2417
     doi.org/10.1080/00268976.2012.687466
  3. Neese,F.
     The ORCA program system
     WIRES Comput. Molec. Sci., 2012 2(1)73-78
     doi.org/10.1002/wcms.81
  4. Izsak,R.; Neese,F.; Klopper,W.
     Robust fitting techniques in the chain of spheres approximation to the Fock exchange: The role of the complementary space
     J. Chem. Phys., 2013 139 
     doi.org/10.1063/1.4819264
  5. Neese,F.
     Software update: the ORCA program system, version 4.0
     WIRES Comput. Molec. Sci., 2018 8(1)1-6
     doi.org/10.1002/wcms.1327
  6. Neese,F.; Wennmohs,F.; Becker,U.; Riplinger,C.
     The ORCA quantum chemistry program package
     J. Chem. Phys., 2020 152 Art. No. L224108
     doi.org/10.1063/5.0004608
  7. Wittmann,L.; Neugebauer,H.; Grimme,S.; Bursch,M.
     Dispersion-corrected r2SCAN based double-hybrid functionals
     J. Chem. Phys., 2023 159(22)224103
     doi.org/10.1063/5.0174988

List of optional additional citations

  1. Neese,F.
     Approximate second-order SCF convergence for spin unrestricted wavefunctions
     Chem. Phys. Lett., 2000 325(1-3)93-98
     doi.org/10.1016/s0009-2614(00)00662-x

Timings for individual modules:

Sum of individual times          ...     1078.732 sec (=  17.979 min)
Startup calculation              ...        4.609 sec (=   0.077 min)   0.4 %
SCF iterations                   ...       99.906 sec (=   1.665 min)   9.3 %
Property integrals               ...      306.061 sec (=   5.101 min)  28.4 %
SCF Response                     ...      429.723 sec (=   7.162 min)  39.8 %
Property calculations            ...      238.434 sec (=   3.974 min)  22.1 %
                             ****ORCA TERMINATED NORMALLY****
TOTAL RUN TIME: 0 days 0 hours 17 minutes 59 seconds 563 msec
