
                                 *****************
                                 * O   R   C   A *
                                 *****************

                                            #,                                       
                                            ###                                      
                                            ####                                     
                                            #####                                    
                                            ######                                   
                                           ########,                                 
                                     ,,################,,,,,                         
                               ,,#################################,,                 
                          ,,##########################################,,             
                       ,#########################################, ''#####,          
                    ,#############################################,,   '####,        
                  ,##################################################,,,,####,       
                ,###########''''           ''''###############################       
              ,#####''   ,,,,##########,,,,          '''####'''          '####       
            ,##' ,,,,###########################,,,                        '##       
           ' ,,###''''                  '''############,,,                           
         ,,##''                                '''############,,,,        ,,,,,,###''
      ,#''                                            '''#######################'''  
     '                                                          ''''####''''         
             ,#######,   #######,   ,#######,      ##                                
            ,#'     '#,  ##    ##  ,#'     '#,    #''#        ,####,   ,####,        
            ##       ##  ##   ,#'  ##            #'  '#       #'       #'  '#        
            ##       ##  #######   ##           ,######,      #####,   #    #        
            '#,     ,#'  ##    ##  '#,     ,#' ,#      #,     #,   #   #,  ,#        
             '#######'   ##     ##  '#######'  #'      '#     '####' # '####'        



                #########################################################
                #                        -***-                          #
                #          Department of theory and spectroscopy        #
                #                                                       #
                #                      Frank Neese                      #
                #                                                       #
                #     Directorship, Architecture, Infrastructure        #
                #                    SHARK, DRIVERS                     #
                #        Core code/Algorithms in most modules           #
                #                                                       #
                #        Max Planck Institute fuer Kohlenforschung      #
                #                Kaiser Wilhelm Platz 1                 #
                #                 D-45470 Muelheim/Ruhr                 #
                #                      Germany                          #
                #                                                       #
                #                  All rights reserved                  #
                #                        -***-                          #
                #########################################################


                         Program Version 6.0.1  -  RELEASE   -


 With contributions from (in alphabetic order):
[Max-Planck-Institut fuer Kohlenforschung]                               
  Daniel Aravena         : Magnetic Suceptibility                        
  Michael Atanasov       : Ab Initio Ligand Field Theory (pilot matlab implementation)
  Alexander A. Auer      : GIAO ZORA, VPT2 properties, NMR spectrum      
  Ute Becker             : All parallelization in ORCA, NUMFREQ, NUMCALC 
  Giovanni Bistoni       : ED, misc. LED, open-shell LED, HFLD           
  Martin Brehm           : Molecular dynamics                            
  Dmytro Bykov           : pre 5.0 version of the SCF Hessian            
  Marcos Casanova-Páez   : Triplet and SCS-CIS(D). UHF-(DLPNO)-IP/EA/STEOM-CCSD. UHF-CVS-IP/STEOM-CCSD   
  Vijay G. Chilkuri      : MRCI spin determinant printing, contributions to CSF-ICE 
  Pauline Colinet        : FMM embedding                                 
  Dipayan Datta          : RHF DLPNO-CCSD density                        
  Achintya Kumar Dutta   : EOM-CC, STEOM-CC                              
  Nicolas Foglia         : Exact transition moments, OPA infrastructure, MCD improvements    
  Dmitry Ganyushin       : Spin-Orbit,Spin-Spin,Magnetic field MRCI      
  Miquel Garcia-Rates    : C-PCM and meta-GGA Hessian, CCSD/C-PCM, Gaussian charge scheme 
  Tiago L. C. Gouveia    : GS-ROHF, GS-ROCIS                             
  Yang Guo               : DLPNO-NEVPT2, F12-NEVPT2, CIM, IAO-localization        
  Andreas Hansen         : Spin unrestricted coupled pair/coupled cluster methods 
  Ingolf Harden          : AUTO-CI MPn and infrastructure                
  Benjamin Helmich-Paris : MC-RPA, TRAH-(SCF,CASSCF), AVAS, COSX integrals, SCF dyn. polar. 
  Lee Huntington         : MR-EOM, pCC                                   
  Robert Izsak           : Overlap fitted RIJCOSX, COSX-SCS-MP3, EOM     
  Riya Kayal             : Wick's Theorem for AUTO-CI, AUTO-CI UHF-CCSDT 
  Emily Kempfer          : AUTO-CI, RHF CISDT and CCSDT                  
  Christian Kollmar      : KDIIS, OOCD, Brueckner-CCSD(T), CCSD density, CASPT2, CASPT2-K, improved NEVPT2 
  Axel Koslowski         : Symmetry handling                             
  Simone Kossmann        : meta-GGA functionals, TD-DFT gradient, OOMP2, (MP2 Hessian; deprecated post 5.0) 
  Lucas Lang             : DCDCAS                                        
  Marvin Lechner         : AUTO-CI (C++ implementation), FIC-MRCC        
  Spencer Leger          : CASSCF response                               
  Dagmar Lenk            : GEPOL surface, SMD, ORCA-2-JSON               
  Dimitrios Liakos       : Extrapolation schemes; Compound Job, initial MDCI parallelization 
  Dimitrios Manganas     : Further ROCIS development; embedding schemes. LFT, Crystal Embedding 
  Dimitrios Pantazis     : SARC Basis sets                               
  Anastasios Papadopoulos: AUTO-CI, single reference methods and gradients 
  Taras Petrenko         : pre 6.0 DFT Hessian and TD-DFT gradient, (ASA, deprecated), ECA, 1-Electron XAS/XES, NRVS 
  Peter Pinski           : DLPNO-MP2, DLPNO-MP2 Gradient                 
  Christoph Reimann      : Effective Core Potentials                     
  Marius Retegan         : Local ZFS, SOC                                
  Christoph Riplinger    : Optimizer, TS searches, QM/MM, DLPNO-CCSD(T), (RO)-DLPNO pert. Triples 
  Michael Roemelt        : Original ROCIS implementation                 
  Masaaki Saitow         : Open-shell DLPNO-CCSD energy and density      
  Barbara Sandhoefer     : DKH picture change effects                    
  Kantharuban Sivalingam : CASSCF convergence/infrastructure, NEVPT2 and variants, FIC-MRCI 
  Bernardo de Souza      : ESD, SOC TD-DFT                               
  Georgi L. Stoychev     : AutoAux, RI-MP2 NMR, DLPNO-MP2 response, X2C  
  Van Anh Tran           : RI-MP2 g-tensors                              
  Willem Van den Heuvel  : Paramagnetic NMR                              
  Zikuan Wang            : NOTCH, Electric field optimization            
  Frank Wennmohs         : Technical directorship and infrastructure     
  Hang Xu                : AUTO-CI-Response properties                   
                                                                         
[FACCTs GmbH]                                                            
  Markus Bursch, Miquel Garcia-Rates, Christoph Riplinger, Bernardo de Souza, Georgi L. Stoychev 
                                                                 
  APM, Basis sets (HGBS, AHGBS, def-TZVP (Ac-Lr), def2-XVPD (La-Lu)), CI-OPT, improved COSX, DLPNO-Multilevel,           
  DOCKER, DRACO, updates on ESD, GOAT, IRC, LR-CPCM, MBIS, meta-GGA TD-DFT gradient, ML-optimized integration grids, 
  MM, NACMEs, nearIR, NEB, NEB-TS, NL-DFT gradient (VV10), 2- and 3-layer-ONIOM, interface openCOSMO-RS, QMMM,   
  Crystal-QMMM, SF, symmetry and pop. for TD-DFT, r2SCAN hybrids, SOLVATOR                                   
                                                                         
[Other institutions]                                                     
  V. Asgeirsson          : NEB                                           
  Christoph Bannwarth    : sTDA-DFT, sTD-DFT, PBEh-3c, B97-3c, D3        
  Sebastian Ehlert       : rSCAN, r2SCAN, r2SCAN-3c, D4, dhf basis sets  
  Marvin Friede          : D4 for Fr, Ra, Ac-Lr                          
  Lars Goerigk           : TD-DFT with DH, B97 family of functionals     
  Stefan Grimme          : VdW corrections, initial TS optimization, DFT functionals, gCP, sTDA/sTD-DF 
  Waldemar Hujo          : DFT-NL                                        
  H. Jonsson             : NEB                                           
  Holger Kruse           : gCP                                           
  Marcel Mueller         : wB97X-3c, vDZP basis set                      
  Hagen Neugebauer       : wr2SCAN                                       
  Tobias Risthaus        : range-separated hybrid DFT                    
  Lukas Wittmann         : regularized MP2, r2SCAN double-hybrids, wr2SCAN        
                                                                         
We gratefully acknowledge several colleagues who have allowed us to      
interface, adapt or use parts of their codes:                            
  Ed Valeev, F. Pavosevic, A. Kumar             : LibInt (2-el integral package), F12 methods 
  Garnet Chan, S. Sharma, J. Yang, R. Olivares  : DMRG                   
  Ulf Ekstrom                                   : XCFun DFT Library      
  Mihaly Kallay                                 : mrcc  (arbitrary order and MRCC methods)
  Frank Weinhold                                : gennbo (NPA and NBO analysis)           
  Simon Mueller                                 : openCOSMO-RS                            
  Christopher J. Cramer and Donald G. Truhlar   : smd solvation model                     
  S Lehtola, MJT Oliveira, MAL Marques          : LibXC Library                           
  Liviu Ungur et al                             : ANISO software                          


 Your calculation uses the libint2 library for the computation of 2-el integrals
 For citations please refer to: http://libint.valeyev.net

 Your ORCA version has been built with support for libXC version: 6.2.2
 For citations please refer to: https://libxc.gitlab.io

 This ORCA versions uses:
   CBLAS   interface :  Fast vector & matrix operations
   LAPACKE interface :  Fast linear algebra routines
   SCALAPACK package :  Parallel linear algebra routines
   Shared memory     :  Shared parallel matrices
   BLAS/LAPACK       :  OpenBLAS 0.3.27  USE64BITINT DYNAMIC_ARCH NO_AFFINITY SkylakeX SINGLE_THREADED
        Core in use  :  SkylakeX
   Copyright (c) 2011-2014, The OpenBLAS Project


NOTE: MaxCore=8000 MB was set to SCF,MP2,MDCI,CIPSI,MRCI and CIS
      => If you want to overwrite this, your respective input block should be placed after the MaxCore statement
Your calculation utilizes the atom-pairwise dispersion correction
with the Becke-Johnson damping scheme (D3BJ)


Your calculation utilizes the SMD solvation module
Please cite in your paper:
A.V. Marenich, C.J. Cramer, D.G. Truhlar J. Phys. Chem. B, 113, (2009), 6378 

Warning: RI is on but no J-basis has been assigned. Assigning Def2/J (nothing to worry about!)
================================================================================

----- Orbital basis set information -----
Your calculation utilizes the basis: def2-TZVP
   F. Weigend and R. Ahlrichs, Phys. Chem. Chem. Phys. 7, 3297 (2005).

----- AuxJ basis set information -----
Your calculation utilizes the auxiliary basis: def2/J
   F. Weigend, Phys. Chem. Chem. Phys. 8, 1057 (2006).

================================================================================
                                        WARNINGS
                       Please study these warnings very carefully!
================================================================================


WARNING: your system is open-shell and RHF/RKS was chosen
  ===> : WILL SWITCH to UHF/UKS


WARNING: Geometry Optimization
  ===> : Switching off AutoStart
         For restart on a previous wavefunction, please use MOREAD

================================================================================
                                       INPUT FILE
================================================================================
NAME = rf_mecn_1H2O_opt_TP_con_002.inp
|  1> !TPSSh def2-TZVP opt d3 TightSCF SlowConv defgrid2
|  2>  
|  3> %pal
|  4> nprocs 20
|  5> end
|  6>  
|  7> %scf
|  8> MaxIter 1500
|  9> end
| 10>  
| 11> %maxcore 8000
| 12>  
| 13> !CPCM
| 14> %cpcm smd true
| 15> SMDsolvent "ACETONITRILE"
| 16> end
| 17>  
| 18> * xyz -1 2
| 19> 6        6.857280945     27.901753127      3.100719684
| 20> 6        6.154044945     26.704598127      2.411135684
| 21> 6        7.086539945     25.482838127      2.185613684
| 22> 6        6.299616945     24.171731127      1.900070684
| 23> 6        7.185881945     23.070259127      1.248991684
| 24> 6        6.565390945     21.647303127      1.360366684
| 25> 6        7.185681945     20.616666127      0.394672684
| 26> 6        6.843394945     19.121603127      0.784430684
| 27> 9        8.006806945     28.182557127      2.503585684
| 28> 9        7.082780945     27.647576127      4.378925684
| 29> 9        6.067588945     28.966668127      3.018348684
| 30> 9        5.116418945     26.361022127      3.182510684
| 31> 9        5.702795945     27.135986127      1.230360684
| 32> 9        7.887905945     25.777720127      1.156931684
| 33> 9        7.829891945     25.318192127      3.287321684
| 34> 9        5.806494945     23.745652127      3.066652684
| 35> 9        5.287431945     24.474179127      1.076603684
| 36> 9        7.350609945     23.413929127     -0.034316316
| 37> 9        6.756126945     21.255165127      2.631170684
| 38> 9        5.250981945     21.784657127      1.133608684
| 39> 9        6.706596945     20.903759127     -0.845345316
| 40> 9        8.519170945     20.869305127      0.364163684
| 41> 8        7.813741945     18.363469127      0.789215684
| 42> 8        5.634555945     18.967368127      0.997888684
| 43> 8        2.818390092     18.736599843      1.412612662
| 44> 1        2.716934106     17.791620290      1.243555674
| 45> 1        3.748070901     18.906228277      1.215686974
| 46> *
| 47> 
| 48>                          ****END OF INPUT****
================================================================================

                       *****************************
                       * Geometry Optimization Run *
                       *****************************

Geometry optimization settings:
Update method            Update   .... BFGS
Choice of coordinates    CoordSys .... (2022) Redundant Internals
Initial Hessian          InHess   .... Almloef's Model
Max. no of cycles        MaxIter  .... 81

Convergence Tolerances:
Energy Change            TolE     ....  5.0000e-06 Eh
Max. Gradient            TolMAXG  ....  3.0000e-04 Eh/bohr
RMS Gradient             TolRMSG  ....  1.0000e-04 Eh/bohr
Max. Displacement        TolMAXD  ....  4.0000e-03 bohr
RMS Displacement         TolRMSD  ....  2.0000e-03 bohr
Strict Convergence                .... False

------------------------------------------------------------------------------
                        ORCA OPTIMIZATION COORDINATE SETUP
------------------------------------------------------------------------------

The optimization will be done in redundant internal coordinates (2022)
Making redundant internal coordinates   ...  (2022 redundants) done
Evaluating the initial hessian          ...  (Almloef) done
Evaluating the coordinates              ...  done
Calculating the B-matrix                .... done
Calculating the G-matrix                .... done
Diagonalizing the G-matrix              .... done
Small eigenvalue found = 2.463e-03
Small eigenvalue found = 9.250e-03
Small eigenvalue found = 1.177e-02
Small eigenvalue found = 2.637e-02
The first mode is                       ....   39
The number of degrees of freedom        ....   75

    -----------------------------------------------------------------
                    Redundant Internal Coordinates


    -----------------------------------------------------------------
         Definition                    Initial Value    Approx d2E/dq
    -----------------------------------------------------------------
      1. B(C   1,C   0)                  1.5502         0.346804   
      2. B(C   2,C   1)                  1.5534         0.342781   
      3. B(C   3,C   2)                  1.5556         0.340086   
      4. B(C   4,C   3)                  1.5565         0.338954   
      5. B(C   5,C   4)                  1.5563         0.339111   
      6. B(C   6,C   5)                  1.5426         0.356709   
      7. B(C   7,C   6)                  1.5825         0.308055   
      8. B(F   8,C   0)                  1.3255         0.659090   
      9. B(F   9,C   0)                  1.3226         0.666042   
     10. B(F  10,C   0)                  1.3283         0.652181   
     11. B(F  11,C   1)                  1.3378         0.629847   
     12. B(F  12,C   1)                  1.3356         0.634870   
     13. B(F  13,C   2)                  1.3369         0.631928   
     14. B(F  14,C   2)                  1.3392         0.626649   
     15. B(F  15,C   3)                  1.3363         0.633409   
     16. B(F  16,C   3)                  1.3394         0.626090   
     17. B(F  17,C   4)                  1.3387         0.627782   
     18. B(F  18,C   5)                  1.3435         0.616728   
     19. B(F  19,C   5)                  1.3409         0.622782   
     20. B(F  20,C   6)                  1.3600         0.580545   
     21. B(F  21,C   6)                  1.3576         0.585779   
     22. B(O  22,C   7)                  1.2314         1.002075   
     23. B(O  23,C   7)                  1.2372         0.981004   
     24. B(H  25,O  24)                  0.9653         0.509876   
     25. B(H  26,O  23)                  1.9000         0.016453   
     26. B(H  26,O  24)                  0.9653         0.509876   
     27. A(F   9,C   0,F  10)          108.3827         0.434046   
     28. A(C   1,C   0,F  10)          108.7739         0.390821   
     29. A(C   1,C   0,F   8)          110.8930         0.391542   
     30. A(F   8,C   0,F   9)          109.1619         0.434870   
     31. A(C   1,C   0,F   9)          111.0282         0.392261   
     32. A(F   8,C   0,F  10)          108.5307         0.433227   
     33. A(C   2,C   1,F  11)          110.3230         0.387660   
     34. A(C   0,C   1,C   2)          113.5553         0.353571   
     35. A(C   0,C   1,F  11)          107.0787         0.388450   
     36. A(F  11,C   1,F  12)          109.3079         0.427641   
     37. A(C   2,C   1,F  12)          109.1769         0.388197   
     38. A(C   0,C   1,F  12)          107.2827         0.388989   
     39. A(C   3,C   2,F  14)          109.1587         0.386784   
     40. A(F  13,C   2,F  14)          109.1107         0.426896   
     41. A(C   1,C   2,C   3)          112.6983         0.352402   
     42. A(C   1,C   2,F  14)          108.0873         0.387316   
     43. A(C   3,C   2,F  13)          110.3587         0.387350   
     44. A(C   1,C   2,F  13)          107.3405         0.387883   
     45. A(F  15,C   3,F  16)          109.2595         0.427007   
     46. A(C   4,C   3,F  16)          109.4458         0.386499   
     47. A(C   2,C   3,F  16)          107.7470         0.386724   
     48. A(C   4,C   3,F  15)          110.4668         0.387282   
     49. A(C   2,C   3,C   4)          112.6559         0.351734   
     50. A(C   2,C   3,F  15)          107.1682         0.387508   
     51. A(C   5,C   4,F  17)          110.6326         0.386712   
     52. A(C   3,C   4,F  17)          106.8213         0.386681   
     53. A(C   3,C   4,C   5)          112.9589         0.351563   
     54. A(C   6,C   5,F  18)          109.8795         0.388932   
     55. A(C   4,C   5,F  18)          106.1374         0.385517   
     56. A(C   4,C   5,C   6)          113.9380         0.354615   
     57. A(F  18,C   5,F  19)          109.2091         0.424568   
     58. A(C   6,C   5,F  19)          110.9006         0.389596   
     59. A(C   4,C   5,F  19)          106.5622         0.386174   
     60. A(C   5,C   6,C   7)          112.9578         0.348903   
     61. A(F  20,C   6,F  21)          106.6335         0.415450   
     62. A(C   7,C   6,F  21)          113.1920         0.375779   
     63. A(C   5,C   6,F  21)          106.5420         0.385457   
     64. A(C   7,C   6,F  20)          110.3532         0.375197   
     65. A(C   5,C   6,F  20)          106.7446         0.384856   
     66. A(O  22,C   7,O  23)          133.8297         0.508781   
     67. A(C   6,C   7,O  23)          111.8150         0.413089   
     68. A(C   6,C   7,O  22)          114.3410         0.414652   
     69. A(C   7,O  23,H  26)          173.6796         0.231741   
     70. A(H  25,O  24,H  26)          103.7396         0.319780   
     71. A(O  23,H  26,O  24)          170.1504         0.195092   
     72. D(F  11,C   1,C   0,F   9)     49.4768         0.009705   
     73. D(C   2,C   1,C   0,F   8)     48.9947         0.009705   
     74. D(C   2,C   1,C   0,F  10)    168.2729         0.009705   
     75. D(F  11,C   1,C   0,F  10)    -69.7011         0.009705   
     76. D(F  11,C   1,C   0,F   8)    171.0207         0.009705   
     77. D(C   2,C   1,C   0,F   9)    -72.5492         0.009705   
     78. D(C   3,C   2,C   1,C   0)    162.7875         0.009500   
     79. D(F  13,C   2,C   1,F  12)     44.1537         0.009500   
     80. D(F  13,C   2,C   1,F  11)    164.2939         0.009500   
     81. D(F  13,C   2,C   1,C   0)    -75.4998         0.009500   
     82. D(C   3,C   2,C   1,F  11)     42.5812         0.009500   
     83. D(C   3,C   2,C   1,F  12)    -77.5590         0.009500   
     84. D(C   4,C   3,C   2,F  14)    -77.7232         0.009364   
     85. D(C   4,C   3,C   2,F  13)     42.1846         0.009364   
     86. D(C   4,C   3,C   2,C   1)    162.1720         0.009364   
     87. D(F  15,C   3,C   2,F  14)     43.9807         0.009364   
     88. D(F  15,C   3,C   2,F  13)    163.8885         0.009364   
     89. D(F  15,C   3,C   2,C   1)    -76.1241         0.009364   
     90. D(F  17,C   4,C   3,C   2)    -75.9715         0.008735   
     91. D(C   5,C   4,C   3,F  16)    -77.9884         0.008735   
     92. D(C   5,C   4,C   3,F  15)     42.3521         0.008735   
     93. D(F  17,C   4,C   3,F  15)    164.2137         0.008735   
     94. D(C   5,C   4,C   3,C   2)    162.1669         0.008735   
     95. D(F  19,C   5,C   4,C   3)     40.5013         0.008743   
     96. D(F  18,C   5,C   4,F  17)    164.4895         0.008743   
     97. D(F  18,C   5,C   4,C   3)    -75.8189         0.008743   
     98. D(C   6,C   5,C   4,F  17)     43.4416         0.008743   
     99. D(C   6,C   5,C   4,C   3)    163.1331         0.008743   
    100. D(C   7,C   6,C   5,F  19)    -75.6808         0.010222   
    101. D(C   7,C   6,C   5,F  18)     45.1557         0.010222   
    102. D(C   7,C   6,C   5,C   4)    164.0956         0.010222   
    103. D(F  20,C   6,C   5,F  19)     45.7788         0.010222   
    104. D(F  20,C   6,C   5,F  18)    166.6154         0.010222   
    105. D(F  20,C   6,C   5,C   4)    -74.4447         0.010222   
    106. D(O  23,C   7,C   6,F  20)    -70.5516         0.007386   
    107. D(O  23,C   7,C   6,C   5)     48.8461         0.007386   
    108. D(O  22,C   7,C   6,F  21)    -11.1459         0.007386   
    109. D(O  22,C   7,C   6,F  20)    108.2663         0.007386   
    110. D(O  22,C   7,C   6,C   5)   -132.3360         0.007386   
    111. D(H  26,O  23,C   7,O  22)   -158.3762         0.078375   
    112. D(H  26,O  23,C   7,C   6)     20.1307         0.078375   
    113. D(O  23,H  26,O  24,H  25)    -44.6419         0.289652   
    114. D(O  24,H  26,O  23,C   7)    180.0000         0.001625   
    -----------------------------------------------------------------

Number of atoms                         .... 27
Number of degrees of freedom            .... 114


         *************************************************************
         *                GEOMETRY OPTIMIZATION CYCLE   1            *
         *************************************************************
---------------------------------
CARTESIAN COORDINATES (ANGSTROEM)
---------------------------------
  C      6.857281   27.901753    3.100720
  C      6.154045   26.704598    2.411136
  C      7.086540   25.482838    2.185614
  C      6.299617   24.171731    1.900071
  C      7.185882   23.070259    1.248992
  C      6.565391   21.647303    1.360367
  C      7.185682   20.616666    0.394673
  C      6.843395   19.121603    0.784431
  F      8.006807   28.182557    2.503586
  F      7.082781   27.647576    4.378926
  F      6.067589   28.966668    3.018349
  F      5.116419   26.361022    3.182511
  F      5.702796   27.135986    1.230361
  F      7.887906   25.777720    1.156932
  F      7.829892   25.318192    3.287322
  F      5.806495   23.745652    3.066653
  F      5.287432   24.474179    1.076604
  F      7.350610   23.413929   -0.034316
  F      6.756127   21.255165    2.631171
  F      5.250982   21.784657    1.133609
  F      6.706597   20.903759   -0.845345
  F      8.519171   20.869305    0.364164
  O      7.813742   18.363469    0.789216
  O      5.634556   18.967368    0.997889
  O      2.818390   18.736600    1.412613
  H      2.716934   17.791620    1.243556
  H      3.748071   18.906228    1.215687

----------------------------
CARTESIAN COORDINATES (A.U.)
----------------------------
  NO LB      ZA    FRAG     MASS         X           Y           Z
   0 C     6.0000    0    12.011   12.958383   52.726672    5.859511
   1 C     6.0000    0    12.011   11.629460   50.464377    4.556386
   2 C     6.0000    0    12.011   13.391620   48.155585    4.130211
   3 C     6.0000    0    12.011   11.904551   45.677952    3.590613
   4 C     6.0000    0    12.011   13.579349   43.596472    2.360252
   5 C     6.0000    0    12.011   12.406791   40.907474    2.570720
   6 C     6.0000    0    12.011   13.578971   38.959853    0.745823
   7 C     6.0000    0    12.011   12.932142   36.134593    1.482359
   8 F     9.0000    0    18.998   15.130672   53.257315    4.731091
   9 F     9.0000    0    18.998   13.384516   52.246347    8.274970
  10 F     9.0000    0    18.998   11.466081   54.739070    5.703852
  11 F     9.0000    0    18.998    9.668631   49.815112    6.014074
  12 F     9.0000    0    18.998   10.776723   51.279582    2.325045
  13 F     9.0000    0    18.998   14.905982   48.712831    2.186284
  14 F     9.0000    0    18.998   14.796351   47.844449    6.212138
  15 F     9.0000    0    18.998   10.972685   44.872779    5.795134
  16 F     9.0000    0    18.998    9.991798   46.249496    2.034486
  17 F     9.0000    0    18.998   13.890640   44.245914   -0.064848
  18 F     9.0000    0    18.998   12.767230   40.166441    4.972192
  19 F     9.0000    0    18.998    9.922918   41.167036    2.142210
  20 F     9.0000    0    18.998   12.673632   39.502380   -1.597471
  21 F     9.0000    0    18.998   16.098900   39.437271    0.688170
  22 O     8.0000    0    15.999   14.765832   34.701928    1.491402
  23 O     8.0000    0    15.999   10.647768   35.843131    1.885736
  24 O     8.0000    0    15.999    5.325985   35.407042    2.669451
  25 H     1.0000    0     1.008    5.134261   33.621290    2.349980
  26 H     1.0000    0     1.008    7.082828   35.727594    2.297315

--------------------------------
INTERNAL COORDINATES (ANGSTROEM)
--------------------------------
 C      0   0   0     0.000000000000     0.00000000     0.00000000
 C      1   0   0     1.550240967971     0.00000000     0.00000000
 C      2   1   0     1.553417070561   113.55533844     0.00000000
 C      3   2   1     1.555565549319   112.69827683   162.78749478
 C      4   3   2     1.556473604418   112.65593685   162.17204174
 C      5   4   3     1.556347406475   112.95890429   162.16693919
 C      6   5   4     1.542575266263   113.93798420   163.13314068
 C      7   6   5     1.582493305800   112.95775891   164.09560104
 F      1   2   3     1.325454610708   110.89295443    48.99470066
 F      1   2   3     1.322598493786   111.02821211   287.45080856
 F      1   2   3     1.328323151093   108.77385697   168.27294708
 F      2   1   3     1.337808496862   107.07872998   122.02597894
 F      2   1   3     1.335646235786   107.28270546   239.27402584
 F      3   2   1     1.336910437166   107.34054952   284.50021141
 F      3   2   1     1.339194167581   108.08730739    42.06766241
 F      4   3   2     1.336273244456   107.16821115   283.87589533
 F      4   3   2     1.339436884298   107.74698212    41.35047990
 F      5   4   3     1.338702284210   106.82131950   284.02853646
 F      6   5   4     1.343538328131   106.13743735   284.18106314
 F      6   5   4     1.340878939786   106.56217547    40.50128759
 F      7   6   5     1.359996128008   106.74461671   285.55525164
 F      7   6   5     1.357553010576   106.54195382    39.20780969
 O      8   7   6     1.231407064536   114.34099629   227.66396244
 O      8   7   6     1.237192176224   111.81500307    48.84611502
 O     24   8   7     2.855878164494   176.99440113    20.13066459
 H     25  24   8     0.965328927296    99.05067288   136.27702780
 H     25  24   8     0.965328927795     6.53484144     0.00000000

---------------------------
INTERNAL COORDINATES (A.U.)
---------------------------
 C      0   0   0     0.000000000000     0.00000000     0.00000000
 C      1   0   0     2.929530871051     0.00000000     0.00000000
 C      2   1   0     2.935532835118   113.55533844     0.00000000
 C      3   2   1     2.939592871575   112.69827683   162.78749478
 C      4   3   2     2.941308847027   112.65593685   162.17204174
 C      5   4   3     2.941070367477   112.95890429   162.16693919
 C      6   5   4     2.915044794198   113.93798420   163.13314068
 C      7   6   5     2.990478956726   112.95775891   164.09560104
 F      1   2   3     2.504746217182   110.89295443    48.99470066
 F      1   2   3     2.499348938392   111.02821211   287.45080856
 F      1   2   3     2.510166972913   108.77385697   168.27294708
 F      2   1   3     2.528091678703   107.07872998   122.02597894
 F      2   1   3     2.524005597439   107.28270546   239.27402584
 F      3   2   1     2.526394591825   107.34054952   284.50021141
 F      3   2   1     2.530710216873   108.08730739    42.06766241
 F      4   3   2     2.525190472108   107.16821115   283.87589533
 F      4   3   2     2.531168884996   107.74698212    41.35047990
 F      5   4   3     2.529780692011   106.82131950   284.02853646
 F      6   5   4     2.538919490593   106.13743735   284.18106314
 F      6   5   4     2.533893974938   106.56217547    40.50128759
 F      7   6   5     2.570020225129   106.74461671   285.55525164
 F      7   6   5     2.565403402268   106.54195382    39.20780969
 O      8   7   6     2.327022111350   114.34099629   227.66396244
 O      8   7   6     2.337954388093   111.81500307    48.84611502
 O     24   8   7     5.396827602739   176.99440113    20.13066459
 H     25  24   8     1.824207301742    99.05067288   136.27702780
 H     25  24   8     1.824207302685     6.53484144     0.00000000

---------------------
BASIS SET INFORMATION
---------------------
There are 4 groups of distinct atoms

 Group   1 Type C   : 11s6p2d1f contracted to 5s3p2d1f pattern {62111/411/11/1}
 Group   2 Type F   : 11s6p2d1f contracted to 5s3p2d1f pattern {62111/411/11/1}
 Group   3 Type O   : 11s6p2d1f contracted to 5s3p2d1f pattern {62111/411/11/1}
 Group   4 Type H   : 5s1p contracted to 3s1p pattern {311/1}

Atom   0C    basis set group =>   1
Atom   1C    basis set group =>   1
Atom   2C    basis set group =>   1
Atom   3C    basis set group =>   1
Atom   4C    basis set group =>   1
Atom   5C    basis set group =>   1
Atom   6C    basis set group =>   1
Atom   7C    basis set group =>   1
Atom   8F    basis set group =>   2
Atom   9F    basis set group =>   2
Atom  10F    basis set group =>   2
Atom  11F    basis set group =>   2
Atom  12F    basis set group =>   2
Atom  13F    basis set group =>   2
Atom  14F    basis set group =>   2
Atom  15F    basis set group =>   2
Atom  16F    basis set group =>   2
Atom  17F    basis set group =>   2
Atom  18F    basis set group =>   2
Atom  19F    basis set group =>   2
Atom  20F    basis set group =>   2
Atom  21F    basis set group =>   2
Atom  22O    basis set group =>   3
Atom  23O    basis set group =>   3
Atom  24O    basis set group =>   3
Atom  25H    basis set group =>   4
Atom  26H    basis set group =>   4
---------------------------------
AUXILIARY/J BASIS SET INFORMATION
---------------------------------
There are 4 groups of distinct atoms

 Group   1 Type C   : 12s5p4d2f1g contracted to 6s4p3d1f1g pattern {711111/2111/211/2/1}
 Group   2 Type F   : 12s5p4d2f1g contracted to 6s4p3d1f1g pattern {711111/2111/211/2/1}
 Group   3 Type O   : 12s5p4d2f1g contracted to 6s4p3d1f1g pattern {711111/2111/211/2/1}
 Group   4 Type H   : 5s2p1d contracted to 3s1p1d pattern {311/2/1}

Atom   0C    basis set group =>   1
Atom   1C    basis set group =>   1
Atom   2C    basis set group =>   1
Atom   3C    basis set group =>   1
Atom   4C    basis set group =>   1
Atom   5C    basis set group =>   1
Atom   6C    basis set group =>   1
Atom   7C    basis set group =>   1
Atom   8F    basis set group =>   2
Atom   9F    basis set group =>   2
Atom  10F    basis set group =>   2
Atom  11F    basis set group =>   2
Atom  12F    basis set group =>   2
Atom  13F    basis set group =>   2
Atom  14F    basis set group =>   2
Atom  15F    basis set group =>   2
Atom  16F    basis set group =>   2
Atom  17F    basis set group =>   2
Atom  18F    basis set group =>   2
Atom  19F    basis set group =>   2
Atom  20F    basis set group =>   2
Atom  21F    basis set group =>   2
Atom  22O    basis set group =>   3
Atom  23O    basis set group =>   3
Atom  24O    basis set group =>   3
Atom  25H    basis set group =>   4
Atom  26H    basis set group =>   4


           ************************************************************
           *        Program running with 20 parallel MPI-processes    *
           *              working on a common directory               *
           ************************************************************
------------------------------------------------------------------------------
                             ORCA STARTUP CALCULATIONS
                           -- RI-GTO INTEGRALS CHOSEN --
------------------------------------------------------------------------------
------------------------------------------------------------------------------
                   ___                                                        
                  /   \      - P O W E R E D   B Y -                         
                 /     \                                                     
                 |  |  |   _    _      __       _____    __    __             
                 |  |  |  | |  | |    /  \     |  _  \  |  |  /  |          
                  \  \/   | |  | |   /    \    | | | |  |  | /  /          
                 / \  \   | |__| |  /  /\  \   | |_| |  |  |/  /          
                |  |  |   |  __  | /  /__\  \  |    /   |      \           
                |  |  |   | |  | | |   __   |  |    \   |  |\   \          
                \     /   | |  | | |  |  |  |  | |\  \  |  | \   \       
                 \___/    |_|  |_| |__|  |__|  |_| \__\ |__|  \__/        
                                                                              
                      - O R C A' S   B I G   F R I E N D -                    
                                      &                                       
                       - I N T E G R A L  F E E D E R -                       
                                                                              
 v1 FN, 2020, v2 2021, v3 2022-2024                                           
------------------------------------------------------------------------------


----------------------
SHARK INTEGRAL PACKAGE
----------------------

Number of atoms                             ...     27
Number of basis functions                   ...    787
Number of shells                            ...    283
Maximum angular momentum                    ...      3
Integral batch strategy                     ... SHARK/LIBINT Hybrid
RI-J (if used) integral strategy            ... SPLIT-RIJ (Revised 2003 algorithm where possible)
Printlevel                                  ...      1
Contraction scheme used                     ... SEGMENTED contraction
Prescreening option                         ... SCHWARTZ
   Thresh                                   ... 2.500e-11
   Tcut                                     ... 2.500e-12
   Tpresel                                  ... 2.500e-12 
Coulomb Range Separation                    ... NOT USED
Exchange Range Separation                   ... NOT USED
Multipole approximations                    ... NOT USED
Finite Nucleus Model                        ... NOT USED
CABS basis                                  ... NOT available
Auxiliary Coulomb fitting basis             ... AVAILABLE
   # of basis functions in Aux-J            ...   1247
   # of shells in Aux-J                     ...    385
   Maximum angular momentum in Aux-J        ...      4
Auxiliary J/K fitting basis                 ... NOT available
Auxiliary Correlation fitting basis         ... NOT available
Auxiliary 'external' fitting basis          ... NOT available

Checking pre-screening integrals            ... done (  0.0 sec) Dimension = 283
Check shell pair data                       ... done (  0.0 sec)
Shell pair information
Shell pair cut-off parameter TPreSel        ...   2.5e-12
Total number of shell pairs                 ...     40186
Shell pairs after pre-screening             ...     23524
Total number of primitive shell pairs       ...    131884
Primitive shell pairs kept                  ...     49490
          la=0 lb=0:   4569 shell pairs
          la=1 lb=0:   6476 shell pairs
          la=1 lb=1:   2222 shell pairs
          la=2 lb=0:   3469 shell pairs
          la=2 lb=1:   2521 shell pairs
          la=2 lb=2:    697 shell pairs
          la=3 lb=0:   1580 shell pairs
          la=3 lb=1:   1202 shell pairs
          la=3 lb=2:    634 shell pairs
          la=3 lb=3:    154 shell pairs

Calculating one electron integrals          ... done (  0.0 sec)
Calculating RI/J V-Matrix + Cholesky decomp.... done (  0.1 sec)
Calculating Nuclear repulsion               ... done (  0.0 sec) ENN=   2802.103271978284 Eh

Diagonalization of the overlap matrix:
Smallest eigenvalue                        ... 5.656e-05
Time for diagonalization                   ...    0.114 sec
Threshold for overlap eigenvalues          ... 1.000e-07
Number of eigenvalues below threshold      ... 0
Time for construction of square roots      ...    0.050 sec
Total time needed                          ...    0.169 sec

-------------------
DFT GRID GENERATION
-------------------

General Integration Accuracy     IntAcc      ... 4.388
Radial Grid Type                 RadialGrid  ... OptM3 with GC (2021)
Angular Grid (max. ang.)         AngularGrid ... 4 (Lebedev-302)
Angular grid pruning method      GridPruning ... 4 (adaptive)
Weight generation scheme         WeightScheme... mBecke (2022)
Basis function cutoff            BFCut       ... 1.0000e-11
Integration weight cutoff        WCut        ... 1.0000e-14
Partially contracted basis set               ... off
Rotationally invariant grid construction     ... off
Angular grids for H and He will be reduced by one unit

Total number of grid points                  ...   158079
Total number of batches                      ...     2483
Average number of points per batch           ...       63
Average number of grid points per atom       ...     5855

--------------------
COSX GRID GENERATION
--------------------

GRIDX 1
-------
General Integration Accuracy     IntAcc      ... 3.816
Radial Grid Type                 RadialGrid  ... OptM3 with GC (2021)
Angular Grid (max. ang.)         AngularGrid ... 1 (Lebedev-50)
Angular grid pruning method      GridPruning ... 4 (adaptive)
Weight generation scheme         WeightScheme... mBecke (2022)
Basis function cutoff            BFCut       ... 1.0000e-11
Integration weight cutoff        WCut        ... 1.0000e-14
Partially contracted basis set               ... on
Rotationally invariant grid construction     ... off
Angular grids for H and He will be reduced by one unit

Total number of grid points                  ...    19906
Total number of batches                      ...      167
Average number of points per batch           ...      119
Average number of grid points per atom       ...      737
UseSFitting                                  ... on

GRIDX 2
-------
General Integration Accuracy     IntAcc      ... 4.020
Radial Grid Type                 RadialGrid  ... OptM3 with GC (2021)
Angular Grid (max. ang.)         AngularGrid ... 2 (Lebedev-110)
Angular grid pruning method      GridPruning ... 4 (adaptive)
Weight generation scheme         WeightScheme... mBecke (2022)
Basis function cutoff            BFCut       ... 1.0000e-11
Integration weight cutoff        WCut        ... 1.0000e-14
Partially contracted basis set               ... on
Rotationally invariant grid construction     ... off
Angular grids for H and He will be reduced by one unit

Total number of grid points                  ...    46642
Total number of batches                      ...      379
Average number of points per batch           ...      123
Average number of grid points per atom       ...     1727
UseSFitting                                  ... on

GRIDX 3
-------
General Integration Accuracy     IntAcc      ... 4.338
Radial Grid Type                 RadialGrid  ... OptM3 with GC (2021)
Angular Grid (max. ang.)         AngularGrid ... 3 (Lebedev-194)
Angular grid pruning method      GridPruning ... 4 (adaptive)
Weight generation scheme         WeightScheme... mBecke (2022)
Basis function cutoff            BFCut       ... 1.0000e-11
Integration weight cutoff        WCut        ... 1.0000e-14
Partially contracted basis set               ... on
Rotationally invariant grid construction     ... off
Angular grids for H and He will be reduced by one unit

Total number of grid points                  ...   103267
Total number of batches                      ...      819
Average number of points per batch           ...      126
Average number of grid points per atom       ...     3825
UseSFitting                                  ... on
Initializing property integral containers    ... done (  0.0 sec)

SHARK setup successfully completed in   3.0 seconds

Maximum memory used throughout the entire STARTUP-calculation: 60.3 MB


           ************************************************************
           *        Program running with 20 parallel MPI-processes    *
           *              working on a common directory               *
           ************************************************************
-------------------------------------------------------------------------------
                                 ORCA GUESS
                   Start orbitals & Density for SCF / CASSCF
-------------------------------------------------------------------------------

------------
SCF SETTINGS
------------
Hamiltonian:
 Density Functional     Method          .... DFT(GTOs)
 Exchange Functional    Exchange        .... TPSS
 Correlation Functional Correlation     .... TPSS
 LDA part of GGA corr.  LDAOpt          .... PW91-LDA
 Gradients option       PostSCFGGA      .... off
 Hybrid DFT is turned on
   Fraction HF Exchange ScalHFX         ....  0.100000
   Scaling of DF-GGA-X  ScalDFX         ....  0.900000
   Scaling of DF-GGA-C  ScalDFC         ....  1.000000
   Scaling of DF-LDA-C  ScalLDAC        ....  1.000000
   Perturbative correction              ....  0.000000
   NL short-range parameter             ....  5.200000
 RI-approximation to the Coulomb term is turned on
   Number of AuxJ basis functions       .... 1247
   RIJ-COSX (HFX calculated with COS-X)).... on


General Settings:
 Integral files         IntName         .... rf_mecn_1H2O_opt_TP_con_002
 Hartree-Fock type      HFTyp           .... UHF
 Total Charge           Charge          ....   -1
 Multiplicity           Mult            ....    2
 Number of Electrons    NEL             ....  201
 Basis Dimension        Dim             ....  787
 Nuclear Repulsion      ENuc            ....   2802.1032719783 Eh

Convergence Acceleration:
 AO-DIIS                CNVDIIS         .... on
   Start iteration      DIISMaxIt       ....     0
   Startup error        DIISStart       ....  0.200000
   # of expansion vecs  DIISMaxEq       ....     5
   Bias factor          DIISBfac        ....   1.050
   Max. coefficient     DIISMaxC        ....  10.000
 MO-DIIS                CNVKDIIS        .... off
 Trust-Rad. Augm. Hess. CNVTRAH         .... auto
   Auto Start mean grad. ratio tolernc. ....  1.125000
   Auto Start start iteration           ....    50
   Auto Start num. interpolation iter.  ....    10
   Max. Number of Micro iterations      ....    24
   Max. Number of Macro iterations      .... Maxiter - #DIIS iter
   Number of Davidson start vectors     ....     2
   Converg. threshold    (grad. norm)   ....   1.000e-05
   Grad. Scal. Fac. for Micro threshold ....   0.100
   Minimum threshold for Micro iter.    ....   1.000e-02
   NR start threshold (gradient norm)   ....   1.000e-04
   Initial trust radius                 ....   0.400
   Minimum AH scaling param. (alpha)    ....   1.000
   Maximum AH scaling param. (alpha)    .... 1000.000
   Quad. conv. algorithm                .... NR
   White noise on init. David. guess    .... on
   Maximum white noise                  ....   0.010
   Pseudo random numbers                .... off
   Inactive MOs                         .... canonical
   Orbital update algorithm             .... Taylor
   Preconditioner                       .... Diag
   Full preconditioner red. dimension   ....   250
 SOSCF                  CNVSOSCF        .... on
   Start iteration      SOSCFMaxIt      ....   150
   Startup grad/error   SOSCFStart      ....  0.001000
   Hessian update       SOSCFHessUp     .... L-BFGS
 Level Shifting         CNVShift        .... on
   Level shift para.    LevelShift      ....    0.2500
   Turn off err/grad.   ShiftErr        ....    0.0000
 Zerner damping         CNVZerner       .... off
 Static damping         CNVDamp         .... on
   Fraction old density DampFac         ....    0.8500
   Max. Damping (<1)    DampMax         ....    0.9800
   Min. Damping (>=0)   DampMin         ....    0.0000
   Turn off err/grad.   DampErr         ....    0.0300

SCF Procedure:
 Maximum # iterations   MaxIter         ....  1500
 SCF integral mode      SCFMode         .... Direct
   Integral package                     .... SHARK and LIBINT hybrid scheme
 Reset frequency        DirectResetFreq ....    20
 Integral Threshold     Thresh          ....  2.500e-11 Eh
 Primitive CutOff       TCut            ....  2.500e-12 Eh

Convergence Tolerance:
 Convergence Check Mode ConvCheckMode   .... Total+1el-Energy
 Convergence forced     ConvForced      .... 0
 Energy Change          TolE            ....  1.000e-08 Eh
 1-El. energy change                    ....  1.000e-05 Eh
 Orbital Gradient       TolG            ....  1.000e-05
 Orbital Rotation angle TolX            ....  1.000e-05
 DIIS Error             TolErr          ....  5.000e-07

------------------------------
INITIAL GUESS: MODEL POTENTIAL
------------------------------
Loading Hartree-Fock densities                     ... done
Calculating cut-offs                               ... done
Initializing the effective Hamiltonian             ... done
Setting up the integral package (SHARK)            ... done
Starting the Coulomb interaction                   ... done (   0.2 sec)
Making the grid                                    ... done (   0.4 sec)
Mapping shells                                     ... done
Starting the XC term evaluation                    ... done (   0.1 sec)
  promolecular density results
     # of electrons  =    200.000154227
     EX              =   -205.989439500
     EC              =     -7.003352955
     EX+EC           =   -212.992792455
Transforming the Hamiltonian                       ... done (   0.1 sec)
Diagonalizing the Hamiltonian                      ... done (   0.1 sec)
Back transforming the eigenvectors                 ... done (   0.0 sec)
Now organizing SCF variables                       ... done
                      ------------------
                      INITIAL GUESS DONE (   0.9 sec)
                      ------------------
             **** ENERGY FILE WAS UPDATED (rf_mecn_1H2O_opt_TP_con_002.en.tmp) ****
Finished Guess after   1.6 sec
Maximum memory used throughout the entire GUESS-calculation: 49.0 MB


           ************************************************************
           *        Program running with 20 parallel MPI-processes    *
           *              working on a common directory               *
           ************************************************************

-------------------------------------------------------------------------------------------
                                      ORCA LEAN-SCF
                              memory conserving SCF solver
-------------------------------------------------------------------------------------------

--------------------
CPCM SOLVATION MODEL
--------------------
CPCM parameters:
  Epsilon                                         ...      35.6880
  Refrac                                          ...       1.3442
  Rsolv                                           ...       1.3000
  Surface type                                    ... GAUSSIAN VDW
  Discretization scheme                           ... Constant charge density
    Threshold for H atoms                         ...       5.0000 (charges/Ang^2)
    Threshold for non-H atoms                     ...       5.0000 (charges/Ang^2)
  Epsilon function type                           ...         CPCM
Solvent:                                          ... ACETONITRILE
SMD-CDS solvent descriptors:
  Soln                                            ...       1.3442
  Soln25                                          ...       1.3416
  Sola                                            ...       0.0700
  Solb                                            ...       0.3200
  Solg                                            ...      41.2500
  Solc                                            ...       0.0000
  Solh                                            ...       0.0000
Radii:
  Scheme                                          ... Element-dependent radii
  Radius for C  used is    3.4960 Bohr (=   1.8500 Ang.)
  Radius for F  used is    3.2692 Bohr (=   1.7300 Ang.)
  Radius for O  used is    4.0969 Bohr (=   2.1680 Ang.)
  Radius for H  used is    2.2677 Bohr (=   1.2000 Ang.)
Calculating surface                               ...        done! (  0.0s)
Cavity surface points                             ...         2361
Cavity Volume                                     ...    2314.7460
Cavity Surface-area                               ...    1233.7898
Calculating surface distance matrix               ...        done! (  0.0s)
Performing Cholesky decomposition & store         ...        done! (  0.1s)
Overall time for CPCM initialization              ...                 0.2s

----------------------------------------D-I-I-S--------------------------------------------
Iteration    Energy (Eh)           Delta-E    RMSDP     MaxDP     DIISErr   Damp  Time(sec)
-------------------------------------------------------------------------------------------
               ***  Starting incremental Fock matrix formation  ***
    1    -1929.8850746614425589     0.00e+00  2.68e-04  4.73e-02  1.62e-01  0.850   7.1
Warning: op=0 Small HOMO/LUMO gap (   0.073) - skipping pre-diagonalization
         Will do a full diagonalization
    2    -1930.0390770511103256    -1.54e-01  3.80e-04  9.39e-02  1.13e-01  0.850   4.9
                               ***Turning on AO-DIIS***
    3    -1930.1230111972163286    -8.39e-02  1.87e-04  4.19e-02  6.96e-02  0.850   4.2
    4    -1930.1733931331555141    -5.04e-02  9.40e-05  1.54e-02  5.18e-02  0.850   4.2
    5    -1930.2091762998461490    -3.58e-02  5.57e-05  4.27e-03  4.23e-02  0.850   4.0
    6    -1930.2374688301288188    -2.83e-02  4.17e-05  3.18e-03  3.59e-02  0.850   4.0
    7    -1930.2609660989182885    -2.35e-02  3.61e-05  2.97e-03  3.10e-02  0.850   3.8
    8    -1930.2808127620064624    -1.98e-02  3.18e-05  2.68e-03  2.63e-02  0.850   3.7
    9    -1930.2973842093788335    -1.66e-02  1.83e-04  1.51e-02  2.19e-02  0.000   3.8
   10    -1930.3843409796354536    -8.70e-02  1.57e-05  2.50e-03  3.48e-03  0.000   4.2
                              *** Initializing SOSCF ***
---------------------------------------S-O-S-C-F--------------------------------------
Iteration    Energy (Eh)           Delta-E    RMSDP     MaxDP     MaxGrad    Time(sec)
--------------------------------------------------------------------------------------
   11    -1930.3844662201481697    -1.25e-04  1.00e-05  1.82e-03  9.79e-04     4.2
               *** Restarting incremental Fock matrix formation ***
   12    -1930.3844598393616252     6.38e-06  1.20e-05  1.49e-03  6.57e-04     6.8
   13    -1930.3844548198330813     5.02e-06  8.86e-06  1.03e-03  1.21e-03     4.8
   14    -1930.3844751254819130    -2.03e-05  2.56e-06  2.18e-04  1.34e-04     4.5
   15    -1930.3844743582922092     7.67e-07  1.55e-06  2.98e-04  1.27e-04     4.3
   16    -1930.3844757281849525    -1.37e-06  4.50e-07  6.31e-05  1.48e-05     3.9
   17    -1930.3844757208707961     7.31e-09  1.88e-07  2.12e-05  1.83e-05     3.4
                 **** Energy Check signals convergence ****

               *****************************************************
               *                     SUCCESS                       *
               *           SCF CONVERGED AFTER  17 CYCLES          *
               *****************************************************

Recomputing exchange energy using gridx3       ... done (    7.713 sec)
Old exchange energy                            :    -20.813255192 Eh
New exchange energy                            :    -20.813249705 Eh
Exchange energy change after final integration :      0.000005487 Eh
Total energy after final integration           :  -1930.384470234 Eh

SMD CDS free energy correction energy :                 2.97435     Kcal/mol
Total Energy after SMD CDS correction =             -1930.379730306 Eh
             **** ENERGY FILE WAS UPDATED (rf_mecn_1H2O_opt_TP_con_002.en.tmp) ****

----------------
TOTAL SCF ENERGY
----------------

Total Energy       :      -1930.37973030630997 Eh          -52528.30295 eV

Components:
Nuclear Repulsion  :       2802.10327197828428 Eh           76249.10646 eV
Electronic Energy  :      -4732.40888773691131 Eh         -128775.39265 eV
One Electron Energy:      -8284.41380174479673 Eh         -225430.36020 eV
Two Electron Energy:       3552.00491400788542 Eh           96654.96755 eV
CPCM Dielectric    :         -0.07885996224358 Eh              -2.14589 eV
SMD CDS (Gcds)     :          0.00473992750382 Eh               0.12898 eV

Virial components:
Potential Energy   :      -3854.76615951655094 Eh         -104893.51988 eV
Kinetic Energy     :       1924.38642921024120 Eh           52365.21693 eV
Virial Ratio       :          2.00311439584332

DFT components:
N(Alpha)           :      101.000001890173 electrons
N(Beta)            :       99.999997345974 electrons
N(Total)           :      200.999999236146 electrons
E(X)               :     -189.107971408069 Eh       
E(C)               :       -7.058021125869 Eh       
E(XC)              :     -196.165992533938 Eh       

CPCM Solvation Model Properties:
Surface-charge          :          0.99005652167381
Corrected charge        :          1.00000000000000
Outlying charge corr.   :          0.00000512744049 Eh               0.00014 eV
Free-energy (cav+disp)  :          0.00473992750382 Eh               0.12898 eV

---------------
SCF CONVERGENCE
---------------

  Last Energy change         ...   -7.3142e-09  Tolerance :   1.0000e-08
  Last MAX-Density change    ...    2.1233e-05  Tolerance :   1.0000e-07
  Last RMS-Density change    ...    1.8837e-07  Tolerance :   5.0000e-09
  Last DIIS Error            ...    9.7949e-04  Tolerance :   5.0000e-07
  Last Orbital Gradient      ...    1.8323e-05  Tolerance :   1.0000e-05
  Last Orbital Rotation      ...    1.9167e-05  Tolerance :   1.0000e-05


----------------------
UHF SPIN CONTAMINATION
----------------------

Warning: in a DFT calculation there is little theoretical justification to 
         calculate <S**2> as in Hartree-Fock theory. We will do it anyways
         but you should keep in mind that the values have only limited relevance

Expectation value of <S**2>     :     0.753806
Ideal value S*(S+1) for S=0.5   :     0.750000
Deviation                       :     0.003806

----------------
ORBITAL ENERGIES
----------------
                 SPIN UP ORBITALS
  NO   OCC          E(Eh)            E(eV) 
   0   1.0000     -24.658173      -670.9830 
   1   1.0000     -24.657108      -670.9540 
   2   1.0000     -24.656462      -670.9364 
   3   1.0000     -24.655415      -670.9079 
   4   1.0000     -24.655397      -670.9075 
   5   1.0000     -24.655039      -670.8977 
   6   1.0000     -24.654870      -670.8931 
   7   1.0000     -24.653597      -670.8585 
   8   1.0000     -24.650911      -670.7854 
   9   1.0000     -24.649215      -670.7393 
  10   1.0000     -24.636341      -670.3889 
  11   1.0000     -24.632296      -670.2788 
  12   1.0000     -24.615386      -669.8187 
  13   1.0000     -24.615336      -669.8173 
  14   1.0000     -19.021890      -517.6119 
  15   1.0000     -18.998155      -516.9661 
  16   1.0000     -18.994646      -516.8706 
  17   1.0000     -10.387585      -282.6606 
  18   1.0000     -10.332633      -281.1652 
  19   1.0000     -10.330492      -281.1070 
  20   1.0000     -10.329133      -281.0700 
  21   1.0000     -10.307671      -280.4860 
  22   1.0000     -10.273264      -279.5497 
  23   1.0000     -10.258620      -279.1512 
  24   1.0000     -10.196040      -277.4483 
  25   1.0000      -1.326438       -36.0942 
  26   1.0000      -1.298790       -35.3419 
  27   1.0000      -1.281938       -34.8833 
  28   1.0000      -1.277725       -34.7687 
  29   1.0000      -1.266619       -34.4665 
  30   1.0000      -1.247683       -33.9512 
  31   1.0000      -1.238763       -33.7085 
  32   1.0000      -1.236407       -33.6443 
  33   1.0000      -1.231399       -33.5081 
  34   1.0000      -1.229319       -33.4515 
  35   1.0000      -1.222465       -33.2650 
  36   1.0000      -1.218906       -33.1681 
  37   1.0000      -1.206388       -32.8275 
  38   1.0000      -1.179701       -32.1013 
  39   1.0000      -1.009782       -27.4776 
  40   1.0000      -0.960353       -26.1325 
  41   1.0000      -0.930317       -25.3152 
  42   1.0000      -0.818716       -22.2784 
  43   1.0000      -0.797346       -21.6969 
  44   1.0000      -0.764003       -20.7896 
  45   1.0000      -0.728705       -19.8291 
  46   1.0000      -0.684261       -18.6197 
  47   1.0000      -0.658183       -17.9101 
  48   1.0000      -0.634771       -17.2730 
  49   1.0000      -0.619665       -16.8619 
  50   1.0000      -0.617239       -16.7959 
  51   1.0000      -0.610016       -16.5994 
  52   1.0000      -0.594777       -16.1847 
  53   1.0000      -0.591949       -16.1077 
  54   1.0000      -0.589381       -16.0379 
  55   1.0000      -0.578572       -15.7437 
  56   1.0000      -0.572995       -15.5920 
  57   1.0000      -0.566703       -15.4208 
  58   1.0000      -0.563716       -15.3395 
  59   1.0000      -0.553865       -15.0714 
  60   1.0000      -0.545999       -14.8574 
  61   1.0000      -0.532394       -14.4872 
  62   1.0000      -0.526506       -14.3270 
  63   1.0000      -0.491594       -13.3769 
  64   1.0000      -0.485952       -13.2234 
  65   1.0000      -0.484932       -13.1957 
  66   1.0000      -0.478483       -13.0202 
  67   1.0000      -0.475149       -12.9295 
  68   1.0000      -0.469551       -12.7771 
  69   1.0000      -0.468442       -12.7470 
  70   1.0000      -0.460330       -12.5262 
  71   1.0000      -0.456587       -12.4244 
  72   1.0000      -0.448687       -12.2094 
  73   1.0000      -0.446989       -12.1632 
  74   1.0000      -0.442368       -12.0374 
  75   1.0000      -0.437859       -11.9148 
  76   1.0000      -0.433083       -11.7848 
  77   1.0000      -0.431723       -11.7478 
  78   1.0000      -0.429691       -11.6925 
  79   1.0000      -0.423604       -11.5268 
  80   1.0000      -0.421010       -11.4563 
  81   1.0000      -0.419428       -11.4132 
  82   1.0000      -0.417394       -11.3579 
  83   1.0000      -0.411882       -11.2079 
  84   1.0000      -0.410977       -11.1833 
  85   1.0000      -0.409194       -11.1347 
  86   1.0000      -0.404903       -11.0180 
  87   1.0000      -0.398228       -10.8363 
  88   1.0000      -0.392890       -10.6911 
  89   1.0000      -0.390270       -10.6198 
  90   1.0000      -0.384494       -10.4626 
  91   1.0000      -0.372901       -10.1472 
  92   1.0000      -0.370749       -10.0886 
  93   1.0000      -0.344635        -9.3780 
  94   1.0000      -0.341086        -9.2814 
  95   1.0000      -0.315243        -8.5782 
  96   1.0000      -0.271557        -7.3895 
  97   1.0000      -0.267943        -7.2911 
  98   1.0000      -0.242837        -6.6079 
  99   1.0000      -0.229115        -6.2345 
 100   1.0000      -0.219750        -5.9797 
 101   0.0000      -0.002794        -0.0760 
 102   0.0000       0.016270         0.4427 
 103   0.0000       0.022422         0.6101 
 104   0.0000       0.048543         1.3209 
 105   0.0000       0.058093         1.5808 
 106   0.0000       0.076627         2.0851 
 107   0.0000       0.093651         2.5484 
 108   0.0000       0.103353         2.8124 
 109   0.0000       0.104912         2.8548 
 110   0.0000       0.116286         3.1643 
 111   0.0000       0.132230         3.5982 

                 SPIN DOWN ORBITALS
  NO   OCC          E(Eh)            E(eV) 
   0   1.0000     -24.658173      -670.9830 
   1   1.0000     -24.657108      -670.9540 
   2   1.0000     -24.656461      -670.9364 
   3   1.0000     -24.655413      -670.9079 
   4   1.0000     -24.655377      -670.9069 
   5   1.0000     -24.655037      -670.8977 
   6   1.0000     -24.654843      -670.8924 
   7   1.0000     -24.649923      -670.7585 
   8   1.0000     -24.649364      -670.7433 
   9   1.0000     -24.649204      -670.7389 
  10   1.0000     -24.634842      -670.3481 
  11   1.0000     -24.632278      -670.2784 
  12   1.0000     -24.615386      -669.8187 
  13   1.0000     -24.615176      -669.8130 
  14   1.0000     -19.021890      -517.6119 
  15   1.0000     -18.998110      -516.9649 
  16   1.0000     -18.994661      -516.8710 
  17   1.0000     -10.387584      -282.6605 
  18   1.0000     -10.332641      -281.1655 
  19   1.0000     -10.330435      -281.1054 
  20   1.0000     -10.328918      -281.0641 
  21   1.0000     -10.307455      -280.4801 
  22   1.0000     -10.273326      -279.5514 
  23   1.0000     -10.242552      -278.7140 
  24   1.0000     -10.196045      -277.4485 
  25   1.0000      -1.326431       -36.0940 
  26   1.0000      -1.298326       -35.3292 
  27   1.0000      -1.281251       -34.8646 
  28   1.0000      -1.277140       -34.7527 
  29   1.0000      -1.265102       -34.4252 
  30   1.0000      -1.241806       -33.7913 
  31   1.0000      -1.238460       -33.7002 
  32   1.0000      -1.235389       -33.6166 
  33   1.0000      -1.231323       -33.5060 
  34   1.0000      -1.228706       -33.4348 
  35   1.0000      -1.222168       -33.2569 
  36   1.0000      -1.218072       -33.1454 
  37   1.0000      -1.204942       -32.7881 
  38   1.0000      -1.179498       -32.0958 
  39   1.0000      -1.009757       -27.4769 
  40   1.0000      -0.960353       -26.1325 
  41   1.0000      -0.930289       -25.3145 
  42   1.0000      -0.816478       -22.2175 
  43   1.0000      -0.787844       -21.4383 
  44   1.0000      -0.762655       -20.7529 
  45   1.0000      -0.723881       -19.6978 
  46   1.0000      -0.681777       -18.5521 
  47   1.0000      -0.657353       -17.8875 
  48   1.0000      -0.631603       -17.1868 
  49   1.0000      -0.618087       -16.8190 
  50   1.0000      -0.616292       -16.7701 
  51   1.0000      -0.609798       -16.5934 
  52   1.0000      -0.593066       -16.1381 
  53   1.0000      -0.590595       -16.0709 
  54   1.0000      -0.588047       -16.0016 
  55   1.0000      -0.577757       -15.7216 
  56   1.0000      -0.570890       -15.5347 
  57   1.0000      -0.564333       -15.3563 
  58   1.0000      -0.562076       -15.2949 
  59   1.0000      -0.553314       -15.0564 
  60   1.0000      -0.542336       -14.7577 
  61   1.0000      -0.529639       -14.4122 
  62   1.0000      -0.525434       -14.2978 
  63   1.0000      -0.485787       -13.2189 
  64   1.0000      -0.484931       -13.1956 
  65   1.0000      -0.479112       -13.0373 
  66   1.0000      -0.475443       -12.9375 
  67   1.0000      -0.469306       -12.7705 
  68   1.0000      -0.468100       -12.7376 
  69   1.0000      -0.467725       -12.7274 
  70   1.0000      -0.459264       -12.4972 
  71   1.0000      -0.454032       -12.3548 
  72   1.0000      -0.448177       -12.1955 
  73   1.0000      -0.443068       -12.0565 
  74   1.0000      -0.441894       -12.0245 
  75   1.0000      -0.437077       -11.8935 
  76   1.0000      -0.432043       -11.7565 
  77   1.0000      -0.429074       -11.6757 
  78   1.0000      -0.428022       -11.6471 
  79   1.0000      -0.421229       -11.4622 
  80   1.0000      -0.419789       -11.4230 
  81   1.0000      -0.418388       -11.3849 
  82   1.0000      -0.416033       -11.3208 
  83   1.0000      -0.411154       -11.1881 
  84   1.0000      -0.410274       -11.1641 
  85   1.0000      -0.408731       -11.1221 
  86   1.0000      -0.404221       -10.9994 
  87   1.0000      -0.397626       -10.8200 
  88   1.0000      -0.392079       -10.6690 
  89   1.0000      -0.388853       -10.5812 
  90   1.0000      -0.384283       -10.4569 
  91   1.0000      -0.371790       -10.1169 
  92   1.0000      -0.370050       -10.0696 
  93   1.0000      -0.343013        -9.3339 
  94   1.0000      -0.340880        -9.2758 
  95   1.0000      -0.312246        -8.4967 
  96   1.0000      -0.267971        -7.2919 
  97   1.0000      -0.242831        -6.6078 
  98   1.0000      -0.229166        -6.2359 
  99   1.0000      -0.219749        -5.9797 
 100   0.0000      -0.132185        -3.5969 
 101   0.0000       0.001485         0.0404 
 102   0.0000       0.018860         0.5132 
 103   0.0000       0.024850         0.6762 
 104   0.0000       0.053552         1.4572 
 105   0.0000       0.058608         1.5948 
 106   0.0000       0.083650         2.2762 
 107   0.0000       0.095719         2.6046 
 108   0.0000       0.105122         2.8605 
 109   0.0000       0.107933         2.9370 
 110   0.0000       0.118345         3.2203 
*Only the first 10 virtual orbitals were printed.

                    ********************************
                    * MULLIKEN POPULATION ANALYSIS *
                    ********************************

--------------------------------------------
MULLIKEN ATOMIC CHARGES AND SPIN POPULATIONS
--------------------------------------------
   0 C :    0.404277    0.000135
   1 C :    0.287604    0.000754
   2 C :    0.271647    0.002247
   3 C :    0.357509    0.005138
   4 C :    0.050954    0.849279
   5 C :    0.340582    0.008918
   6 C :    0.273092   -0.005143
   7 C :    0.186250   -0.000330
   8 F :   -0.135156    0.000001
   9 F :   -0.132766    0.000007
  10 F :   -0.135553    0.000041
  11 F :   -0.146391   -0.000043
  12 F :   -0.143963   -0.000002
  13 F :   -0.151227    0.000272
  14 F :   -0.155918    0.000093
  15 F :   -0.154830    0.000419
  16 F :   -0.149830    0.021488
  17 F :   -0.141436    0.082097
  18 F :   -0.177121   -0.000037
  19 F :   -0.160492    0.031257
  20 F :   -0.199923    0.000201
  21 F :   -0.193852    0.002146
  22 O :   -0.458088   -0.000445
  23 O :   -0.506098    0.001384
  24 O :   -0.729735   -0.000024
  25 H :    0.339238   -0.000001
  26 H :    0.361225    0.000145
Sum of atomic charges         :   -1.0000000
Sum of atomic spin populations:    1.0000000

-----------------------------------------------------
MULLIKEN REDUCED ORBITAL CHARGES AND SPIN POPULATIONS
-----------------------------------------------------
CHARGE
  0 C s       :     3.011975  s :     3.011975
      pz      :     0.689817  p :     2.172709
      px      :     0.685062
      py      :     0.797830
      dz2     :     0.067686  d :     0.369217
      dxz     :     0.082752
      dyz     :     0.078008
      dx2y2   :     0.072873
      dxy     :     0.067898
      f0      :     0.006337  f :     0.041822
      f+1     :     0.009115
      f-1     :     0.005152
      f+2     :     0.003265
      f-2     :     0.006151
      f+3     :     0.004622
      f-3     :     0.007179

  1 C s       :     3.095507  s :     3.095507
      pz      :     0.643045  p :     2.283671
      px      :     0.735203
      py      :     0.905423
      dz2     :     0.074305  d :     0.303633
      dxz     :     0.065489
      dyz     :     0.060699
      dx2y2   :     0.042652
      dxy     :     0.060488
      f0      :     0.005295  f :     0.029584
      f+1     :     0.006281
      f-1     :     0.003117
      f+2     :     0.004906
      f-2     :     0.004335
      f+3     :     0.002886
      f-3     :     0.002763

  2 C s       :     3.127601  s :     3.127601
      pz      :     0.595441  p :     2.263194
      px      :     0.734226
      py      :     0.933527
      dz2     :     0.080656  d :     0.308179
      dxz     :     0.057264
      dyz     :     0.069345
      dx2y2   :     0.037699
      dxy     :     0.063215
      f0      :     0.006599  f :     0.029378
      f+1     :     0.004423
      f-1     :     0.003524
      f+2     :     0.005152
      f-2     :     0.005282
      f+3     :     0.002223
      f-3     :     0.002176

  3 C s       :     3.082215  s :     3.082215
      pz      :     0.633720  p :     2.215390
      px      :     0.697584
      py      :     0.884086
      dz2     :     0.078914  d :     0.315447
      dxz     :     0.062168
      dyz     :     0.060037
      dx2y2   :     0.048268
      dxy     :     0.066060
      f0      :     0.005428  f :     0.029439
      f+1     :     0.006053
      f-1     :     0.003157
      f+2     :     0.004926
      f-2     :     0.004474
      f+3     :     0.002662
      f-3     :     0.002739

  4 C s       :     3.343580  s :     3.343580
      pz      :     0.636817  p :     2.436227
      px      :     0.902256
      py      :     0.897154
      dz2     :     0.032499  d :     0.152744
      dxz     :     0.036252
      dyz     :     0.046377
      dx2y2   :     0.016512
      dxy     :     0.021104
      f0      :     0.003677  f :     0.016495
      f+1     :     0.003883
      f-1     :     0.003826
      f+2     :     0.001349
      f-2     :     0.001556
      f+3     :     0.000985
      f-3     :     0.001220

  5 C s       :     3.095223  s :     3.095223
      pz      :     0.683613  p :     2.230649
      px      :     0.648072
      py      :     0.898964
      dz2     :     0.058876  d :     0.304334
      dxz     :     0.075296
      dyz     :     0.053122
      dx2y2   :     0.048280
      dxy     :     0.068760
      f0      :     0.005709  f :     0.029212
      f+1     :     0.005618
      f-1     :     0.003811
      f+2     :     0.004334
      f-2     :     0.002079
      f+3     :     0.002815
      f-3     :     0.004845

  6 C s       :     3.130557  s :     3.130557
      pz      :     0.682620  p :     2.301769
      px      :     0.631043
      py      :     0.988105
      dz2     :     0.045961  d :     0.267293
      dxz     :     0.062722
      dyz     :     0.051441
      dx2y2   :     0.049103
      dxy     :     0.058067
      f0      :     0.005746  f :     0.027288
      f+1     :     0.003466
      f-1     :     0.003543
      f+2     :     0.004364
      f-2     :     0.002481
      f+3     :     0.003147
      f-3     :     0.004540

  7 C s       :     3.051526  s :     3.051526
      pz      :     0.827716  p :     2.477487
      px      :     0.756357
      py      :     0.893414
      dz2     :     0.012807  d :     0.259667
      dxz     :     0.071993
      dyz     :     0.017196
      dx2y2   :     0.079534
      dxy     :     0.078137
      f0      :     0.002410  f :     0.025071
      f+1     :     0.002205
      f-1     :     0.001084
      f+2     :     0.002320
      f-2     :     0.002807
      f+3     :     0.006875
      f-3     :     0.007371

  8 F s       :     3.910692  s :     3.910692
      pz      :     1.796873  p :     5.207034
      px      :     1.545418
      py      :     1.864743
      dz2     :     0.002264  d :     0.016640
      dxz     :     0.005376
      dyz     :     0.001038
      dx2y2   :     0.004431
      dxy     :     0.003531
      f0      :     0.000089  f :     0.000790
      f+1     :     0.000137
      f-1     :     0.000014
      f+2     :     0.000188
      f-2     :     0.000099
      f+3     :     0.000133
      f-3     :     0.000131

  9 F s       :     3.909058  s :     3.909058
      pz      :     1.464987  p :     5.206097
      px      :     1.868639
      py      :     1.872471
      dz2     :     0.008047  d :     0.016807
      dxz     :     0.003794
      dyz     :     0.004177
      dx2y2   :     0.000330
      dxy     :     0.000459
      f0      :     0.000332  f :     0.000805
      f+1     :     0.000190
      f-1     :     0.000208
      f+2     :     0.000028
      f-2     :     0.000041
      f+3     :     0.000003
      f-3     :     0.000002

 10 F s       :     3.909491  s :     3.909491
      pz      :     1.886470  p :     5.208723
      px      :     1.732873
      py      :     1.589380
      dz2     :     0.002399  d :     0.016547
      dxz     :     0.001346
      dyz     :     0.002333
      dx2y2   :     0.003992
      dxy     :     0.006478
      f0      :     0.000067  f :     0.000791
      f+1     :     0.000066
      f-1     :     0.000109
      f+2     :     0.000016
      f-2     :     0.000104
      f+3     :     0.000247
      f-3     :     0.000181

 11 F s       :     3.915402  s :     3.915402
      pz      :     1.741121  p :     5.213766
      px      :     1.607774
      py      :     1.864871
      dz2     :     0.002393  d :     0.016483
      dxz     :     0.005748
      dyz     :     0.001770
      dx2y2   :     0.003281
      dxy     :     0.003292
      f0      :     0.000079  f :     0.000740
      f+1     :     0.000153
      f-1     :     0.000026
      f+2     :     0.000171
      f-2     :     0.000140
      f+3     :     0.000076
      f-3     :     0.000095

 12 F s       :     3.913015  s :     3.913015
      pz      :     1.536461  p :     5.213604
      px      :     1.827273
      py      :     1.849870
      dz2     :     0.005853  d :     0.016591
      dxz     :     0.004305
      dyz     :     0.004364
      dx2y2   :     0.000897
      dxy     :     0.001172
      f0      :     0.000184  f :     0.000753
      f+1     :     0.000190
      f-1     :     0.000186
      f+2     :     0.000070
      f-2     :     0.000105
      f+3     :     0.000010
      f-3     :     0.000008

 13 F s       :     3.916606  s :     3.916606
      pz      :     1.623135  p :     5.217315
      px      :     1.716528
      py      :     1.877652
      dz2     :     0.003867  d :     0.016562
      dxz     :     0.005994
      dyz     :     0.002824
      dx2y2   :     0.001820
      dxy     :     0.002057
      f0      :     0.000101  f :     0.000743
      f+1     :     0.000236
      f-1     :     0.000068
      f+2     :     0.000136
      f-2     :     0.000138
      f+3     :     0.000028
      f-3     :     0.000035

 14 F s       :     3.917082  s :     3.917082
      pz      :     1.584888  p :     5.221691
      px      :     1.741280
      py      :     1.895523
      dz2     :     0.004573  d :     0.016410
      dxz     :     0.005972
      dyz     :     0.002788
      dx2y2   :     0.001481
      dxy     :     0.001596
      f0      :     0.000126  f :     0.000735
      f+1     :     0.000267
      f-1     :     0.000070
      f+2     :     0.000124
      f-2     :     0.000109
      f+3     :     0.000018
      f-3     :     0.000022

 15 F s       :     3.915090  s :     3.915090
      pz      :     1.546815  p :     5.222480
      px      :     1.822358
      py      :     1.853307
      dz2     :     0.005581  d :     0.016515
      dxz     :     0.004416
      dyz     :     0.004226
      dx2y2   :     0.000997
      dxy     :     0.001295
      f0      :     0.000169  f :     0.000745
      f+1     :     0.000196
      f-1     :     0.000170
      f+2     :     0.000074
      f-2     :     0.000112
      f+3     :     0.000013
      f-3     :     0.000010

 16 F s       :     3.915412  s :     3.915412
      pz      :     1.725161  p :     5.217392
      px      :     1.620316
      py      :     1.871915
      dz2     :     0.002585  d :     0.016295
      dxz     :     0.005907
      dyz     :     0.001859
      dx2y2   :     0.002976
      dxy     :     0.002968
      f0      :     0.000078  f :     0.000732
      f+1     :     0.000169
      f-1     :     0.000027
      f+2     :     0.000174
      f-2     :     0.000138
      f+3     :     0.000065
      f-3     :     0.000080

 17 F s       :     3.919367  s :     3.919367
      pz      :     1.484609  p :     5.204683
      px      :     1.841843
      py      :     1.878231
      dz2     :     0.007191  d :     0.016675
      dxz     :     0.004241
      dyz     :     0.004290
      dx2y2   :     0.000433
      dxy     :     0.000519
      f0      :     0.000275  f :     0.000712
      f+1     :     0.000162
      f-1     :     0.000197
      f+2     :     0.000034
      f-2     :     0.000039
[...]
      f+1     :    -0.000002
      f-1     :    -0.000002
      f+2     :    -0.000002
      f-2     :     0.000001
      f+3     :    -0.000003
      f-3     :    -0.000000

 17 F s       :     0.002285  s :     0.002285
      pz      :    -0.010893  p :     0.092043
      px      :     0.101861
      py      :     0.001075
      dz2     :     0.000776  d :     0.010034
      dxz     :     0.008992
      dyz     :     0.000220
      dx2y2   :     0.000039
      dxy     :     0.000008
      f0      :     0.000024  f :     0.000518
      f+1     :     0.000474
      f-1     :     0.000014
      f+2     :     0.000004
      f-2     :     0.000002
      f+3     :     0.000000
      f-3     :     0.000000

 18 F s       :    -0.000051  s :    -0.000051
      pz      :    -0.000373  p :     0.002937
      px      :     0.002672
      py      :     0.000638
      dz2     :    -0.000024  d :    -0.000116
      dxz     :    -0.000036
      dyz     :    -0.000078
      dx2y2   :     0.000003
      dxy     :     0.000019
      f0      :    -0.000001  f :    -0.000009
      f+1     :    -0.000003
      f-1     :    -0.000005
      f+2     :    -0.000000
      f-2     :     0.000001
      f+3     :     0.000000
      f-3     :     0.000000

 19 F s       :     0.001970  s :     0.001970
      pz      :     0.000644  p :     0.025541
      px      :     0.005515
      py      :     0.019382
      dz2     :     0.000134  d :    -0.000009
      dxz     :    -0.000022
      dyz     :     0.000008
      dx2y2   :    -0.000070
      dxy     :    -0.000059
      f0      :    -0.000000  f :    -0.000005
      f+1     :     0.000002
      f-1     :     0.000002
      f+2     :    -0.000001
      f-2     :    -0.000001
      f+3     :    -0.000007
      f-3     :    -0.000000

 20 F s       :     0.000087  s :     0.000087
      pz      :    -0.000059  p :     0.002981
      px      :     0.002158
      py      :     0.000882
      dz2     :     0.000004  d :     0.000199
      dxz     :     0.000094
      dyz     :     0.000069
      dx2y2   :     0.000030
      dxy     :     0.000001
      f0      :    -0.000000  f :     0.000010
      f+1     :     0.000004
      f-1     :     0.000004
      f+2     :     0.000002
      f-2     :     0.000000
      f+3     :     0.000000
      f-3     :     0.000000

 21 F s       :     0.000304  s :     0.000304
      pz      :    -0.000079  p :     0.000944
      px      :     0.000633
      py      :     0.000390
      dz2     :     0.000039  d :     0.000192
      dxz     :     0.000001
      dyz     :     0.000004
      dx2y2   :     0.000103
      dxy     :     0.000046
      f0      :     0.000000  f :     0.000010
      f+1     :     0.000000
      f-1     :     0.000000
      f+2     :     0.000000
      f-2     :     0.000000
      f+3     :     0.000006
      f-3     :     0.000003

 22 O s       :     0.000085  s :     0.000085
      pz      :     0.003216  p :     0.005530
      px      :     0.000145
      py      :     0.002169
      dz2     :     0.000018  d :     0.000051
      dxz     :     0.000001
      dyz     :     0.000019
      dx2y2   :    -0.000001
      dxy     :     0.000014
      f0      :     0.000000  f :     0.000003
      f+1     :     0.000001
      f-1     :     0.000000
      f+2     :    -0.000001
      f-2     :     0.000002
      f+3     :    -0.000000
      f-3     :     0.000002

 23 O s       :     0.000013  s :     0.000013
      pz      :     0.000473  p :     0.001010
      px      :     0.000867
      py      :    -0.000331
      dz2     :    -0.000001  d :    -0.000002
      dxz     :    -0.000002
      dyz     :     0.000003
      dx2y2   :    -0.000006
      dxy     :     0.000003
      f0      :     0.000000  f :    -0.000000
      f+1     :    -0.000000
      f-1     :    -0.000000
      f+2     :     0.000000
      f-2     :     0.000000
      f+3     :     0.000000
      f-3     :    -0.000000

 24 O s       :     0.000005  s :     0.000005
      pz      :     0.000004  p :     0.000030
      px      :    -0.000003
      py      :     0.000029
      dz2     :     0.000000  d :     0.000001
      dxz     :    -0.000000
      dyz     :     0.000000
      dx2y2   :     0.000000
      dxy     :     0.000000
      f0      :     0.000000  f :     0.000000
      f+1     :    -0.000000
      f-1     :    -0.000000
      f+2     :    -0.000000
      f-2     :    -0.000000
      f+3     :     0.000000
      f-3     :     0.000000

 25 H s       :     0.000004  s :     0.000004
      pz      :    -0.000000  p :     0.000001
      px      :    -0.000000
      py      :     0.000001

 26 H s       :     0.000012  s :     0.000012
      pz      :    -0.000002  p :    -0.000006
      px      :    -0.000003
      py      :    -0.000001



                      *****************************
                      * MAYER POPULATION ANALYSIS *
                      *****************************

  NA   - Mulliken gross atomic population
  ZA   - Total nuclear charge
  QA   - Mulliken gross atomic charge
  VA   - Mayer's total valence
  BVA  - Mayer's bonded valence
  FA   - Mayer's free valence

  ATOM       NA         ZA         QA         VA         BVA        FA
  0 C      5.5897     6.0000     0.4103     4.5663     4.5663     0.0000
  1 C      5.7009     6.0000     0.2991     4.2424     4.2423     0.0000
  2 C      5.7408     6.0000     0.2592     4.1520     4.1510     0.0011
  3 C      5.6511     6.0000     0.3489     4.2959     4.2929     0.0030
  4 C      5.8893     6.0000     0.1107     3.9705     3.3888     0.5817
  5 C      5.6975     6.0000     0.3025     4.1759     4.1731     0.0028
  6 C      5.6958     6.0000     0.3042     3.9105     3.9103     0.0002
  7 C      5.7862     6.0000     0.2138     4.5378     4.5378     0.0000
  8 F      9.1367     9.0000    -0.1367     1.1877     1.1877     0.0000
  9 F      9.1339     9.0000    -0.1339     1.1909     1.1909     0.0000
 10 F      9.1342     9.0000    -0.1342     1.1897     1.1897     0.0000
 11 F      9.1486     9.0000    -0.1486     1.1771     1.1771     0.0000
 12 F      9.1466     9.0000    -0.1466     1.1773     1.1773     0.0000
 13 F      9.1598     9.0000    -0.1598     1.1674     1.1674     0.0000
 14 F      9.1592     9.0000    -0.1592     1.1711     1.1711     0.0000
 15 F      9.1533     9.0000    -0.1533     1.1655     1.1654     0.0001
 16 F      9.1601     9.0000    -0.1601     1.1584     1.1583     0.0001
 17 F      9.1360     9.0000    -0.1360     1.2074     1.1966     0.0108
 18 F      9.1784     9.0000    -0.1784     1.1319     1.1319     0.0000
 19 F      9.1735     9.0000    -0.1735     1.1305     1.1297     0.0007
 20 F      9.1977     9.0000    -0.1977     1.0913     1.0913     0.0000
 21 F      9.1971     9.0000    -0.1971     1.1040     1.1040     0.0000
 22 O      8.4585     8.0000    -0.4585     2.0230     2.0229     0.0000
 23 O      8.5225     8.0000    -0.5225     1.9017     1.9017     0.0000
 24 O      8.7404     8.0000    -0.7404     1.7206     1.7206     0.0000
 25 H      0.6691     1.0000     0.3309     0.9055     0.9055     0.0000
 26 H      0.6428     1.0000     0.3572     0.9385     0.9385     0.0000

  Mayer bond orders larger than 0.100000
B(  0-C ,  1-C ) :   0.9677 B(  0-C ,  8-F ) :   1.1594 B(  0-C ,  9-F ) :   1.1697 
B(  0-C , 10-F ) :   1.1605 B(  1-C ,  2-C ) :   0.9302 B(  1-C , 11-F ) :   1.1027 
B(  1-C , 12-F ) :   1.1100 B(  2-C ,  3-C ) :   0.9323 B(  2-C , 13-F ) :   1.0756 
B(  2-C , 14-F ) :   1.0853 B(  3-C ,  4-C ) :   1.0389 B(  3-C , 15-F ) :   1.1091 
B(  3-C , 16-F ) :   1.0771 B(  4-C ,  5-C ) :   1.0370 B(  4-C , 17-F ) :   1.1309 
B(  5-C ,  6-C ) :   0.9164 B(  5-C , 18-F ) :   1.0594 B(  5-C , 19-F ) :   1.0728 
B(  6-C ,  7-C ) :   0.8708 B(  6-C , 20-F ) :   1.0372 B(  6-C , 21-F ) :   1.0498 
B(  7-C , 22-O ) :   1.9091 B(  7-C , 23-O ) :   1.6775 B( 23-O , 26-H ) :   0.1120 
B( 24-O , 25-H ) :   0.8990 B( 24-O , 26-H ) :   0.8131 

-------
TIMINGS
-------

Total SCF time: 0 days 0 hours 0 min 48 sec 

Total time                  ....      48.983 sec
Sum of individual times     ....      48.459 sec  ( 98.9%)

SCF preparation             ....       1.355 sec  (  2.8%)
Fock matrix formation       ....      38.356 sec  ( 78.3%)
  Startup                   ....       0.271 sec  (  0.7% of F)
  Split-RI-J                ....       2.940 sec  (  7.7% of F)
  Chain of spheres X        ....      22.665 sec  ( 59.1% of F)
  XC integration            ....       9.169 sec  ( 23.9% of F)
    Basis function eval.    ....       0.628 sec  (  6.9% of XC)
    Density eval.           ....       2.841 sec  ( 31.0% of XC)
    XC-Functional eval.     ....       0.127 sec  (  1.4% of XC)
    XC-Potential eval.      ....       2.300 sec  ( 25.1% of XC)
  CPCM terms                ....       2.669 sec  (  7.0% of F)
Diagonalization             ....       0.000 sec  (  0.0%)
Density matrix formation    ....       0.689 sec  (  1.4%)
Total Energy calculation    ....       0.433 sec  (  0.9%)
Population analysis         ....       0.439 sec  (  0.9%)
Orbital Transformation      ....       1.273 sec  (  2.6%)
Orbital Orthonormalization  ....       0.000 sec  (  0.0%)
DIIS solution               ....       3.963 sec  (  8.1%)
SOSCF solution              ....       1.951 sec  (  4.0%)
Finished LeanSCF after  49.4 sec

Maximum memory used throughout the entire LEANSCF-calculation: 115.8 MB


-------------------------------------------------------------------------------
                          DFT DISPERSION CORRECTION                            
                                                                               
                              DFTD3 V3.1  Rev 1                                
                          USING Becke-Johnson damping                          
-------------------------------------------------------------------------------
The TPSSH functional is recognized
Active option DFTDOPT                   ...         4   

molecular C6(AA) [au] = 7396.039888 


            DFT-D V3
 parameters
 s6 scaling factor         :     1.0000 
 a1 scaling factor         :     0.4529 
 s8 scaling factor         :     2.2382 
 a2 scaling factor         :     4.6550 
 ad hoc parameters k1-k3   :    16.0000     1.3333    -4.0000 

 Edisp/kcal,au: -19.912110035058  -0.031731963793 
 E6   /kcal   :  -9.708077766 
 E8   /kcal   : -10.204032269 
 % E8         :  51.245358985 

-------------------------   ----------------
Dispersion correction           -0.031731964
-------------------------   ----------------


-------------------------   --------------------
FINAL SINGLE POINT ENERGY     -1930.429993429127
-------------------------   --------------------

                                *** OPTIMIZATION RUN DONE ***



           ************************************************************
           *        Program running with 20 parallel MPI-processes    *
           *              working on a common directory               *
           ************************************************************

------------------------------------------------------------------------------
                              ORCA PROPERTY CALCULATIONS
------------------------------------------------------------------------------

GBWName                                 ... rf_mecn_1H2O_opt_TP_con_002.gbw
Number of atoms                         ...     27
Number of basis functions               ...    787
Max core memory                         ...   8000 MB

Electric properties:
Dipole moment                           ... YES
Quadrupole moment                       ...  NO
Static polarizability (Dipole/Dipole)   ...  NO
Static polarizability (Dipole/Quad.)    ...  NO
Static polarizability (Quad./Quad.)     ...  NO
Static polarizability (Velocity)        ...  NO

Atomic electric properties:
Dipole moment                           ...  NO
Quadrupole moment                       ...  NO
Static polarizability                   ...  NO

Choice of electric origin               ... Center of mass
Position of electric origin             ...    12.146072    44.845767     3.388263

General magnetic properties:
Magnetizability                         ...  NO

EPR properties:
g-Tensor (aka g-matrix)                 ...  NO
Zero-Field splitting spin-orbit         ...  NO
Zero-field splitting spin-spin          ...  NO
Hyperfine couplings                     ...  NO (   0 nuclei)
Quadrupole couplings                    ...  NO (   0 nuclei)
Contact density                         ...  NO (   0 nuclei)

NMR properties:
Chemical shifts                         ...  NO (   0 nuclei)
Spin-rotation constants                 ...  NO (   0 nuclei)
Spin-spin couplings                     ...  NO (   0 nuclei,    0 pairs)

Choice of magnetic origin               ... GIAO
Position of magnetic origin             ...     0.000000     0.000000     0.000000

Properties with geometric perturbations:
SCF Hessian                             ...  NO
IR spectrum                             ...  NO
VCD spectrum                            ...  NO
X-ray spectroscopy properties:
SCF XES/XAS/RIXS spectra                ...  NO


-------------
DIPOLE MOMENT
-------------

Method             : SCF
Type of density    : Electron Density
Multiplicity       :   2
Irrep              :   0
Energy             : -1930.3982614653336896 Eh
Relativity type    : 
Basis              : AO
                                X                 Y                 Z
Electronic contribution:      4.026513129      30.440325345       3.717957066
Nuclear contribution   :     -3.906410684     -23.158839512      -3.877490782
                        -----------------------------------------
Total Dipole Moment    :      0.120102444       7.281485833      -0.159533716
                        -----------------------------------------
Magnitude (a.u.)       :      7.284223469
Magnitude (Debye)      :     18.515024644



--------------------
Rotational spectrum 
--------------------
 
Rotational constants in cm-1:             0.016045             0.003921             0.003657 
Rotational constants in MHz :           481.015679           117.552921           109.627870 

Dipole components along the rotational axes: 
x,y,z [a.u.] :     6.974924    -1.876568    -0.942779 
x,y,z [Debye]:    17.728849    -4.769857    -2.396353 

 

Dipole moment calculation done in   0.1 sec 

Maximum memory used throughout the entire PROP-calculation: 59.8 MB

--------------------------------
SUGGESTED CITATIONS FOR THIS RUN
--------------------------------

Below you find a list of papers that are relevant to this ORCA run
We neither can nor want to force you to cite these papers, but we appreciate if you do
You receive ORCA, which is the product of decades of hard work by many enthusiastic individuals, for free
The only thing we kindly ask in return is that you cite our papers,
We deeply appreciate it, if you show your appreciation for ORCA by not just citing the generic ORCA reference.

Please note that relegating all ORCA citations to the supporting information does *not* help us.
SI sections are not indexed - citations you put there will not count into any citation statistics
But we need these citations in order to attract the funding resources that allow us to do what we are doing

Therefore, if you are a happy ORCA user, please consider citing a few of the papers listed below in the main body of your paper

In addition to the list printed below, the program has created the file rf_mecn_1H2O_opt_TP_con_002.bibtex that contains the list in bibtex format
You can import this file easily into all common literature databanks and citation aid programs


List of essential papers. We consider these as the minimum necessary citations

  1. Neese,F.
     Software update: the ORCA program system, version 5.0
     WIRES Comput. Molec. Sci., 2022 12(1)e1606
     doi.org/10.1002/wcms.1606

List of papers to cite with high priority. The work reported in these papers was absolutely
necessary for this run to complete.
Our perspective: the developers of density functionals and basis sets usually get cited in chemistry papers
Good! But without the algorithms to do something with them, the functionals or basis sets would not do anything.
Hence, in our opinion, the algorithm design and method developments papers are equally worthy of getting cited

  1. Neese,F.
     An improvement of the resolution of the identity approximation for the formation of the Coulomb matrix
     J. Comp. Chem., 2003 24(14)1740-1747
     doi.org/10.1002/jcc.10318
  2. Neese,F.; Wennmohs,F.; Hansen,A.; Becker,U.
     Efficient, approximate and parallel Hartree-Fock and hybrid DFT calculations. A 'chain-of-spheres' algorithm for the Hartree-Fock exchange
     Chem. Phys., 2009 356(1-3)98-109
     doi.org/10.1016/j.chemphys.2008.10.036
  3. Garcia-Rates,M.; Neese,F.
     Effect of the Solute Cavity on the Solvation Energy and its Derivatives within the Framework of the Gaussian Charge Scheme
     J. Comput. Chem., 2020 41 922-939
     doi.org/10.1002/jcc.26139
  4. Helmich-Paris,B.; de Souza,B.; Neese,F.; Izsák,R.
     An improved chain of spheres for exchange algorithm
     J. Chem. Phys., 2021 155 104109
     doi.org/doi: 10.1063/5.0058766.
  5. Neese,F.
     The SHARK Integral Generation and Digestion System
     J. Comp. Chem., 2022  1-16
     doi.org/10.1002/jcc.26942
  6. Grimme,S.; Antony,J.; Ehrlich,S.; Krieg,H.
     A consistent and accurate ab initio parametrization of density functional dispersion correction (DFT-D) for the 94 elements H-Pu
     J. Chem. Phys., 2010 132 154104
     doi.org/10.1063/1.3382344
  7. Grimme,S.; Ehrlich,S.; Goerigk,L.
     Effect of the damping function in dispersion corrected density functional theory
     J. Comput. Chem., 2011 32(7)1456-1465
     doi.org/10.1002/jcc.21759

List of suggested additional citations. These are papers that are important in the 'surrounding' of 
of this run, or papers that preceded the highly important papers. If you like your results we are grateful for a citation.

  1. Izsak,R.; Neese,F.
     An overlap fitted chain of spheres exchange method
     J. Chem. Phys., 2011 135 144105
     doi.org/10.1063/1.3646921
  2. Izsak,R.; Hansen,A.; Neese,F.
     The resolution of identity and chain of spheres approximations for the LPNO-CCSD singles Fock term
     Molec. Phys., 2012 110 2413-2417
     doi.org/10.1080/00268976.2012.687466
  3. Neese,F.
     The ORCA program system
     WIRES Comput. Molec. Sci., 2012 2(1)73-78
     doi.org/10.1002/wcms.81
  4. Izsak,R.; Neese,F.; Klopper,W.
     Robust fitting techniques in the chain of spheres approximation to the Fock exchange: The role of the complementary space
     J. Chem. Phys., 2013 139 
     doi.org/10.1063/1.4819264
  5. Neese,F.
     Software update: the ORCA program system, version 4.0
     WIRES Comput. Molec. Sci., 2018 8(1)1-6
     doi.org/10.1002/wcms.1327
  6. Neese,F.; Wennmohs,F.; Becker,U.; Riplinger,C.
     The ORCA quantum chemistry program package
     J. Chem. Phys., 2020 152 Art. No. L224108
     doi.org/10.1063/5.0004608

List of optional additional citations

  1. Neese,F.
     Approximate second-order SCF convergence for spin unrestricted wavefunctions
     Chem. Phys. Lett., 2000 325(1-3)93-98
     doi.org/10.1016/s0009-2614(00)00662-x

Timings for individual modules:

Sum of individual times          ...     2518.623 sec (=  41.977 min)
Startup calculation              ...      107.734 sec (=   1.796 min)   4.3 %
SCF iterations                   ...     1846.049 sec (=  30.767 min)  73.3 %
Property calculations            ...        1.041 sec (=   0.017 min)   0.0 %
SCF Gradient evaluation          ...      563.266 sec (=   9.388 min)  22.4 %
Geometry relaxation              ...        0.532 sec (=   0.009 min)   0.0 %
                             ****ORCA TERMINATED NORMALLY****
TOTAL RUN TIME: 0 days 0 hours 42 minutes 16 seconds 815 msec
