
                                 *****************
                                 * O   R   C   A *
                                 *****************

                                            #,                                       
                                            ###                                      
                                            ####                                     
                                            #####                                    
                                            ######                                   
                                           ########,                                 
                                     ,,################,,,,,                         
                               ,,#################################,,                 
                          ,,##########################################,,             
                       ,#########################################, ''#####,          
                    ,#############################################,,   '####,        
                  ,##################################################,,,,####,       
                ,###########''''           ''''###############################       
              ,#####''   ,,,,##########,,,,          '''####'''          '####       
            ,##' ,,,,###########################,,,                        '##       
           ' ,,###''''                  '''############,,,                           
         ,,##''                                '''############,,,,        ,,,,,,###''
      ,#''                                            '''#######################'''  
     '                                                          ''''####''''         
             ,#######,   #######,   ,#######,      ##                                
            ,#'     '#,  ##    ##  ,#'     '#,    #''#        ,####,   ,####,        
            ##       ##  ##   ,#'  ##            #'  '#       #'       #'  '#        
            ##       ##  #######   ##           ,######,      #####,   #    #        
            '#,     ,#'  ##    ##  '#,     ,#' ,#      #,     #,   #   #,  ,#        
             '#######'   ##     ##  '#######'  #'      '#     '####' # '####'        



                #########################################################
                #                        -***-                          #
                #          Department of theory and spectroscopy        #
                #                                                       #
                #                      Frank Neese                      #
                #                                                       #
                #     Directorship, Architecture, Infrastructure        #
                #                    SHARK, DRIVERS                     #
                #        Core code/Algorithms in most modules           #
                #                                                       #
                #        Max Planck Institute fuer Kohlenforschung      #
                #                Kaiser Wilhelm Platz 1                 #
                #                 D-45470 Muelheim/Ruhr                 #
                #                      Germany                          #
                #                                                       #
                #                  All rights reserved                  #
                #                        -***-                          #
                #########################################################


                         Program Version 6.0.1  -  RELEASE   -


 With contributions from (in alphabetic order):
[Max-Planck-Institut fuer Kohlenforschung]                               
  Daniel Aravena         : Magnetic Suceptibility                        
  Michael Atanasov       : Ab Initio Ligand Field Theory (pilot matlab implementation)
  Alexander A. Auer      : GIAO ZORA, VPT2 properties, NMR spectrum      
  Ute Becker             : All parallelization in ORCA, NUMFREQ, NUMCALC 
  Giovanni Bistoni       : ED, misc. LED, open-shell LED, HFLD           
  Martin Brehm           : Molecular dynamics                            
  Dmytro Bykov           : pre 5.0 version of the SCF Hessian            
  Marcos Casanova-Páez   : Triplet and SCS-CIS(D). UHF-(DLPNO)-IP/EA/STEOM-CCSD. UHF-CVS-IP/STEOM-CCSD   
  Vijay G. Chilkuri      : MRCI spin determinant printing, contributions to CSF-ICE 
  Pauline Colinet        : FMM embedding                                 
  Dipayan Datta          : RHF DLPNO-CCSD density                        
  Achintya Kumar Dutta   : EOM-CC, STEOM-CC                              
  Nicolas Foglia         : Exact transition moments, OPA infrastructure, MCD improvements    
  Dmitry Ganyushin       : Spin-Orbit,Spin-Spin,Magnetic field MRCI      
  Miquel Garcia-Rates    : C-PCM and meta-GGA Hessian, CCSD/C-PCM, Gaussian charge scheme 
  Tiago L. C. Gouveia    : GS-ROHF, GS-ROCIS                             
  Yang Guo               : DLPNO-NEVPT2, F12-NEVPT2, CIM, IAO-localization        
  Andreas Hansen         : Spin unrestricted coupled pair/coupled cluster methods 
  Ingolf Harden          : AUTO-CI MPn and infrastructure                
  Benjamin Helmich-Paris : MC-RPA, TRAH-(SCF,CASSCF), AVAS, COSX integrals, SCF dyn. polar. 
  Lee Huntington         : MR-EOM, pCC                                   
  Robert Izsak           : Overlap fitted RIJCOSX, COSX-SCS-MP3, EOM     
  Riya Kayal             : Wick's Theorem for AUTO-CI, AUTO-CI UHF-CCSDT 
  Emily Kempfer          : AUTO-CI, RHF CISDT and CCSDT                  
  Christian Kollmar      : KDIIS, OOCD, Brueckner-CCSD(T), CCSD density, CASPT2, CASPT2-K, improved NEVPT2 
  Axel Koslowski         : Symmetry handling                             
  Simone Kossmann        : meta-GGA functionals, TD-DFT gradient, OOMP2, (MP2 Hessian; deprecated post 5.0) 
  Lucas Lang             : DCDCAS                                        
  Marvin Lechner         : AUTO-CI (C++ implementation), FIC-MRCC        
  Spencer Leger          : CASSCF response                               
  Dagmar Lenk            : GEPOL surface, SMD, ORCA-2-JSON               
  Dimitrios Liakos       : Extrapolation schemes; Compound Job, initial MDCI parallelization 
  Dimitrios Manganas     : Further ROCIS development; embedding schemes. LFT, Crystal Embedding 
  Dimitrios Pantazis     : SARC Basis sets                               
  Anastasios Papadopoulos: AUTO-CI, single reference methods and gradients 
  Taras Petrenko         : pre 6.0 DFT Hessian and TD-DFT gradient, (ASA, deprecated), ECA, 1-Electron XAS/XES, NRVS 
  Peter Pinski           : DLPNO-MP2, DLPNO-MP2 Gradient                 
  Christoph Reimann      : Effective Core Potentials                     
  Marius Retegan         : Local ZFS, SOC                                
  Christoph Riplinger    : Optimizer, TS searches, QM/MM, DLPNO-CCSD(T), (RO)-DLPNO pert. Triples 
  Michael Roemelt        : Original ROCIS implementation                 
  Masaaki Saitow         : Open-shell DLPNO-CCSD energy and density      
  Barbara Sandhoefer     : DKH picture change effects                    
  Kantharuban Sivalingam : CASSCF convergence/infrastructure, NEVPT2 and variants, FIC-MRCI 
  Bernardo de Souza      : ESD, SOC TD-DFT                               
  Georgi L. Stoychev     : AutoAux, RI-MP2 NMR, DLPNO-MP2 response, X2C  
  Van Anh Tran           : RI-MP2 g-tensors                              
  Willem Van den Heuvel  : Paramagnetic NMR                              
  Zikuan Wang            : NOTCH, Electric field optimization            
  Frank Wennmohs         : Technical directorship and infrastructure     
  Hang Xu                : AUTO-CI-Response properties                   
                                                                         
[FACCTs GmbH]                                                            
  Markus Bursch, Miquel Garcia-Rates, Christoph Riplinger, Bernardo de Souza, Georgi L. Stoychev 
                                                                 
  APM, Basis sets (HGBS, AHGBS, def-TZVP (Ac-Lr), def2-XVPD (La-Lu)), CI-OPT, improved COSX, DLPNO-Multilevel,           
  DOCKER, DRACO, updates on ESD, GOAT, IRC, LR-CPCM, MBIS, meta-GGA TD-DFT gradient, ML-optimized integration grids, 
  MM, NACMEs, nearIR, NEB, NEB-TS, NL-DFT gradient (VV10), 2- and 3-layer-ONIOM, interface openCOSMO-RS, QMMM,   
  Crystal-QMMM, SF, symmetry and pop. for TD-DFT, r2SCAN hybrids, SOLVATOR                                   
                                                                         
[Other institutions]                                                     
  V. Asgeirsson          : NEB                                           
  Christoph Bannwarth    : sTDA-DFT, sTD-DFT, PBEh-3c, B97-3c, D3        
  Sebastian Ehlert       : rSCAN, r2SCAN, r2SCAN-3c, D4, dhf basis sets  
  Marvin Friede          : D4 for Fr, Ra, Ac-Lr                          
  Lars Goerigk           : TD-DFT with DH, B97 family of functionals     
  Stefan Grimme          : VdW corrections, initial TS optimization, DFT functionals, gCP, sTDA/sTD-DF 
  Waldemar Hujo          : DFT-NL                                        
  H. Jonsson             : NEB                                           
  Holger Kruse           : gCP                                           
  Marcel Mueller         : wB97X-3c, vDZP basis set                      
  Hagen Neugebauer       : wr2SCAN                                       
  Tobias Risthaus        : range-separated hybrid DFT                    
  Lukas Wittmann         : regularized MP2, r2SCAN double-hybrids, wr2SCAN        
                                                                         
We gratefully acknowledge several colleagues who have allowed us to      
interface, adapt or use parts of their codes:                            
  Ed Valeev, F. Pavosevic, A. Kumar             : LibInt (2-el integral package), F12 methods 
  Garnet Chan, S. Sharma, J. Yang, R. Olivares  : DMRG                   
  Ulf Ekstrom                                   : XCFun DFT Library      
  Mihaly Kallay                                 : mrcc  (arbitrary order and MRCC methods)
  Frank Weinhold                                : gennbo (NPA and NBO analysis)           
  Simon Mueller                                 : openCOSMO-RS                            
  Christopher J. Cramer and Donald G. Truhlar   : smd solvation model                     
  S Lehtola, MJT Oliveira, MAL Marques          : LibXC Library                           
  Liviu Ungur et al                             : ANISO software                          


 Your calculation uses the libint2 library for the computation of 2-el integrals
 For citations please refer to: http://libint.valeyev.net

 Your ORCA version has been built with support for libXC version: 6.2.2
 For citations please refer to: https://libxc.gitlab.io

 This ORCA versions uses:
   CBLAS   interface :  Fast vector & matrix operations
   LAPACKE interface :  Fast linear algebra routines
   SCALAPACK package :  Parallel linear algebra routines
   Shared memory     :  Shared parallel matrices
   BLAS/LAPACK       :  OpenBLAS 0.3.27  USE64BITINT DYNAMIC_ARCH NO_AFFINITY SkylakeX SINGLE_THREADED
        Core in use  :  SkylakeX
   Copyright (c) 2011-2014, The OpenBLAS Project


NOTE: MaxCore=8000 MB was set to SCF,MP2,MDCI,CIPSI,MRCI and CIS
      => If you want to overwrite this, your respective input block should be placed after the MaxCore statement
Your calculation utilizes the atom-pairwise dispersion correction
with the Becke-Johnson damping scheme (D3BJ)


Your calculation utilizes the SMD solvation module
Please cite in your paper:
A.V. Marenich, C.J. Cramer, D.G. Truhlar J. Phys. Chem. B, 113, (2009), 6378 

Warning: RI is on but no J-basis has been assigned. Assigning Def2/J (nothing to worry about!)
================================================================================

----- Orbital basis set information -----
Your calculation utilizes the basis: def2-TZVP
   F. Weigend and R. Ahlrichs, Phys. Chem. Chem. Phys. 7, 3297 (2005).

----- AuxJ basis set information -----
Your calculation utilizes the auxiliary basis: def2/J
   F. Weigend, Phys. Chem. Chem. Phys. 8, 1057 (2006).

================================================================================
                                        WARNINGS
                       Please study these warnings very carefully!
================================================================================



WARNING: SCAN, rSCAN, or r2SCAN functional requested.
  ===> : libXC variant has now been activated.



WARNING: your system is open-shell and RHF/RKS was chosen
  ===> : WILL SWITCH to UHF/UKS


WARNING: Geometry Optimization
  ===> : Switching off AutoStart
         For restart on a previous wavefunction, please use MOREAD

================================================================================
                                       INPUT FILE
================================================================================
NAME = rf_mecn_opt_r2s_C6_D_B.inp
|  1> !r2scanh def2-TZVP opt d3 TightSCF SlowConv defgrid2
|  2> 
|  3> %pal
|  4> nprocs 20
|  5> end
|  6>  
|  7> %scf
|  8> MaxIter 1500
|  9> end
| 10>  
| 11> %maxcore 8000 #verificar
| 12>  
| 13> !CPCM
| 14> %cpcm smd true
| 15> SMDsolvent "ACETONITRILE"
| 16> end
| 17>  
| 18> * xyz -1 2
| 19> 6        4.790427000     -0.033865800     -0.529943200
| 20> 8        5.449345000     -1.206924000     -0.894594600
| 21> 8        4.978223000      1.323071000     -0.737377200
| 22> 6        3.506687600     -0.338741600      0.376153800
| 23> 6        2.222300000      0.400524800     -0.110681600
| 24> 6        0.900506800     -0.386389800      0.175703000
| 25> 6       -0.395261200      0.487294000      0.065549000
| 26> 6       -1.705693600     -0.364773800     -0.068373600
| 27> 6       -3.005136200      0.445344800      0.258164000
| 28> 6       -4.319880200     -0.214526000     -0.270540800
| 29> 9        3.211587400     -1.692050400      0.412735200
| 30> 9        3.741061800      0.055285800      1.689948800
| 31> 9        2.125696800      1.616867800      0.483236600
| 32> 9        2.314152400      0.589704000     -1.455769200
| 33> 9        0.794028800     -1.413561400     -0.700839000
| 34> 9        0.958350600     -0.884509000      1.435093400
| 35> 9       -0.498373400      1.260265600      1.173340200
| 36> 9       -0.299075000      1.289512600     -1.020910800
| 37> 9       -1.641790400     -1.418189000      0.779523800
| 38> 9       -2.918792200      1.679227200     -0.295171200
| 39> 9       -3.119771000      0.573779800      1.598579800
| 40> 9       -4.383115600     -1.504377600      0.089127600
| 41> 9       -5.365669800      0.430528600      0.260394200
| 42> 9       -4.396020400     -0.128550600     -1.602941800
| 43> *
| 44> 
| 45>                          ****END OF INPUT****
================================================================================

                       *****************************
                       * Geometry Optimization Run *
                       *****************************

Geometry optimization settings:
Update method            Update   .... BFGS
Choice of coordinates    CoordSys .... (2022) Redundant Internals
Initial Hessian          InHess   .... Almloef's Model
Max. no of cycles        MaxIter  .... 72

Convergence Tolerances:
Energy Change            TolE     ....  5.0000e-06 Eh
Max. Gradient            TolMAXG  ....  3.0000e-04 Eh/bohr
RMS Gradient             TolRMSG  ....  1.0000e-04 Eh/bohr
Max. Displacement        TolMAXD  ....  4.0000e-03 bohr
RMS Displacement         TolRMSD  ....  2.0000e-03 bohr
Strict Convergence                .... False

------------------------------------------------------------------------------
                        ORCA OPTIMIZATION COORDINATE SETUP
------------------------------------------------------------------------------

The optimization will be done in redundant internal coordinates (2022)
Making redundant internal coordinates   ...  (2022 redundants) done
Evaluating the initial hessian          ...  (Almloef) done
Evaluating the coordinates              ...  done
Calculating the B-matrix                .... done
Calculating the G-matrix                .... done
Diagonalizing the G-matrix              .... done
Small eigenvalue found = 5.485e-03
Small eigenvalue found = 1.504e-02
The first mode is                       ....   38
The number of degrees of freedom        ....   66

    -----------------------------------------------------------------
                    Redundant Internal Coordinates


    -----------------------------------------------------------------
         Definition                    Initial Value    Approx d2E/dq
    -----------------------------------------------------------------
      1. B(O   1,C   0)                  1.3940         0.551454   
      2. B(O   2,C   0)                  1.3855         0.568952   
      3. B(C   3,C   0)                  1.6006         0.288221   
      4. B(C   4,C   3)                  1.5599         0.334759   
      5. B(C   5,C   4)                  1.5647         0.328824   
      6. B(C   6,C   5)                  1.5667         0.326486   
      7. B(C   7,C   6)                  1.5688         0.323927   
      8. B(C   8,C   7)                  1.5657         0.327637   
      9. B(C   9,C   8)                  1.5632         0.330714   
     10. B(F  10,C   3)                  1.3856         0.528443   
     11. B(F  11,C   3)                  1.3915         0.517117   
     12. B(F  12,C   4)                  1.3570         0.586881   
     13. B(F  13,C   4)                  1.3614         0.577499   
     14. B(F  14,C   5)                  1.3545         0.592326   
     15. B(F  15,C   5)                  1.3556         0.590092   
     16. B(F  16,C   6)                  1.3547         0.591865   
     17. B(F  17,C   6)                  1.3540         0.593567   
     18. B(F  18,C   7)                  1.3538         0.593973   
     19. B(F  19,C   8)                  1.3550         0.591238   
     20. B(F  20,C   8)                  1.3514         0.599114   
     21. B(F  21,C   9)                  1.3406         0.623533   
     22. B(F  22,C   9)                  1.3385         0.628179   
     23. B(F  23,C   9)                  1.3373         0.630929   
     24. A(O   1,C   0,C   3)          111.5249         0.369222   
     25. A(O   2,C   0,C   3)          112.3347         0.371210   
     26. A(O   1,C   0,O   2)          136.1318         0.413163   
     27. A(C   4,C   3,F  10)          107.2033         0.374492   
     28. A(C   4,C   3,F  11)          107.4072         0.373095   
     29. A(F  10,C   3,F  11)          106.7094         0.399684   
     30. A(C   0,C   3,C   4)          113.1687         0.341363   
     31. A(C   0,C   3,F  11)          110.2099         0.363632   
     32. A(C   0,C   3,F  10)          111.8265         0.364982   
     33. A(C   3,C   4,F  12)          110.2926         0.381351   
     34. A(F  12,C   4,F  13)          108.2194         0.415201   
     35. A(C   3,C   4,C   5)          113.5839         0.349005   
     36. A(C   3,C   4,F  13)          108.5818         0.380286   
     37. A(C   5,C   4,F  13)          107.9208         0.379109   
     38. A(C   5,C   4,F  12)          108.0911         0.380169   
     39. A(F  14,C   5,F  15)          109.0206         0.417483   
     40. A(C   4,C   5,C   6)          113.9128         0.347536   
     41. A(C   6,C   5,F  15)          107.7906         0.380059   
     42. A(C   4,C   5,F  15)          108.5900         0.380529   
     43. A(C   4,C   5,F  14)          109.2282         0.380779   
     44. A(C   6,C   5,F  14)          108.2026         0.380308   
     45. A(C   5,C   6,C   7)          113.2023         0.346660   
     46. A(F  16,C   6,F  17)          108.8752         0.417862   
     47. A(C   7,C   6,F  17)          108.2186         0.379927   
     48. A(C   5,C   6,F  17)          109.1523         0.380446   
     49. A(C   7,C   6,F  16)          108.4284         0.379738   
     50. A(C   5,C   6,F  16)          108.8835         0.380256   
     51. A(C   8,C   7,F  18)          108.1296         0.380723   
     52. A(C   6,C   7,F  18)          109.2524         0.379972   
     53. A(C   6,C   7,C   8)          113.2298         0.346865   
     54. A(F  19,C   8,F  20)          108.8987         0.418476   
     55. A(C   7,C   8,C   9)          114.1471         0.348078   
     56. A(C   9,C   8,F  20)          107.7127         0.381912   
     57. A(C   7,C   8,F  20)          109.0521         0.381293   
     58. A(C   9,C   8,F  19)          107.4499         0.381036   
     59. A(C   7,C   8,F  19)          109.4572         0.380419   
     60. A(F  22,C   9,F  23)          108.6464         0.426961   
     61. A(F  21,C   9,F  23)          109.0552         0.426394   
     62. A(C   8,C   9,F  23)          110.9604         0.385362   
     63. A(F  21,C   9,F  22)          108.6877         0.426061   
     64. A(C   8,C   9,F  22)          108.6349         0.385069   
     65. A(C   8,C   9,F  21)          110.7995         0.384572   
     66. D(C   4,C   3,C   0,O   1)   -131.0839         0.006601   
     67. D(C   4,C   3,C   0,O   2)     49.8076         0.006601   
     68. D(F  10,C   3,C   0,O   2)    171.0025         0.006601   
     69. D(F  11,C   3,C   0,O   1)    108.6317         0.006601   
     70. D(F  10,C   3,C   0,O   1)     -9.8890         0.006601   
     71. D(C   5,C   4,C   3,F  10)     24.8733         0.009100   
     72. D(C   5,C   4,C   3,C   0)    148.6429         0.009100   
     73. D(F  12,C   4,C   3,F  11)     32.0233         0.009100   
     74. D(F  12,C   4,C   3,F  10)    146.3851         0.009100   
     75. D(F  12,C   4,C   3,C   0)    -89.8453         0.009100   
     76. D(C   5,C   4,C   3,F  11)    -89.4885         0.009100   
     77. D(C   6,C   5,C   4,F  13)    -75.6292         0.008811   
     78. D(C   6,C   5,C   4,F  12)     41.2001         0.008811   
     79. D(F  14,C   5,C   4,C   3)    -74.9661         0.008811   
     80. D(C   6,C   5,C   4,C   3)    163.9326         0.008811   
     81. D(F  14,C   5,C   4,F  13)     45.4721         0.008811   
     82. D(F  14,C   5,C   4,F  12)    162.3014         0.008811   
     83. D(F  16,C   6,C   5,F  14)    161.9826         0.008700   
     84. D(F  16,C   6,C   5,C   4)    -76.3465         0.008700   
     85. D(C   7,C   6,C   5,F  15)    -76.4529         0.008700   
     86. D(C   7,C   6,C   5,F  14)     41.3107         0.008700   
     87. D(F  16,C   6,C   5,F  15)     44.2190         0.008700   
     88. D(C   7,C   6,C   5,C   4)    162.9815         0.008700   
     89. D(F  18,C   7,C   6,F  16)    -79.1358         0.008059   
     90. D(F  18,C   7,C   6,C   5)     41.7939         0.008059   
     91. D(C   8,C   7,C   6,F  17)    -76.5134         0.008059   
     92. D(C   8,C   7,C   6,F  16)     41.4341         0.008059   
     93. D(C   8,C   7,C   6,C   5)    162.3638         0.008059   
     94. D(F  19,C   8,C   7,C   6)     41.9584         0.008223   
     95. D(C   9,C   8,C   7,F  18)    -76.3785         0.008223   
     96. D(C   9,C   8,C   7,C   6)    162.4166         0.008223   
     97. D(F  20,C   8,C   7,C   6)    -77.0818         0.008223   
     98. D(F  19,C   8,C   7,F  18)    163.1633         0.008223   
     99. D(F  22,C   9,C   8,F  19)    -69.0724         0.008903   
    100. D(F  22,C   9,C   8,C   7)    169.3552         0.008903   
    101. D(F  21,C   9,C   8,F  20)    -71.2185         0.008903   
    102. D(F  21,C   9,C   8,F  19)    171.5999         0.008903   
    103. D(F  22,C   9,C   8,F  20)     48.1091         0.008903   
    104. D(F  21,C   9,C   8,C   7)     50.0276         0.008903   
    -----------------------------------------------------------------

Number of atoms                         .... 24
Number of degrees of freedom            .... 104


         *************************************************************
         *                GEOMETRY OPTIMIZATION CYCLE   1            *
         *************************************************************
---------------------------------
CARTESIAN COORDINATES (ANGSTROEM)
---------------------------------
  C      4.790427   -0.033866   -0.529943
  O      5.449345   -1.206924   -0.894595
  O      4.978223    1.323071   -0.737377
  C      3.506688   -0.338742    0.376154
  C      2.222300    0.400525   -0.110682
  C      0.900507   -0.386390    0.175703
  C     -0.395261    0.487294    0.065549
  C     -1.705694   -0.364774   -0.068374
  C     -3.005136    0.445345    0.258164
  C     -4.319880   -0.214526   -0.270541
  F      3.211587   -1.692050    0.412735
  F      3.741062    0.055286    1.689949
  F      2.125697    1.616868    0.483237
  F      2.314152    0.589704   -1.455769
  F      0.794029   -1.413561   -0.700839
  F      0.958351   -0.884509    1.435093
  F     -0.498373    1.260266    1.173340
  F     -0.299075    1.289513   -1.020911
  F     -1.641790   -1.418189    0.779524
  F     -2.918792    1.679227   -0.295171
  F     -3.119771    0.573780    1.598580
  F     -4.383116   -1.504378    0.089128
  F     -5.365670    0.430529    0.260394
  F     -4.396020   -0.128551   -1.602942

----------------------------
CARTESIAN COORDINATES (A.U.)
----------------------------
  NO LB      ZA    FRAG     MASS         X           Y           Z
   0 C     6.0000    0    12.011    9.052595   -0.063997   -1.001448
   1 O     8.0000    0    15.999   10.297770   -2.280756   -1.690539
   2 O     8.0000    0    15.999    9.407478    2.500242   -1.393441
   3 C     6.0000    0    12.011    6.626679   -0.640129    0.710828
   4 C     6.0000    0    12.011    4.199538    0.756882   -0.209158
   5 C     6.0000    0    12.011    1.701711   -0.730171    0.332031
   6 C     6.0000    0    12.011   -0.746935    0.920852    0.123870
   7 C     6.0000    0    12.011   -3.223294   -0.689323   -0.129207
   8 C     6.0000    0    12.011   -5.678884    0.841580    0.487859
   9 C     6.0000    0    12.011   -8.163391   -0.405395   -0.511248
  10 F     9.0000    0    18.998    6.069021   -3.197512    0.779956
  11 F     9.0000    0    18.998    7.069582    0.104475    3.193540
  12 F     9.0000    0    18.998    4.016985    3.055437    0.913185
  13 F     9.0000    0    18.998    4.373114    1.114379   -2.751005
  14 F     9.0000    0    18.998    1.500497   -2.671244   -1.324394
  15 F     9.0000    0    18.998    1.811020   -1.671480    2.711934
  16 F     9.0000    0    18.998   -0.941789    2.381557    2.217292
  17 F     9.0000    0    18.998   -0.565170    2.436826   -1.929242
  18 F     9.0000    0    18.998   -3.102534   -2.679989    1.473086
  19 F     9.0000    0    18.998   -5.515718    3.173280   -0.557793
  20 F     9.0000    0    18.998   -5.895513    1.084287    3.020878
  21 F     9.0000    0    18.998   -8.282888   -2.842862    0.168427
  22 F     9.0000    0    18.998  -10.139646    0.813581    0.492074
  23 F     9.0000    0    18.998   -8.307275   -0.242925   -3.029121

--------------------------------
INTERNAL COORDINATES (ANGSTROEM)
--------------------------------
 C      0   0   0     0.000000000000     0.00000000     0.00000000
 O      1   0   0     1.393990356793     0.00000000     0.00000000
 O      1   2   0     1.385486802956   136.13177198     0.00000000
 C      1   2   3     1.600608594862   111.52489317   181.18992567
 C      4   1   2     1.559863783763   113.16872737   228.91614990
 C      5   4   1     1.564732561934   113.58394786   148.64287440
 C      6   5   4     1.566675459667   113.91280616   163.93256239
 C      7   6   5     1.568817348692   113.20226571   162.98152714
 C      8   7   6     1.565717094808   113.22984595   162.36375422
 C      9   8   7     1.563173062643   114.14707705   162.41661495
 F      4   1   2     1.385592665621   111.82651119   350.11101305
 F      4   1   2     1.391490625050   110.20991618   108.63170802
 F      5   4   1     1.357041377479   110.29260564   270.15468021
 F      5   4   1     1.361428031433   108.58179722    28.57841973
 F      6   5   4     1.354527570075   109.22822656   285.03385927
 F      6   5   4     1.355556277776   108.59004089    43.81583148
 F      7   6   5     1.354739297058   108.88346185   283.65347401
 F      7   6   5     1.353957667090   109.15230848    42.38718856
 F      8   7   6     1.353771473879   109.25240264    41.79387651
 F      9   8   7     1.355028009646   109.45719767    41.95842364
 F      9   8   7     1.351425618925   109.05210362   282.91820052
 F     10   9   8     1.340551089588   110.79953142    50.02756898
 F     10   9   8     1.338530275591   108.63493714   169.35523750
 F     10   9   8     1.337341214598   110.96044107   288.72891896

---------------------------
INTERNAL COORDINATES (A.U.)
---------------------------
 C      0   0   0     0.000000000000     0.00000000     0.00000000
 O      1   0   0     2.634260007667     0.00000000     0.00000000
 O      1   2   0     2.618190619750   136.13177198     0.00000000
 C      1   2   3     3.024711891890   111.52489317   181.18992567
 C      4   1   2     2.947715357535   113.16872737   228.91614990
 C      5   4   1     2.956916014884   113.58394786   148.64287440
 C      6   5   4     2.960587559506   113.91280616   163.93256239
 C      7   6   5     2.964635143173   113.20226571   162.98152714
 C      8   7   6     2.958776512386   113.22984595   162.36375422
 C      9   8   7     2.953968988318   114.14707705   162.41661495
 F      4   1   2     2.618390671194   111.82651119   350.11101305
 F      4   1   2     2.629536199263   110.20991618   108.63170802
 F      5   4   1     2.564436555835   110.29260564   270.15468021
 F      5   4   1     2.572726130452   108.58179722    28.57841973
 F      6   5   4     2.559686148288   109.22822656   285.03385927
 F      6   5   4     2.561630124115   108.59004089    43.81583148
 F      7   6   5     2.560086254300   108.88346185   283.65347401
 F      7   6   5     2.558609187723   109.15230848    42.38718856
 F      8   7   6     2.558257333546   109.25240264    41.79387651
 F      9   8   7     2.560631842023   109.45719767    41.95842364
 F      9   8   7     2.553824310132   109.05210362   282.91820052
 F     10   9   8     2.533274427850   110.79953142    50.02756898
 F     10   9   8     2.529455642830   108.63493714   169.35523750
 F     10   9   8     2.527208643196   110.96044107   288.72891896

---------------------
BASIS SET INFORMATION
---------------------
There are 3 groups of distinct atoms

 Group   1 Type C   : 11s6p2d1f contracted to 5s3p2d1f pattern {62111/411/11/1}
 Group   2 Type O   : 11s6p2d1f contracted to 5s3p2d1f pattern {62111/411/11/1}
 Group   3 Type F   : 11s6p2d1f contracted to 5s3p2d1f pattern {62111/411/11/1}

Atom   0C    basis set group =>   1
Atom   1O    basis set group =>   2
Atom   2O    basis set group =>   2
Atom   3C    basis set group =>   1
Atom   4C    basis set group =>   1
Atom   5C    basis set group =>   1
Atom   6C    basis set group =>   1
Atom   7C    basis set group =>   1
Atom   8C    basis set group =>   1
Atom   9C    basis set group =>   1
Atom  10F    basis set group =>   3
Atom  11F    basis set group =>   3
Atom  12F    basis set group =>   3
Atom  13F    basis set group =>   3
Atom  14F    basis set group =>   3
Atom  15F    basis set group =>   3
Atom  16F    basis set group =>   3
Atom  17F    basis set group =>   3
Atom  18F    basis set group =>   3
Atom  19F    basis set group =>   3
Atom  20F    basis set group =>   3
Atom  21F    basis set group =>   3
Atom  22F    basis set group =>   3
Atom  23F    basis set group =>   3
---------------------------------
AUXILIARY/J BASIS SET INFORMATION
---------------------------------
There are 3 groups of distinct atoms

 Group   1 Type C   : 12s5p4d2f1g contracted to 6s4p3d1f1g pattern {711111/2111/211/2/1}
 Group   2 Type O   : 12s5p4d2f1g contracted to 6s4p3d1f1g pattern {711111/2111/211/2/1}
 Group   3 Type F   : 12s5p4d2f1g contracted to 6s4p3d1f1g pattern {711111/2111/211/2/1}

Atom   0C    basis set group =>   1
Atom   1O    basis set group =>   2
Atom   2O    basis set group =>   2
Atom   3C    basis set group =>   1
Atom   4C    basis set group =>   1
Atom   5C    basis set group =>   1
Atom   6C    basis set group =>   1
Atom   7C    basis set group =>   1
Atom   8C    basis set group =>   1
Atom   9C    basis set group =>   1
Atom  10F    basis set group =>   3
Atom  11F    basis set group =>   3
Atom  12F    basis set group =>   3
Atom  13F    basis set group =>   3
Atom  14F    basis set group =>   3
Atom  15F    basis set group =>   3
Atom  16F    basis set group =>   3
Atom  17F    basis set group =>   3
Atom  18F    basis set group =>   3
Atom  19F    basis set group =>   3
Atom  20F    basis set group =>   3
Atom  21F    basis set group =>   3
Atom  22F    basis set group =>   3
Atom  23F    basis set group =>   3


           ************************************************************
           *        Program running with 20 parallel MPI-processes    *
           *              working on a common directory               *
           ************************************************************
------------------------------------------------------------------------------
                             ORCA STARTUP CALCULATIONS
                           -- RI-GTO INTEGRALS CHOSEN --
------------------------------------------------------------------------------
------------------------------------------------------------------------------
                   ___                                                        
                  /   \      - P O W E R E D   B Y -                         
                 /     \                                                     
                 |  |  |   _    _      __       _____    __    __             
                 |  |  |  | |  | |    /  \     |  _  \  |  |  /  |          
                  \  \/   | |  | |   /    \    | | | |  |  | /  /          
                 / \  \   | |__| |  /  /\  \   | |_| |  |  |/  /          
                |  |  |   |  __  | /  /__\  \  |    /   |      \           
                |  |  |   | |  | | |   __   |  |    \   |  |\   \          
                \     /   | |  | | |  |  |  |  | |\  \  |  | \   \       
                 \___/    |_|  |_| |__|  |__|  |_| \__\ |__|  \__/        
                                                                              
                      - O R C A' S   B I G   F R I E N D -                    
                                      &                                       
                       - I N T E G R A L  F E E D E R -                       
                                                                              
 v1 FN, 2020, v2 2021, v3 2022-2024                                           
------------------------------------------------------------------------------


----------------------
SHARK INTEGRAL PACKAGE
----------------------

Number of atoms                             ...     24
Number of basis functions                   ...    744
Number of shells                            ...    264
Maximum angular momentum                    ...      3
Integral batch strategy                     ... SHARK/LIBINT Hybrid
RI-J (if used) integral strategy            ... SPLIT-RIJ (Revised 2003 algorithm where possible)
Printlevel                                  ...      1
Contraction scheme used                     ... SEGMENTED contraction
Prescreening option                         ... SCHWARTZ
   Thresh                                   ... 2.500e-11
   Tcut                                     ... 2.500e-12
   Tpresel                                  ... 2.500e-12 
Coulomb Range Separation                    ... NOT USED
Exchange Range Separation                   ... NOT USED
Multipole approximations                    ... NOT USED
Finite Nucleus Model                        ... NOT USED
CABS basis                                  ... NOT available
Auxiliary Coulomb fitting basis             ... AVAILABLE
   # of basis functions in Aux-J            ...   1176
   # of shells in Aux-J                     ...    360
   Maximum angular momentum in Aux-J        ...      4
Auxiliary J/K fitting basis                 ... NOT available
Auxiliary Correlation fitting basis         ... NOT available
Auxiliary 'external' fitting basis          ... NOT available

Checking pre-screening integrals            ... done (  0.0 sec) Dimension = 264
Check shell pair data                       ... done (  0.0 sec)
Shell pair information
Shell pair cut-off parameter TPreSel        ...   2.5e-12
Total number of shell pairs                 ...     34980
Shell pairs after pre-screening             ...     21476
Total number of primitive shell pairs       ...    115968
Primitive shell pairs kept                  ...     45760
          la=0 lb=0:   4014 shell pairs
          la=1 lb=0:   5835 shell pairs
          la=1 lb=1:   2046 shell pairs
          la=2 lb=0:   3192 shell pairs
          la=2 lb=1:   2368 shell pairs
          la=2 lb=2:    672 shell pairs
          la=3 lb=0:   1450 shell pairs
          la=3 lb=1:   1136 shell pairs
          la=3 lb=2:    615 shell pairs
          la=3 lb=3:    148 shell pairs

Calculating one electron integrals          ... done (  0.0 sec)
Calculating RI/J V-Matrix + Cholesky decomp.... done (  0.1 sec)
Calculating Nuclear repulsion               ... done (  0.0 sec) ENN=   2594.898969675816 Eh

Diagonalization of the overlap matrix:
Smallest eigenvalue                        ... 6.410e-05
Time for diagonalization                   ...    0.121 sec
Threshold for overlap eigenvalues          ... 1.000e-07
Number of eigenvalues below threshold      ... 0
Time for construction of square roots      ...    0.054 sec
Total time needed                          ...    0.181 sec

-------------------
DFT GRID GENERATION
-------------------

General Integration Accuracy     IntAcc      ... 4.388
Radial Grid Type                 RadialGrid  ... OptM3 with GC (2021)
Angular Grid (max. ang.)         AngularGrid ... 4 (Lebedev-302)
Angular grid pruning method      GridPruning ... 4 (adaptive)
Weight generation scheme         WeightScheme... mBecke (2022)
Basis function cutoff            BFCut       ... 1.0000e-11
Integration weight cutoff        WCut        ... 1.0000e-14
Partially contracted basis set               ... off
Rotationally invariant grid construction     ... off
Angular grids for H and He will be reduced by one unit

Total number of grid points                  ...   145512
Total number of batches                      ...     2284
Average number of points per batch           ...       63
Average number of grid points per atom       ...     6063

--------------------
COSX GRID GENERATION
--------------------

GRIDX 1
-------
General Integration Accuracy     IntAcc      ... 3.816
Radial Grid Type                 RadialGrid  ... OptM3 with GC (2021)
Angular Grid (max. ang.)         AngularGrid ... 1 (Lebedev-50)
Angular grid pruning method      GridPruning ... 4 (adaptive)
Weight generation scheme         WeightScheme... mBecke (2022)
Basis function cutoff            BFCut       ... 1.0000e-11
Integration weight cutoff        WCut        ... 1.0000e-14
Partially contracted basis set               ... on
Rotationally invariant grid construction     ... off
Angular grids for H and He will be reduced by one unit

Total number of grid points                  ...    18286
Total number of batches                      ...      153
Average number of points per batch           ...      119
Average number of grid points per atom       ...      762
UseSFitting                                  ... on

GRIDX 2
-------
General Integration Accuracy     IntAcc      ... 4.020
Radial Grid Type                 RadialGrid  ... OptM3 with GC (2021)
Angular Grid (max. ang.)         AngularGrid ... 2 (Lebedev-110)
Angular grid pruning method      GridPruning ... 4 (adaptive)
Weight generation scheme         WeightScheme... mBecke (2022)
Basis function cutoff            BFCut       ... 1.0000e-11
Integration weight cutoff        WCut        ... 1.0000e-14
Partially contracted basis set               ... on
Rotationally invariant grid construction     ... off
Angular grids for H and He will be reduced by one unit

Total number of grid points                  ...    43376
Total number of batches                      ...      353
Average number of points per batch           ...      122
Average number of grid points per atom       ...     1807
UseSFitting                                  ... on

GRIDX 3
-------
General Integration Accuracy     IntAcc      ... 4.338
Radial Grid Type                 RadialGrid  ... OptM3 with GC (2021)
Angular Grid (max. ang.)         AngularGrid ... 3 (Lebedev-194)
Angular grid pruning method      GridPruning ... 4 (adaptive)
Weight generation scheme         WeightScheme... mBecke (2022)
Basis function cutoff            BFCut       ... 1.0000e-11
Integration weight cutoff        WCut        ... 1.0000e-14
Partially contracted basis set               ... on
Rotationally invariant grid construction     ... off
Angular grids for H and He will be reduced by one unit

Total number of grid points                  ...    96110
Total number of batches                      ...      760
Average number of points per batch           ...      126
Average number of grid points per atom       ...     4005
UseSFitting                                  ... on
Initializing property integral containers    ... done (  0.0 sec)

SHARK setup successfully completed in   3.7 seconds

Maximum memory used throughout the entire STARTUP-calculation: 56.4 MB


           ************************************************************
           *        Program running with 20 parallel MPI-processes    *
           *              working on a common directory               *
           ************************************************************
-------------------------------------------------------------------------------
                                 ORCA GUESS
                   Start orbitals & Density for SCF / CASSCF
-------------------------------------------------------------------------------

------------
SCF SETTINGS
------------
Hamiltonian:
 Density Functional     Method          .... DFT(GTOs)
  Functional kind                       .... Exchange
  Functional name                       .... Re-regularized SCAN exchange by Furness et al
  Functional family                     .... MGGA
  Functional refs                              
    [ 0] J. W. Furness, A. D. Kaplan, J. Ning, J. P. Perdew, and J. Sun.,  J. Phys. Chem. Lett. 11, 8208-8215 (2020), doi: 10.1021/acs.jpclett.0c02405
    [ 1] J. W. Furness, A. D. Kaplan, J. Ning, J. P. Perdew, and J. Sun.,  J. Phys. Chem. Lett. 11, 9248-9248 (2020), doi: 10.1021/acs.jpclett.0c03077
  Functional external parameters        .... 6
    Parameter  0 _c1        =  6.670000e-01 : c1 parameter        
    Parameter  1 _c2        =  8.000000e-01 : c2 parameter        
    Parameter  2 _d         =  1.240000e+00 : d parameter         
    Parameter  3 _k1        =  6.500000e-02 : k1 parameter        
    Parameter  4 _eta       =  1.000000e-03 : eta parameter       
    Parameter  5 _dp2       =  3.610000e-01 : dp2 parameter       
  Functional kind                       .... Correlation
  Functional name                       .... Re-regularized SCAN correlation by Furness et al
  Functional family                     .... MGGA
  Functional refs                              
    [ 0] J. W. Furness, A. D. Kaplan, J. Ning, J. P. Perdew, and J. Sun.,  J. Phys. Chem. Lett. 11, 8208-8215 (2020), doi: 10.1021/acs.jpclett.0c02405
    [ 1] J. W. Furness, A. D. Kaplan, J. Ning, J. P. Perdew, and J. Sun.,  J. Phys. Chem. Lett. 11, 9248-9248 (2020), doi: 10.1021/acs.jpclett.0c03077
  Functional external parameters        .... 1
    Parameter  0 _eta       =  1.000000e-03 : Regularization parameter
 Gradients option       PostSCFGGA      .... off
 Hybrid DFT is turned on
   Fraction HF Exchange ScalHFX         ....  0.100000
   Scaling of DF-GGA-X  ScalDFX         ....  0.900000
   Scaling of DF-GGA-C  ScalDFC         ....  1.000000
   Scaling of DF-LDA-C  ScalLDAC        ....  1.000000
   Perturbative correction              ....  0.000000
   NL short-range parameter             .... 11.900000
 RI-approximation to the Coulomb term is turned on
   Number of AuxJ basis functions       .... 1176
   RIJ-COSX (HFX calculated with COS-X)).... on


General Settings:
 Integral files         IntName         .... rf_mecn_opt_r2s_C6_D_B
 Hartree-Fock type      HFTyp           .... UHF
 Total Charge           Charge          ....   -1
 Multiplicity           Mult            ....    2
 Number of Electrons    NEL             ....  191
 Basis Dimension        Dim             ....  744
 Nuclear Repulsion      ENuc            ....   2594.8989696758 Eh

Convergence Acceleration:
 AO-DIIS                CNVDIIS         .... on
   Start iteration      DIISMaxIt       ....     0
   Startup error        DIISStart       ....  0.200000
   # of expansion vecs  DIISMaxEq       ....     5
   Bias factor          DIISBfac        ....   1.050
   Max. coefficient     DIISMaxC        ....  10.000
 MO-DIIS                CNVKDIIS        .... off
 Trust-Rad. Augm. Hess. CNVTRAH         .... auto
   Auto Start mean grad. ratio tolernc. ....  1.125000
   Auto Start start iteration           ....    50
   Auto Start num. interpolation iter.  ....    10
   Max. Number of Micro iterations      ....    24
   Max. Number of Macro iterations      .... Maxiter - #DIIS iter
   Number of Davidson start vectors     ....     2
   Converg. threshold    (grad. norm)   ....   1.000e-05
   Grad. Scal. Fac. for Micro threshold ....   0.100
   Minimum threshold for Micro iter.    ....   1.000e-02
   NR start threshold (gradient norm)   ....   1.000e-04
   Initial trust radius                 ....   0.400
   Minimum AH scaling param. (alpha)    ....   1.000
   Maximum AH scaling param. (alpha)    .... 1000.000
   Quad. conv. algorithm                .... NR
   White noise on init. David. guess    .... on
   Maximum white noise                  ....   0.010
   Pseudo random numbers                .... off
   Inactive MOs                         .... canonical
   Orbital update algorithm             .... Taylor
   Preconditioner                       .... Diag
   Full preconditioner red. dimension   ....   250
 SOSCF                  CNVSOSCF        .... on
   Start iteration      SOSCFMaxIt      ....   150
   Startup grad/error   SOSCFStart      ....  0.001000
   Hessian update       SOSCFHessUp     .... L-BFGS
 Level Shifting         CNVShift        .... on
   Level shift para.    LevelShift      ....    0.2500
   Turn off err/grad.   ShiftErr        ....    0.0000
 Zerner damping         CNVZerner       .... off
 Static damping         CNVDamp         .... on
   Fraction old density DampFac         ....    0.8500
   Max. Damping (<1)    DampMax         ....    0.9800
   Min. Damping (>=0)   DampMin         ....    0.0000
   Turn off err/grad.   DampErr         ....    0.0300

SCF Procedure:
 Maximum # iterations   MaxIter         ....  1500
 SCF integral mode      SCFMode         .... Direct
   Integral package                     .... SHARK and LIBINT hybrid scheme
 Reset frequency        DirectResetFreq ....    20
 Integral Threshold     Thresh          ....  2.500e-11 Eh
 Primitive CutOff       TCut            ....  2.500e-12 Eh

Convergence Tolerance:
 Convergence Check Mode ConvCheckMode   .... Total+1el-Energy
 Convergence forced     ConvForced      .... 0
 Energy Change          TolE            ....  1.000e-08 Eh
 1-El. energy change                    ....  1.000e-05 Eh
 Orbital Gradient       TolG            ....  1.000e-05
 Orbital Rotation angle TolX            ....  1.000e-05
 DIIS Error             TolErr          ....  5.000e-07

------------------------------
INITIAL GUESS: MODEL POTENTIAL
------------------------------
Loading Hartree-Fock densities                     ... done
Calculating cut-offs                               ... done
Initializing the effective Hamiltonian             ... done
Setting up the integral package (SHARK)            ... done
Starting the Coulomb interaction                   ... done (   0.2 sec)
Making the grid                                    ... done (   0.4 sec)
Mapping shells                                     ... done
Starting the XC term evaluation                    ... done (   0.2 sec)
  promolecular density results
     # of electrons  =    190.000891703
     EX              =   -197.018238762
     EC              =     -6.647799013
     EX+EC           =   -203.666037775
Transforming the Hamiltonian                       ... done (   0.0 sec)
Diagonalizing the Hamiltonian                      ... done (   0.1 sec)
Back transforming the eigenvectors                 ... done (   0.1 sec)
Now organizing SCF variables                       ... done
                      ------------------
                      INITIAL GUESS DONE (   1.2 sec)
                      ------------------
             **** ENERGY FILE WAS UPDATED (rf_mecn_opt_r2s_C6_D_B.en.tmp) ****
Finished Guess after   2.0 sec
Maximum memory used throughout the entire GUESS-calculation: 45.1 MB


           ************************************************************
           *        Program running with 20 parallel MPI-processes    *
           *              working on a common directory               *
           ************************************************************

-------------------------------------------------------------------------------------------
                                      ORCA LEAN-SCF
                              memory conserving SCF solver
-------------------------------------------------------------------------------------------

--------------------
CPCM SOLVATION MODEL
--------------------
CPCM parameters:
  Epsilon                                         ...      35.6880
  Refrac                                          ...       1.3442
  Rsolv                                           ...       1.3000
  Surface type                                    ... GAUSSIAN VDW
  Discretization scheme                           ... Constant charge density
    Threshold for H atoms                         ...       5.0000 (charges/Ang^2)
    Threshold for non-H atoms                     ...       5.0000 (charges/Ang^2)
  Epsilon function type                           ...         CPCM
Solvent:                                          ... ACETONITRILE
SMD-CDS solvent descriptors:
  Soln                                            ...       1.3442
  Soln25                                          ...       1.3416
  Sola                                            ...       0.0700
  Solb                                            ...       0.3200
  Solg                                            ...      41.2500
  Solc                                            ...       0.0000
  Solh                                            ...       0.0000
Radii:
  Scheme                                          ... Element-dependent radii
  Radius for C  used is    3.4960 Bohr (=   1.8500 Ang.)
  Radius for O  used is    4.0969 Bohr (=   2.1680 Ang.)
  Radius for F  used is    3.2692 Bohr (=   1.7300 Ang.)
Calculating surface                               ...        done! (  0.0s)
Cavity surface points                             ...         2132
Cavity Volume                                     ...    2133.9424
Cavity Surface-area                               ...    1119.6214
Calculating surface distance matrix               ...        done! (  0.0s)
Performing Cholesky decomposition & store         ...        done! (  0.1s)
Overall time for CPCM initialization              ...                 0.2s

----------------------------------------D-I-I-S--------------------------------------------
Iteration    Energy (Eh)           Delta-E    RMSDP     MaxDP     DIISErr   Damp  Time(sec)
-------------------------------------------------------------------------------------------
               ***  Starting incremental Fock matrix formation  ***
    1    -1852.5859835322503386     0.00e+00  2.68e-04  3.46e-02  1.57e-01  0.850   7.7
Warning: op=0 Small HOMO/LUMO gap (   0.058) - skipping pre-diagonalization
         Will do a full diagonalization
    2    -1852.7328916973706328    -1.47e-01  3.35e-04  6.55e-02  1.05e-01  0.850   5.3
                               ***Turning on AO-DIIS***
    3    -1852.8088334889494035    -7.59e-02  1.57e-04  2.76e-02  6.06e-02  0.850   4.6
    4    -1852.8538821988081509    -4.50e-02  8.18e-05  8.91e-03  4.44e-02  0.850   4.5
    5    -1852.8858828549996360    -3.20e-02  5.50e-05  5.23e-03  3.69e-02  0.850   4.4
    6    -1852.9112920607353772    -2.54e-02  4.52e-05  5.11e-03  3.22e-02  0.850   4.2
    7    -1852.9325586736636069    -2.13e-02  4.06e-05  4.85e-03  2.77e-02  0.850   4.1
    8    -1852.9507119340701138    -1.82e-02  2.40e-04  2.93e-02  2.31e-02  0.000   4.1
    9    -1853.0465440441898863    -9.58e-02  2.72e-05  2.27e-03  4.75e-03  0.000   4.6
   10    -1853.0467752192976150    -2.31e-04  1.12e-05  1.16e-03  3.14e-03  0.000   4.0
                              *** Initializing SOSCF ***
---------------------------------------S-O-S-C-F--------------------------------------
Iteration    Energy (Eh)           Delta-E    RMSDP     MaxDP     MaxGrad    Time(sec)
--------------------------------------------------------------------------------------
   11    -1853.0468692410736367    -9.40e-05  6.22e-06  7.24e-04  4.75e-04     4.4
               *** Restarting incremental Fock matrix formation ***
   12    -1853.0468902447250912    -2.10e-05  5.42e-06  7.37e-04  2.61e-04     7.5
   13    -1853.0468908297775670    -5.85e-07  3.48e-06  4.94e-04  5.94e-04     4.7
   14    -1853.0468942295351553    -3.40e-06  1.68e-06  2.40e-04  8.51e-05     4.6
   15    -1853.0468942982029148    -6.87e-08  9.22e-07  1.66e-04  3.79e-05     4.4
   16    -1853.0468944888348233    -1.91e-07  3.45e-07  2.53e-05  1.05e-05     3.9
   17    -1853.0468944548333639     3.40e-08  2.27e-07  2.71e-05  2.58e-05     3.6
   18    -1853.0468945002899090    -4.55e-08  2.08e-07  2.09e-05  1.50e-05     3.4
   19    -1853.0468945315683413    -3.13e-08  1.69e-07  3.02e-05  2.22e-05     3.4
   20    -1853.0468945090092348     2.26e-08  9.53e-08  1.25e-05  4.34e-07     3.5
                  *** Gradient check signals convergence ***

               *****************************************************
               *                     SUCCESS                       *
               *           SCF CONVERGED AFTER  20 CYCLES          *
               *****************************************************

Recomputing exchange energy using gridx3       ... done (    8.356 sec)
Old exchange energy                            :    -19.873713916 Eh
New exchange energy                            :    -19.873721815 Eh
Exchange energy change after final integration :     -0.000007899 Eh
Total energy after final integration           :  -1853.046902408 Eh

SMD CDS free energy correction energy :                 3.61162     Kcal/mol
Total Energy after SMD CDS correction =             -1853.041146930 Eh
             **** ENERGY FILE WAS UPDATED (rf_mecn_opt_r2s_C6_D_B.en.tmp) ****

----------------
TOTAL SCF ENERGY
----------------

Total Energy       :      -1853.04114693011752 Eh          -50423.81311 eV

Components:
Nuclear Repulsion  :       2594.89896967581581 Eh           70610.79075 eV
Electronic Energy  :      -4447.86153941570228 Eh         -121032.46566 eV
One Electron Energy:      -7764.38631701298800 Eh         -211279.69294 eV
Two Electron Energy:       3316.52477759728617 Eh           90247.22728 eV
CPCM Dielectric    :         -0.08432476912383 Eh              -2.29459 eV
SMD CDS (Gcds)     :          0.00575547829819 Eh               0.15661 eV

Virial components:
Potential Energy   :      -3698.51825540222535 Eh         -100641.79826 eV
Kinetic Energy     :       1845.47710847210783 Eh           50217.98515 eV
Virial Ratio       :          2.00409868993947

DFT components:
N(Alpha)           :       95.999981469519 electrons
N(Beta)            :       94.999967780065 electrons
N(Total)           :      190.999949249584 electrons
E(X)               :     -179.875689715251 Eh       
E(C)               :       -6.627404623459 Eh       
E(XC)              :     -186.503094338709 Eh       

CPCM Solvation Model Properties:
Surface-charge          :          0.99028084011941
Corrected charge        :          1.00000000000000
Outlying charge corr.   :          0.00000513436977 Eh               0.00014 eV
Free-energy (cav+disp)  :          0.00575547829819 Eh               0.15661 eV

---------------
SCF CONVERGENCE
---------------

  Last Energy change         ...   -2.2559e-08  Tolerance :   1.0000e-08
  Last MAX-Density change    ...    1.2544e-05  Tolerance :   1.0000e-07
  Last RMS-Density change    ...    9.5315e-08  Tolerance :   5.0000e-09
  Last DIIS Error            ...    4.7478e-04  Tolerance :   5.0000e-07
  Last Orbital Gradient      ...    4.3406e-07  Tolerance :   1.0000e-05
  Last Orbital Rotation      ...    1.7246e-06  Tolerance :   1.0000e-05


----------------------
UHF SPIN CONTAMINATION
----------------------

Warning: in a DFT calculation there is little theoretical justification to 
         calculate <S**2> as in Hartree-Fock theory. We will do it anyways
         but you should keep in mind that the values have only limited relevance

Expectation value of <S**2>     :     0.755178
Ideal value S*(S+1) for S=0.5   :     0.750000
Deviation                       :     0.005178

----------------
ORBITAL ENERGIES
----------------
                 SPIN UP ORBITALS
  NO   OCC          E(Eh)            E(eV) 
   0   1.0000     -24.734782      -673.0676 
   1   1.0000     -24.729920      -672.9353 
   2   1.0000     -24.729534      -672.9248 
   3   1.0000     -24.727685      -672.8745 
   4   1.0000     -24.727135      -672.8595 
   5   1.0000     -24.726177      -672.8335 
   6   1.0000     -24.726001      -672.8287 
   7   1.0000     -24.722746      -672.7401 
   8   1.0000     -24.721940      -672.7182 
   9   1.0000     -24.720463      -672.6780 
  10   1.0000     -24.713761      -672.4956 
  11   1.0000     -24.709433      -672.3778 
  12   1.0000     -24.692685      -671.9221 
  13   1.0000     -24.689958      -671.8479 
  14   1.0000     -19.076123      -519.0877 
  15   1.0000     -19.074420      -519.0414 
  16   1.0000     -10.438892      -284.0567 
  17   1.0000     -10.387106      -282.6475 
  18   1.0000     -10.385204      -282.5958 
  19   1.0000     -10.378455      -282.4121 
  20   1.0000     -10.368380      -282.1380 
  21   1.0000     -10.345143      -281.5057 
  22   1.0000     -10.326183      -280.9897 
  23   1.0000     -10.278594      -279.6948 
  24   1.0000      -1.350837       -36.7582 
  25   1.0000      -1.322200       -35.9789 
  26   1.0000      -1.311304       -35.6824 
  27   1.0000      -1.301733       -35.4220 
  28   1.0000      -1.293075       -35.1864 
  29   1.0000      -1.283340       -34.9215 
  30   1.0000      -1.263796       -34.3896 
  31   1.0000      -1.262022       -34.3414 
  32   1.0000      -1.260121       -34.2896 
  33   1.0000      -1.255964       -34.1765 
  34   1.0000      -1.251502       -34.0551 
  35   1.0000      -1.246362       -33.9152 
  36   1.0000      -1.236531       -33.6477 
  37   1.0000      -1.209208       -32.9042 
  38   1.0000      -0.963948       -26.2304 
  39   1.0000      -0.904232       -24.6054 
  40   1.0000      -0.841307       -22.8931 
  41   1.0000      -0.818305       -22.2672 
  42   1.0000      -0.786354       -21.3978 
  43   1.0000      -0.748715       -20.3736 
  44   1.0000      -0.703496       -19.1431 
  45   1.0000      -0.672621       -18.3029 
  46   1.0000      -0.658268       -17.9124 
  47   1.0000      -0.627434       -17.0733 
  48   1.0000      -0.620976       -16.8976 
  49   1.0000      -0.619913       -16.8687 
  50   1.0000      -0.611327       -16.6351 
  51   1.0000      -0.607217       -16.5232 
  52   1.0000      -0.604808       -16.4577 
  53   1.0000      -0.590773       -16.0758 
  54   1.0000      -0.582900       -15.8615 
  55   1.0000      -0.580293       -15.7906 
  56   1.0000      -0.572365       -15.5749 
  57   1.0000      -0.565975       -15.4010 
  58   1.0000      -0.559329       -15.2201 
  59   1.0000      -0.553898       -15.0723 
  60   1.0000      -0.539006       -14.6671 
  61   1.0000      -0.512579       -13.9480 
  62   1.0000      -0.494231       -13.4487 
  63   1.0000      -0.489911       -13.3311 
  64   1.0000      -0.484281       -13.1780 
  65   1.0000      -0.482481       -13.1290 
  66   1.0000      -0.481623       -13.1056 
  67   1.0000      -0.469645       -12.7797 
  68   1.0000      -0.467277       -12.7153 
  69   1.0000      -0.465083       -12.6556 
  70   1.0000      -0.463700       -12.6179 
  71   1.0000      -0.456352       -12.4180 
  72   1.0000      -0.449236       -12.2243 
  73   1.0000      -0.448350       -12.2002 
  74   1.0000      -0.446889       -12.1605 
  75   1.0000      -0.444821       -12.1042 
  76   1.0000      -0.440845       -11.9960 
  77   1.0000      -0.439794       -11.9674 
  78   1.0000      -0.432238       -11.7618 
  79   1.0000      -0.429316       -11.6823 
  80   1.0000      -0.425227       -11.5710 
  81   1.0000      -0.423013       -11.5108 
  82   1.0000      -0.418494       -11.3878 
  83   1.0000      -0.417183       -11.3521 
  84   1.0000      -0.411455       -11.1963 
  85   1.0000      -0.400885       -10.9086 
  86   1.0000      -0.399903       -10.8819 
  87   1.0000      -0.383586       -10.4379 
  88   1.0000      -0.377738       -10.2788 
  89   1.0000      -0.358610        -9.7583 
  90   1.0000      -0.338810        -9.2195 
  91   1.0000      -0.328322        -8.9341 
  92   1.0000      -0.297885        -8.1059 
  93   1.0000      -0.241173        -6.5626 
  94   1.0000      -0.233341        -6.3495 
  95   1.0000      -0.230114        -6.2617 
  96   0.0000      -0.032682        -0.8893 
  97   0.0000      -0.016481        -0.4485 
  98   0.0000       0.019191         0.5222 
  99   0.0000       0.032884         0.8948 
 100   0.0000       0.056188         1.5290 
 101   0.0000       0.077126         2.0987 
 102   0.0000       0.089574         2.4374 
 103   0.0000       0.105201         2.8627 
 104   0.0000       0.115886         3.1534 
 105   0.0000       0.122661         3.3378 
 106   0.0000       0.135660         3.6915 

                 SPIN DOWN ORBITALS
  NO   OCC          E(Eh)            E(eV) 
   0   1.0000     -24.730049      -672.9388 
   1   1.0000     -24.729875      -672.9341 
   2   1.0000     -24.729504      -672.9240 
   3   1.0000     -24.727685      -672.8745 
   4   1.0000     -24.726177      -672.8335 
   5   1.0000     -24.725843      -672.8244 
   6   1.0000     -24.724346      -672.7837 
   7   1.0000     -24.722625      -672.7368 
   8   1.0000     -24.721928      -672.7179 
   9   1.0000     -24.720460      -672.6779 
  10   1.0000     -24.713755      -672.4955 
  11   1.0000     -24.709435      -672.3779 
  12   1.0000     -24.692686      -671.9222 
  13   1.0000     -24.689957      -671.8479 
  14   1.0000     -19.076123      -519.0877 
  15   1.0000     -19.074422      -519.0414 
  16   1.0000     -10.438839      -284.0552 
  17   1.0000     -10.387089      -282.6470 
  18   1.0000     -10.385165      -282.5947 
  19   1.0000     -10.378510      -282.4136 
  20   1.0000     -10.368390      -282.1382 
  21   1.0000     -10.345148      -281.5058 
  22   1.0000     -10.308461      -280.5075 
  23   1.0000     -10.278595      -279.6948 
  24   1.0000      -1.350691       -36.7542 
  25   1.0000      -1.320993       -35.9460 
  26   1.0000      -1.310087       -35.6493 
  27   1.0000      -1.300730       -35.3947 
  28   1.0000      -1.292899       -35.1816 
  29   1.0000      -1.275688       -34.7132 
  30   1.0000      -1.263316       -34.3766 
  31   1.0000      -1.261987       -34.3404 
  32   1.0000      -1.260039       -34.2874 
  33   1.0000      -1.255104       -34.1531 
  34   1.0000      -1.250295       -34.0222 
  35   1.0000      -1.245468       -33.8909 
  36   1.0000      -1.236514       -33.6472 
  37   1.0000      -1.209208       -32.9042 
  38   1.0000      -0.963950       -26.2304 
  39   1.0000      -0.904234       -24.6055 
  40   1.0000      -0.831257       -22.6196 
  41   1.0000      -0.814605       -22.1665 
  42   1.0000      -0.783830       -21.3291 
  43   1.0000      -0.741722       -20.1833 
  44   1.0000      -0.702041       -19.1035 
  45   1.0000      -0.668742       -18.1974 
  46   1.0000      -0.656258       -17.8577 
  47   1.0000      -0.624021       -16.9805 
  48   1.0000      -0.619509       -16.8577 
  49   1.0000      -0.618933       -16.8420 
  50   1.0000      -0.610610       -16.6155 
  51   1.0000      -0.606367       -16.5001 
  52   1.0000      -0.603350       -16.4180 
  53   1.0000      -0.588634       -16.0175 
  54   1.0000      -0.581484       -15.8230 
  55   1.0000      -0.578861       -15.7516 
  56   1.0000      -0.569261       -15.4904 
  57   1.0000      -0.562620       -15.3097 
  58   1.0000      -0.558313       -15.1925 
  59   1.0000      -0.552755       -15.0412 
  60   1.0000      -0.538960       -14.6658 
  61   1.0000      -0.493442       -13.4272 
  62   1.0000      -0.490735       -13.3536 
  63   1.0000      -0.487223       -13.2580 
  64   1.0000      -0.482847       -13.1389 
  65   1.0000      -0.481396       -13.0994 
  66   1.0000      -0.478386       -13.0176 
  67   1.0000      -0.468942       -12.7606 
  68   1.0000      -0.464880       -12.6500 
  69   1.0000      -0.464310       -12.6345 
  70   1.0000      -0.461534       -12.5590 
  71   1.0000      -0.453261       -12.3339 
  72   1.0000      -0.448897       -12.2151 
  73   1.0000      -0.446388       -12.1468 
  74   1.0000      -0.444996       -12.1089 
  75   1.0000      -0.442637       -12.0448 
  76   1.0000      -0.438920       -11.9436 
  77   1.0000      -0.437969       -11.9177 
  78   1.0000      -0.431333       -11.7372 
  79   1.0000      -0.428743       -11.6667 
  80   1.0000      -0.424991       -11.5646 
  81   1.0000      -0.422639       -11.5006 
  82   1.0000      -0.417989       -11.3741 
  83   1.0000      -0.415965       -11.3190 
  84   1.0000      -0.410043       -11.1578 
  85   1.0000      -0.400873       -10.9083 
  86   1.0000      -0.398843       -10.8531 
  87   1.0000      -0.382254       -10.4016 
  88   1.0000      -0.377693       -10.2776 
  89   1.0000      -0.355697        -9.6790 
  90   1.0000      -0.338777        -9.2186 
  91   1.0000      -0.325218        -8.8496 
  92   1.0000      -0.241174        -6.5627 
  93   1.0000      -0.233342        -6.3496 
  94   1.0000      -0.230104        -6.2615 
  95   0.0000      -0.135203        -3.6791 
  96   0.0000      -0.032381        -0.8811 
  97   0.0000      -0.012420        -0.3380 
  98   0.0000       0.022985         0.6255 
  99   0.0000       0.037842         1.0297 
 100   0.0000       0.063104         1.7171 
 101   0.0000       0.082914         2.2562 
 102   0.0000       0.092095         2.5060 
 103   0.0000       0.105987         2.8840 
 104   0.0000       0.118560         3.2262 
 105   0.0000       0.129504         3.5240 
*Only the first 10 virtual orbitals were printed.

                    ********************************
                    * MULLIKEN POPULATION ANALYSIS *
                    ********************************

--------------------------------------------
MULLIKEN ATOMIC CHARGES AND SPIN POPULATIONS
--------------------------------------------
   0 C :    0.240835   -0.000023
   1 O :   -0.557573   -0.000056
   2 O :   -0.559924    0.000008
   3 C :    0.355971   -0.000188
   4 C :    0.326377   -0.000380
   5 C :    0.332863   -0.004494
   6 C :    0.354717    0.001814
   7 C :    0.087130    0.862339
   8 C :    0.377506    0.001757
   9 C :    0.479969   -0.000209
  10 F :   -0.198559    0.000011
  11 F :   -0.211664   -0.000016
  12 F :   -0.181364    0.000085
  13 F :   -0.181090   -0.000022
  14 F :   -0.173567    0.001011
  15 F :   -0.174002    0.000173
  16 F :   -0.166368    0.030723
  17 F :   -0.175146   -0.000358
  18 F :   -0.157660    0.081398
  19 F :   -0.172734    0.000076
  20 F :   -0.162473    0.025232
  21 F :   -0.162761    0.000572
  22 F :   -0.158838    0.000016
  23 F :   -0.161647    0.000531
Sum of atomic charges         :   -1.0000000
Sum of atomic spin populations:    1.0000000

-----------------------------------------------------
MULLIKEN REDUCED ORBITAL CHARGES AND SPIN POPULATIONS
-----------------------------------------------------
CHARGE
  0 C s       :     3.146585  s :     3.146585
      pz      :     0.833479  p :     2.402656
      px      :     0.856601
      py      :     0.712576
      dz2     :     0.012494  d :     0.193631
      dxz     :     0.014950
      dyz     :     0.057055
      dx2y2   :     0.050838
      dxy     :     0.058294
      f0      :     0.001648  f :     0.016294
      f+1     :     0.001038
      f-1     :     0.002047
      f+2     :     0.002445
      f-2     :     0.001603
      f+3     :     0.003591
      f-3     :     0.003922

  1 O s       :     3.875711  s :     3.875711
      pz      :     1.592964  p :     4.657536
      px      :     1.636427
      py      :     1.428145
      dz2     :     0.003076  d :     0.023092
      dxz     :     0.001658
      dyz     :     0.005288
      dx2y2   :     0.005469
      dxy     :     0.007600
      f0      :     0.000110  f :     0.001233
      f+1     :     0.000055
      f-1     :     0.000170
      f+2     :     0.000115
      f-2     :     0.000188
      f+3     :     0.000356
      f-3     :     0.000240

  2 O s       :     3.873022  s :     3.873022
      pz      :     1.619746  p :     4.662077
      px      :     1.737982
      py      :     1.304349
      dz2     :     0.003107  d :     0.023570
      dxz     :     0.000323
      dyz     :     0.006070
      dx2y2   :     0.008750
      dxy     :     0.005320
      f0      :     0.000116  f :     0.001255
      f+1     :     0.000016
      f-1     :     0.000222
      f+2     :     0.000211
      f-2     :     0.000032
      f+3     :     0.000285
      f-3     :     0.000374

  3 C s       :     3.112406  s :     3.112406
      pz      :     0.680211  p :     2.261358
      px      :     0.941447
      py      :     0.639701
      dz2     :     0.045065  d :     0.245984
      dxz     :     0.046503
      dyz     :     0.061064
      dx2y2   :     0.042510
      dxy     :     0.050841
      f0      :     0.005153  f :     0.024281
      f+1     :     0.003542
      f-1     :     0.003698
      f+2     :     0.003329
      f-2     :     0.001979
      f+3     :     0.003569
      f-3     :     0.003010

  4 C s       :     3.123212  s :     3.123212
      pz      :     0.608439  p :     2.249629
      px      :     0.940540
      py      :     0.700650
      dz2     :     0.059994  d :     0.274108
      dxz     :     0.057029
      dyz     :     0.066867
      dx2y2   :     0.034016
      dxy     :     0.056201
      f0      :     0.003467  f :     0.026674
      f+1     :     0.004809
      f-1     :     0.007798
      f+2     :     0.002084
      f-2     :     0.002590
      f+3     :     0.003486
      f-3     :     0.002442

  5 C s       :     3.147433  s :     3.147433
      pz      :     0.582521  p :     2.209978
      px      :     0.914623
      py      :     0.712834
      dz2     :     0.074584  d :     0.282715
      dxz     :     0.060223
      dyz     :     0.058583
      dx2y2   :     0.032139
      dxy     :     0.057186
      f0      :     0.004742  f :     0.027010
      f+1     :     0.004268
      f-1     :     0.005976
      f+2     :     0.003052
      f-2     :     0.004282
      f+3     :     0.002556
      f-3     :     0.002134

  6 C s       :     3.132936  s :     3.132936
      pz      :     0.573632  p :     2.198251
      px      :     0.914015
      py      :     0.710604
      dz2     :     0.076927  d :     0.286994
      dxz     :     0.063723
      dyz     :     0.056309
      dx2y2   :     0.032828
      dxy     :     0.057207
      f0      :     0.006057  f :     0.027101
      f+1     :     0.003718
      f-1     :     0.004145
      f+2     :     0.003965
      f-2     :     0.005221
      f+3     :     0.002077
      f-3     :     0.001919

  7 C s       :     3.320767  s :     3.320767
      pz      :     0.829714  p :     2.432175
      px      :     0.920498
      py      :     0.681963
      dz2     :     0.035361  d :     0.144773
      dxz     :     0.019987
      dyz     :     0.020787
      dx2y2   :     0.026142
      dxy     :     0.042496
      f0      :     0.001490  f :     0.015156
      f+1     :     0.001242
      f-1     :     0.003528
      f+2     :     0.001416
      f-2     :     0.003168
      f+3     :     0.002387
      f-3     :     0.001925

  8 C s       :     3.089157  s :     3.089157
      pz      :     0.604130  p :     2.220030
      px      :     0.933023
      py      :     0.682876
      dz2     :     0.057429  d :     0.286190
      dxz     :     0.063531
      dyz     :     0.072375
      dx2y2   :     0.034719
      dxy     :     0.058135
      f0      :     0.003586  f :     0.027118
      f+1     :     0.004843
      f-1     :     0.007993
      f+2     :     0.002086
      f-2     :     0.002456
      f+3     :     0.003737
      f-3     :     0.002417

  9 C s       :     3.025267  s :     3.025267
      pz      :     0.645369  p :     2.107900
      px      :     0.803787
      py      :     0.658744
      dz2     :     0.065981  d :     0.347707
      dxz     :     0.067695
      dyz     :     0.084390
      dx2y2   :     0.062649
      dxy     :     0.066991
      f0      :     0.004501  f :     0.039157
      f+1     :     0.007816
      f-1     :     0.008740
      f+2     :     0.004301
      f-2     :     0.003008
      f+3     :     0.007334
      f-3     :     0.003457

 10 F s       :     3.923207  s :     3.923207
      pz      :     1.898337  p :     5.259765
      px      :     1.887505
      py      :     1.473922
      dz2     :     0.002086  d :     0.014973
      dxz     :     0.000316
      dyz     :     0.002851
      dx2y2   :     0.005689
      dxy     :     0.004030
      f0      :     0.000048  f :     0.000614
      f+1     :     0.000015
      f-1     :     0.000119
      f+2     :     0.000071
      f-2     :     0.000018
      f+3     :     0.000167
      f-3     :     0.000176

 11 F s       :     3.927388  s :     3.927388
      pz      :     1.494623  p :     5.269318
      px      :     1.903288
      py      :     1.871407
      dz2     :     0.006381  d :     0.014366
      dxz     :     0.003506
      dyz     :     0.003543
      dx2y2   :     0.000468
      dxy     :     0.000468
      f0      :     0.000207  f :     0.000593
      f+1     :     0.000136
      f-1     :     0.000168
      f+2     :     0.000038
      f-2     :     0.000038
      f+3     :     0.000003
      f-3     :     0.000003

 12 F s       :     3.926636  s :     3.926636
      pz      :     1.811522  p :     5.237673
      px      :     1.903510
      py      :     1.522642
      dz2     :     0.002084  d :     0.016371
      dxz     :     0.000813
      dyz     :     0.005269
      dx2y2   :     0.004842
      dxy     :     0.003364
      f0      :     0.000075  f :     0.000683
      f+1     :     0.000004
      f-1     :     0.000121
      f+2     :     0.000180
      f-2     :     0.000064
      f+3     :     0.000109
      f-3     :     0.000130

 13 F s       :     3.927471  s :     3.927471
      pz      :     1.451301  p :     5.236705
      px      :     1.904778
      py      :     1.880625
      dz2     :     0.008346  d :     0.016237
      dxz     :     0.003776
      dyz     :     0.003507
      dx2y2   :     0.000300
      dxy     :     0.000307
      f0      :     0.000330  f :     0.000678
      f+1     :     0.000156
      f-1     :     0.000159
      f+2     :     0.000011
      f-2     :     0.000018
      f+3     :     0.000001
      f-3     :     0.000002

 14 F s       :     3.928738  s :     3.928738
      pz      :     1.705206  p :     5.227598
      px      :     1.900493
      py      :     1.621899
      dz2     :     0.002709  d :     0.016541
      dxz     :     0.001643
      dyz     :     0.006511
      dx2y2   :     0.003108
      dxy     :     0.002570
      f0      :     0.000077  f :     0.000690
      f+1     :     0.000014
      f-1     :     0.000183
      f+2     :     0.000188
      f-2     :     0.000106
      f+3     :     0.000060
      f-3     :     0.000061

 15 F s       :     3.927618  s :     3.927618
      pz      :     1.500788  p :     5.229143
      px      :     1.903791
      py      :     1.824564
      dz2     :     0.006798  d :     0.016553
      dxz     :     0.003357
      dyz     :     0.004942
      dx2y2   :     0.000638
      dxy     :     0.000818
      f0      :     0.000227  f :     0.000688
      f+1     :     0.000110
      f-1     :     0.000232
      f+2     :     0.000050
      f-2     :     0.000060
      f+3     :     0.000005
      f-3     :     0.000004

 16 F s       :     3.928605  s :     3.928605
      pz      :     1.592304  p :     5.220552
      px      :     1.894230
      py      :     1.734018
      dz2     :     0.004530  d :     0.016526
      dxz     :     0.002643
      dyz     :     0.006244
      dx2y2   :     0.001513
      dxy     :     0.001595
      f0      :     0.000119  f :     0.000685
      f+1     :     0.000055
      f-1     :     0.000250
      f+2     :     0.000121
      f-2     :     0.000101
      f+3     :     0.000021
      f-3     :     0.000018

 17 F s       :     3.928877  s :     3.928877
      pz      :     1.601911  p :     5.229018
      px      :     1.901055
      py      :     1.726053
      dz2     :     0.004346  d :     0.016563
      dxz     :     0.002507
      dyz     :     0.006357
      dx2y2   :     0.001665
      dxy     :     0.001688
      f0      :     0.000109  f :     0.000688
      f+1     :     0.000050
      f-1     :     0.000251
      f+2     :     0.000131
      f-2     :     0.000102
      f+3     :     0.000024
      f-3     :     0.000020

 18 F s       :     3.933548  s :     3.933548
      pz      :     1.680467  p :     5.206521
      px      :     1.906674
      py      :     1.619380
      dz2     :     0.003217  d :     0.016914
      dxz     :     0.001464
      dyz     :     0.006190
      dx2y2   :     0.003450
      dxy     :     0.002592
      f0      :     0.000071  f :     0.000677
      f+1     :     0.000008
      f-1     :     0.000185
      f+2     :     0.000185
      f-2     :     0.000094
      f+3     :     0.000062
      f-3     :     0.000071

 19 F s       :     3.929288  s :     3.929288
      pz      :     1.821287  p :     5.226194
      px      :     1.898461
      py      :     1.506446
[...]
      f+1     :     0.000001
      f-1     :     0.000001
      f+2     :     0.000000
      f-2     :     0.000001
      f+3     :     0.000000
      f-3     :     0.000000

 16 F s       :     0.002460  s :     0.002460
      pz      :     0.001380  p :     0.033204
      px      :     0.013062
      py      :     0.018762
      dz2     :     0.000061  d :     0.000118
      dxz     :    -0.000052
      dyz     :     0.000017
      dx2y2   :    -0.000006
      dxy     :     0.000098
      f0      :     0.000005  f :     0.000005
      f+1     :    -0.000000
      f-1     :    -0.000004
      f+2     :     0.000000
      f-2     :     0.000003
      f+3     :     0.000002
      f-3     :    -0.000001

 17 F s       :     0.000254  s :     0.000254
      pz      :    -0.000290  p :     0.008501
      px      :    -0.000145
      py      :     0.008937
      dz2     :    -0.000005  d :    -0.000176
      dxz     :    -0.000168
      dyz     :    -0.000021
      dx2y2   :     0.000017
      dxy     :     0.000001
      f0      :    -0.000002  f :    -0.000013
      f+1     :    -0.000006
      f-1     :    -0.000003
      f+2     :     0.000003
      f-2     :    -0.000005
      f+3     :     0.000000
      f-3     :     0.000000

 18 F s       :     0.003160  s :     0.003160
      pz      :     0.059550  p :     0.094075
      px      :     0.002298
      py      :     0.032226
      dz2     :     0.007166  d :     0.010744
      dxz     :     0.000033
      dyz     :     0.001058
      dx2y2   :     0.002363
      dxy     :     0.000123
      f0      :     0.000124  f :     0.000577
      f+1     :     0.000001
      f-1     :     0.000346
      f+2     :     0.000016
      f-2     :     0.000006
      f+3     :     0.000007
      f-3     :     0.000077

 19 F s       :     0.000997  s :     0.000997
      pz      :     0.003325  p :     0.009482
      px      :    -0.000522
      py      :     0.006678
      dz2     :    -0.000009  d :    -0.000250
      dxz     :     0.000051
      dyz     :    -0.000055
      dx2y2   :    -0.000025
      dxy     :    -0.000212
      f0      :    -0.000001  f :    -0.000012
      f+1     :    -0.000001
      f-1     :    -0.000002
      f+2     :    -0.000002
      f-2     :     0.000003
      f+3     :    -0.000011
      f-3     :     0.000001

 20 F s       :     0.000903  s :     0.000903
      pz      :     0.002443  p :     0.011756
      px      :     0.008775
      py      :     0.000538
      dz2     :    -0.000109  d :    -0.000193
      dxz     :    -0.000042
      dyz     :    -0.000037
      dx2y2   :    -0.000004
      dxy     :    -0.000000
      f0      :    -0.000005  f :    -0.000009
      f+1     :    -0.000001
      f-1     :    -0.000001
      f+2     :    -0.000002
      f-2     :    -0.000002
      f+3     :     0.000000
      f-3     :     0.000001

 21 F s       :     0.000090  s :     0.000090
      pz      :     0.000212  p :     0.000915
      px      :     0.001071
      py      :    -0.000368
      dz2     :     0.000005  d :     0.000168
      dxz     :     0.000008
      dyz     :     0.000081
      dx2y2   :     0.000085
      dxy     :    -0.000010
      f0      :     0.000002  f :     0.000010
      f+1     :    -0.000000
      f-1     :     0.000001
      f+2     :     0.000005
      f-2     :     0.000000
      f+3     :     0.000001
      f-3     :     0.000002

 22 F s       :     0.000293  s :     0.000293
      pz      :     0.003645  p :     0.006206
      px      :     0.002058
      py      :     0.000504
      dz2     :     0.000002  d :     0.000275
      dxz     :     0.000179
      dyz     :     0.000007
      dx2y2   :     0.000067
      dxy     :     0.000020
      f0      :     0.000003  f :     0.000014
      f+1     :    -0.000000
      f-1     :     0.000001
      f+2     :     0.000006
      f-2     :     0.000001
      f+3     :     0.000004
      f-3     :     0.000000

 23 F s       :     0.000123  s :     0.000123
      pz      :    -0.000571  p :     0.001254
      px      :     0.000928
      py      :     0.000898
      dz2     :     0.000075  d :     0.000179
      dxz     :     0.000048
      dyz     :     0.000029
      dx2y2   :     0.000017
      dxy     :     0.000009
      f0      :     0.000004  f :     0.000010
      f+1     :     0.000004
      f-1     :     0.000000
      f+2     :     0.000000
      f-2     :     0.000001
      f+3     :     0.000000
      f-3     :     0.000001



                      *****************************
                      * MAYER POPULATION ANALYSIS *
                      *****************************

  NA   - Mulliken gross atomic population
  ZA   - Total nuclear charge
  QA   - Mulliken gross atomic charge
  VA   - Mayer's total valence
  BVA  - Mayer's bonded valence
  FA   - Mayer's free valence

  ATOM       NA         ZA         QA         VA         BVA        FA
  0 C      5.7880     6.0000     0.2120     4.5855     4.5855     0.0000
  1 O      8.5100     8.0000    -0.5100     1.9575     1.9575     0.0000
  2 O      8.5232     8.0000    -0.5232     1.9433     1.9433     0.0000
  3 C      5.6533     6.0000     0.3467     3.9009     3.9009     0.0000
  4 C      5.7024     6.0000     0.2976     4.1299     4.1299     0.0000
  5 C      5.6695     6.0000     0.3305     4.1531     4.1530     0.0000
  6 C      5.6323     6.0000     0.3677     4.2299     4.2273     0.0026
  7 C      5.8995     6.0000     0.1005     3.9044     3.2904     0.6140
  8 C      5.6451     6.0000     0.3549     4.2828     4.2794     0.0034
  9 C      5.5228     6.0000     0.4772     4.4354     4.4348     0.0007
 10 F      9.2082     9.0000    -0.2082     1.0779     1.0779     0.0000
 11 F      9.2139     9.0000    -0.2139     1.0657     1.0657     0.0000
 12 F      9.1789     9.0000    -0.1789     1.1318     1.1318     0.0000
 13 F      9.1869     9.0000    -0.1869     1.1219     1.1219     0.0000
 14 F      9.1751     9.0000    -0.1751     1.1383     1.1383     0.0000
 15 F      9.1732     9.0000    -0.1732     1.1434     1.1434     0.0000
 16 F      9.1767     9.0000    -0.1767     1.1253     1.1240     0.0013
 17 F      9.1770     9.0000    -0.1770     1.1291     1.1290     0.0001
 18 F      9.1456     9.0000    -0.1456     1.1914     1.1806     0.0107
 19 F      9.1693     9.0000    -0.1693     1.1403     1.1401     0.0002
 20 F      9.1673     9.0000    -0.1673     1.1434     1.1431     0.0002
 21 F      9.1628     9.0000    -0.1628     1.1549     1.1549     0.0000
 22 F      9.1573     9.0000    -0.1573     1.1611     1.1610     0.0000
 23 F      9.1615     9.0000    -0.1615     1.1586     1.1586     0.0000

  Mayer bond orders larger than 0.100000
B(  0-C ,  1-O ) :   1.8538 B(  0-C ,  2-O ) :   1.8258 B(  0-C ,  3-C ) :   0.8351 
B(  3-C ,  4-C ) :   0.9292 B(  3-C , 10-F ) :   1.0340 B(  3-C , 11-F ) :   1.0253 
B(  4-C ,  5-C ) :   0.9194 B(  4-C , 12-F ) :   1.0703 B(  4-C , 13-F ) :   1.0618 
B(  5-C ,  6-C ) :   0.9293 B(  5-C , 14-F ) :   1.0698 B(  5-C , 15-F ) :   1.0712 
B(  6-C ,  7-C ) :   1.0427 B(  6-C , 16-F ) :   1.0694 B(  6-C , 17-F ) :   1.0502 
B(  7-C ,  8-C ) :   1.0275 B(  7-C , 18-F ) :   1.1075 B(  8-C ,  9-C ) :   0.9519 
B(  8-C , 19-F ) :   1.0808 B(  8-C , 20-F ) :   1.0844 B(  9-C , 21-F ) :   1.1241 
B(  9-C , 22-F ) :   1.1305 B(  9-C , 23-F ) :   1.1311 

-------
TIMINGS
-------

Total SCF time: 0 days 0 hours 0 min 37 sec 

Total time                  ....      37.723 sec
Sum of individual times     ....      36.839 sec  ( 97.7%)

SCF preparation             ....       1.182 sec  (  3.1%)
Fock matrix formation       ....      29.706 sec  ( 78.7%)
  Startup                   ....       0.151 sec  (  0.5% of F)
  Split-RI-J                ....       2.014 sec  (  6.8% of F)
  Chain of spheres X        ....      18.133 sec  ( 61.0% of F)
  XC integration            ....       7.336 sec  ( 24.7% of F)
    Basis function eval.    ....       0.472 sec  (  6.4% of XC)
    Density eval.           ....       2.213 sec  ( 30.2% of XC)
    XC-Functional eval.     ....       0.146 sec  (  2.0% of XC)
    XC-Potential eval.      ....       2.051 sec  ( 28.0% of XC)
  CPCM terms                ....       1.647 sec  (  5.5% of F)
Diagonalization             ....       0.000 sec  (  0.0%)
Density matrix formation    ....       0.419 sec  (  1.1%)
Total Energy calculation    ....       0.265 sec  (  0.7%)
Population analysis         ....       0.312 sec  (  0.8%)
Orbital Transformation      ....       0.837 sec  (  2.2%)
Orbital Orthonormalization  ....       0.000 sec  (  0.0%)
DIIS solution               ....       3.144 sec  (  8.3%)
SOSCF solution              ....       0.975 sec  (  2.6%)
Finished LeanSCF after  38.0 sec

Maximum memory used throughout the entire LEANSCF-calculation: 105.3 MB


-------------------------------------------------------------------------------
                          DFT DISPERSION CORRECTION                            
                                                                               
                              DFTD3 V3.1  Rev 1                                
                          USING Becke-Johnson damping                          
-------------------------------------------------------------------------------
The R2SCANh functional is recognized
Active option DFTDOPT                   ...         4   

molecular C6(AA) [au] = 6297.653749 


            DFT-D V3
 parameters
 s6 scaling factor         :     1.0000 
 a1 scaling factor         :     0.4709 
 s8 scaling factor         :     1.1236 
 a2 scaling factor         :     5.9157 
 ad hoc parameters k1-k3   :    16.0000     1.3333    -4.0000 

 Edisp/kcal,au: -5.093955878277  -0.008117734545 
 E6   /kcal   :  -3.712230044 
 E8   /kcal   :  -1.381725834 
 % E8         :  27.124809620 

-------------------------   ----------------
Dispersion correction           -0.008117735
-------------------------   ----------------


-------------------------   --------------------
FINAL SINGLE POINT ENERGY     -1853.116928728198
-------------------------   --------------------

                                *** OPTIMIZATION RUN DONE ***



           ************************************************************
           *        Program running with 20 parallel MPI-processes    *
           *              working on a common directory               *
           ************************************************************

------------------------------------------------------------------------------
                              ORCA PROPERTY CALCULATIONS
------------------------------------------------------------------------------

GBWName                                 ... rf_mecn_opt_r2s_C6_D_B.gbw
Number of atoms                         ...     24
Number of basis functions               ...    744
Max core memory                         ...   8000 MB

Electric properties:
Dipole moment                           ... YES
Quadrupole moment                       ...  NO
Static polarizability (Dipole/Dipole)   ...  NO
Static polarizability (Dipole/Quad.)    ...  NO
Static polarizability (Quad./Quad.)     ...  NO
Static polarizability (Velocity)        ...  NO

Atomic electric properties:
Dipole moment                           ...  NO
Quadrupole moment                       ...  NO
Static polarizability                   ...  NO

Choice of electric origin               ... Center of mass
Position of electric origin             ...     0.067586     0.043556     0.111498

General magnetic properties:
Magnetizability                         ...  NO

EPR properties:
g-Tensor (aka g-matrix)                 ...  NO
Zero-Field splitting spin-orbit         ...  NO
Zero-field splitting spin-spin          ...  NO
Hyperfine couplings                     ...  NO (   0 nuclei)
Quadrupole couplings                    ...  NO (   0 nuclei)
Contact density                         ...  NO (   0 nuclei)

NMR properties:
Chemical shifts                         ...  NO (   0 nuclei)
Spin-rotation constants                 ...  NO (   0 nuclei)
Spin-spin couplings                     ...  NO (   0 nuclei,    0 pairs)

Choice of magnetic origin               ... GIAO
Position of magnetic origin             ...     0.000000     0.000000     0.000000

Properties with geometric perturbations:
SCF Hessian                             ...  NO
IR spectrum                             ...  NO
VCD spectrum                            ...  NO
X-ray spectroscopy properties:
SCF XES/XAS/RIXS spectra                ...  NO


-------------
DIPOLE MOMENT
-------------

Method             : SCF
Type of density    : Electron Density
Multiplicity       :   2
Irrep              :   0
Energy             : -1853.1088109936524688 Eh
Relativity type    : 
Basis              : AO
                                X                 Y                 Z
Electronic contribution:    -16.769360016      -0.055373297       3.790935708
Nuclear contribution   :      8.572721258      -0.000535590      -1.878189195
                        -----------------------------------------
Total Dipole Moment    :     -8.196638758      -0.055908887       1.912746513
                        -----------------------------------------
Magnitude (a.u.)       :      8.417042946
Magnitude (Debye)      :     21.394422926



--------------------
Rotational spectrum 
--------------------
 
Rotational constants in cm-1:             0.019289             0.004255             0.004192 
Rotational constants in MHz :           578.277092           127.560195           125.659726 

Dipole components along the rotational axes: 
x,y,z [a.u.] :    -8.239228    -1.598055    -0.638714 
x,y,z [Debye]:   -20.942453    -4.061932    -1.623482 

 

Dipole moment calculation done in   0.1 sec 

Maximum memory used throughout the entire PROP-calculation: 54.5 MB

--------------------------------
SUGGESTED CITATIONS FOR THIS RUN
--------------------------------

Below you find a list of papers that are relevant to this ORCA run
We neither can nor want to force you to cite these papers, but we appreciate if you do
You receive ORCA, which is the product of decades of hard work by many enthusiastic individuals, for free
The only thing we kindly ask in return is that you cite our papers,
We deeply appreciate it, if you show your appreciation for ORCA by not just citing the generic ORCA reference.

Please note that relegating all ORCA citations to the supporting information does *not* help us.
SI sections are not indexed - citations you put there will not count into any citation statistics
But we need these citations in order to attract the funding resources that allow us to do what we are doing

Therefore, if you are a happy ORCA user, please consider citing a few of the papers listed below in the main body of your paper

In addition to the list printed below, the program has created the file rf_mecn_opt_r2s_C6_D_B.bibtex that contains the list in bibtex format
You can import this file easily into all common literature databanks and citation aid programs


List of essential papers. We consider these as the minimum necessary citations

  1. Neese,F.
     Software update: the ORCA program system, version 5.0
     WIRES Comput. Molec. Sci., 2022 12(1)e1606
     doi.org/10.1002/wcms.1606

List of papers to cite with high priority. The work reported in these papers was absolutely
necessary for this run to complete.
Our perspective: the developers of density functionals and basis sets usually get cited in chemistry papers
Good! But without the algorithms to do something with them, the functionals or basis sets would not do anything.
Hence, in our opinion, the algorithm design and method developments papers are equally worthy of getting cited

  1. Neese,F.
     An improvement of the resolution of the identity approximation for the formation of the Coulomb matrix
     J. Comp. Chem., 2003 24(14)1740-1747
     doi.org/10.1002/jcc.10318
  2. Neese,F.; Wennmohs,F.; Hansen,A.; Becker,U.
     Efficient, approximate and parallel Hartree-Fock and hybrid DFT calculations. A 'chain-of-spheres' algorithm for the Hartree-Fock exchange
     Chem. Phys., 2009 356(1-3)98-109
     doi.org/10.1016/j.chemphys.2008.10.036
  3. Garcia-Rates,M.; Neese,F.
     Effect of the Solute Cavity on the Solvation Energy and its Derivatives within the Framework of the Gaussian Charge Scheme
     J. Comput. Chem., 2020 41 922-939
     doi.org/10.1002/jcc.26139
  4. Helmich-Paris,B.; de Souza,B.; Neese,F.; Izsák,R.
     An improved chain of spheres for exchange algorithm
     J. Chem. Phys., 2021 155 104109
     doi.org/doi: 10.1063/5.0058766.
  5. Neese,F.
     The SHARK Integral Generation and Digestion System
     J. Comp. Chem., 2022  1-16
     doi.org/10.1002/jcc.26942
  6. Lehtola,S.; Steigemann,C.; Oliveira,M.; Marques,M.
     Recent developments in Libxc - A comprehensive library of functionals for density functional theory
     Software X, 2018 7 
     doi.org/10.1016/j.softx.2017.11.002
  7. Grimme,S.; Antony,J.; Ehrlich,S.; Krieg,H.
     A consistent and accurate ab initio parametrization of density functional dispersion correction (DFT-D) for the 94 elements H-Pu
     J. Chem. Phys., 2010 132 154104
     doi.org/10.1063/1.3382344
  8. Grimme,S.; Ehrlich,S.; Goerigk,L.
     Effect of the damping function in dispersion corrected density functional theory
     J. Comput. Chem., 2011 32(7)1456-1465
     doi.org/10.1002/jcc.21759
  9. Bursch,M.; Neugebauer,H.; Ehlert,S.; Grimme,S.
     Dispersion corrected r2SCAN based global hybrid functionals: r2SCANh, r2SCAN0, and r2SCAN50
     J. Phys. Chem., 2022 156(13)134105
     doi.org/10.1063/5.0086040

List of suggested additional citations. These are papers that are important in the 'surrounding' of 
of this run, or papers that preceded the highly important papers. If you like your results we are grateful for a citation.

  1. Izsak,R.; Neese,F.
     An overlap fitted chain of spheres exchange method
     J. Chem. Phys., 2011 135 144105
     doi.org/10.1063/1.3646921
  2. Izsak,R.; Hansen,A.; Neese,F.
     The resolution of identity and chain of spheres approximations for the LPNO-CCSD singles Fock term
     Molec. Phys., 2012 110 2413-2417
     doi.org/10.1080/00268976.2012.687466
  3. Neese,F.
     The ORCA program system
     WIRES Comput. Molec. Sci., 2012 2(1)73-78
     doi.org/10.1002/wcms.81
  4. Izsak,R.; Neese,F.; Klopper,W.
     Robust fitting techniques in the chain of spheres approximation to the Fock exchange: The role of the complementary space
     J. Chem. Phys., 2013 139 
     doi.org/10.1063/1.4819264
  5. Neese,F.
     Software update: the ORCA program system, version 4.0
     WIRES Comput. Molec. Sci., 2018 8(1)1-6
     doi.org/10.1002/wcms.1327
  6. Neese,F.; Wennmohs,F.; Becker,U.; Riplinger,C.
     The ORCA quantum chemistry program package
     J. Chem. Phys., 2020 152 Art. No. L224108
     doi.org/10.1063/5.0004608
  7. Wittmann,L.; Neugebauer,H.; Grimme,S.; Bursch,M.
     Dispersion-corrected r2SCAN based double-hybrid functionals
     J. Chem. Phys., 2023 159(22)224103
     doi.org/10.1063/5.0174988

List of optional additional citations

  1. Neese,F.
     Approximate second-order SCF convergence for spin unrestricted wavefunctions
     Chem. Phys. Lett., 2000 325(1-3)93-98
     doi.org/10.1016/s0009-2614(00)00662-x

Timings for individual modules:

Sum of individual times          ...     1907.024 sec (=  31.784 min)
Startup calculation              ...       88.683 sec (=   1.478 min)   4.7 %
SCF iterations                   ...     1392.168 sec (=  23.203 min)  73.0 %
Property calculations            ...        0.818 sec (=   0.014 min)   0.0 %
SCF Gradient evaluation          ...      425.021 sec (=   7.084 min)  22.3 %
Geometry relaxation              ...        0.335 sec (=   0.006 min)   0.0 %
                             ****ORCA TERMINATED NORMALLY****
TOTAL RUN TIME: 0 days 0 hours 32 minutes 2 seconds 180 msec
