
                                 *****************
                                 * O   R   C   A *
                                 *****************

                                            #,                                       
                                            ###                                      
                                            ####                                     
                                            #####                                    
                                            ######                                   
                                           ########,                                 
                                     ,,################,,,,,                         
                               ,,#################################,,                 
                          ,,##########################################,,             
                       ,#########################################, ''#####,          
                    ,#############################################,,   '####,        
                  ,##################################################,,,,####,       
                ,###########''''           ''''###############################       
              ,#####''   ,,,,##########,,,,          '''####'''          '####       
            ,##' ,,,,###########################,,,                        '##       
           ' ,,###''''                  '''############,,,                           
         ,,##''                                '''############,,,,        ,,,,,,###''
      ,#''                                            '''#######################'''  
     '                                                          ''''####''''         
             ,#######,   #######,   ,#######,      ##                                
            ,#'     '#,  ##    ##  ,#'     '#,    #''#        ,####,   ,####,        
            ##       ##  ##   ,#'  ##            #'  '#       #'       #'  '#        
            ##       ##  #######   ##           ,######,      #####,   #    #        
            '#,     ,#'  ##    ##  '#,     ,#' ,#      #,     #,   #   #,  ,#        
             '#######'   ##     ##  '#######'  #'      '#     '####' # '####'        



                #########################################################
                #                        -***-                          #
                #          Department of theory and spectroscopy        #
                #                                                       #
                #                      Frank Neese                      #
                #                                                       #
                #     Directorship, Architecture, Infrastructure        #
                #                    SHARK, DRIVERS                     #
                #        Core code/Algorithms in most modules           #
                #                                                       #
                #        Max Planck Institute fuer Kohlenforschung      #
                #                Kaiser Wilhelm Platz 1                 #
                #                 D-45470 Muelheim/Ruhr                 #
                #                      Germany                          #
                #                                                       #
                #                  All rights reserved                  #
                #                        -***-                          #
                #########################################################


                         Program Version 6.0.1  -  RELEASE   -


 With contributions from (in alphabetic order):
[Max-Planck-Institut fuer Kohlenforschung]                               
  Daniel Aravena         : Magnetic Suceptibility                        
  Michael Atanasov       : Ab Initio Ligand Field Theory (pilot matlab implementation)
  Alexander A. Auer      : GIAO ZORA, VPT2 properties, NMR spectrum      
  Ute Becker             : All parallelization in ORCA, NUMFREQ, NUMCALC 
  Giovanni Bistoni       : ED, misc. LED, open-shell LED, HFLD           
  Martin Brehm           : Molecular dynamics                            
  Dmytro Bykov           : pre 5.0 version of the SCF Hessian            
  Marcos Casanova-Páez   : Triplet and SCS-CIS(D). UHF-(DLPNO)-IP/EA/STEOM-CCSD. UHF-CVS-IP/STEOM-CCSD   
  Vijay G. Chilkuri      : MRCI spin determinant printing, contributions to CSF-ICE 
  Pauline Colinet        : FMM embedding                                 
  Dipayan Datta          : RHF DLPNO-CCSD density                        
  Achintya Kumar Dutta   : EOM-CC, STEOM-CC                              
  Nicolas Foglia         : Exact transition moments, OPA infrastructure, MCD improvements    
  Dmitry Ganyushin       : Spin-Orbit,Spin-Spin,Magnetic field MRCI      
  Miquel Garcia-Rates    : C-PCM and meta-GGA Hessian, CCSD/C-PCM, Gaussian charge scheme 
  Tiago L. C. Gouveia    : GS-ROHF, GS-ROCIS                             
  Yang Guo               : DLPNO-NEVPT2, F12-NEVPT2, CIM, IAO-localization        
  Andreas Hansen         : Spin unrestricted coupled pair/coupled cluster methods 
  Ingolf Harden          : AUTO-CI MPn and infrastructure                
  Benjamin Helmich-Paris : MC-RPA, TRAH-(SCF,CASSCF), AVAS, COSX integrals, SCF dyn. polar. 
  Lee Huntington         : MR-EOM, pCC                                   
  Robert Izsak           : Overlap fitted RIJCOSX, COSX-SCS-MP3, EOM     
  Riya Kayal             : Wick's Theorem for AUTO-CI, AUTO-CI UHF-CCSDT 
  Emily Kempfer          : AUTO-CI, RHF CISDT and CCSDT                  
  Christian Kollmar      : KDIIS, OOCD, Brueckner-CCSD(T), CCSD density, CASPT2, CASPT2-K, improved NEVPT2 
  Axel Koslowski         : Symmetry handling                             
  Simone Kossmann        : meta-GGA functionals, TD-DFT gradient, OOMP2, (MP2 Hessian; deprecated post 5.0) 
  Lucas Lang             : DCDCAS                                        
  Marvin Lechner         : AUTO-CI (C++ implementation), FIC-MRCC        
  Spencer Leger          : CASSCF response                               
  Dagmar Lenk            : GEPOL surface, SMD, ORCA-2-JSON               
  Dimitrios Liakos       : Extrapolation schemes; Compound Job, initial MDCI parallelization 
  Dimitrios Manganas     : Further ROCIS development; embedding schemes. LFT, Crystal Embedding 
  Dimitrios Pantazis     : SARC Basis sets                               
  Anastasios Papadopoulos: AUTO-CI, single reference methods and gradients 
  Taras Petrenko         : pre 6.0 DFT Hessian and TD-DFT gradient, (ASA, deprecated), ECA, 1-Electron XAS/XES, NRVS 
  Peter Pinski           : DLPNO-MP2, DLPNO-MP2 Gradient                 
  Christoph Reimann      : Effective Core Potentials                     
  Marius Retegan         : Local ZFS, SOC                                
  Christoph Riplinger    : Optimizer, TS searches, QM/MM, DLPNO-CCSD(T), (RO)-DLPNO pert. Triples 
  Michael Roemelt        : Original ROCIS implementation                 
  Masaaki Saitow         : Open-shell DLPNO-CCSD energy and density      
  Barbara Sandhoefer     : DKH picture change effects                    
  Kantharuban Sivalingam : CASSCF convergence/infrastructure, NEVPT2 and variants, FIC-MRCI 
  Bernardo de Souza      : ESD, SOC TD-DFT                               
  Georgi L. Stoychev     : AutoAux, RI-MP2 NMR, DLPNO-MP2 response, X2C  
  Van Anh Tran           : RI-MP2 g-tensors                              
  Willem Van den Heuvel  : Paramagnetic NMR                              
  Zikuan Wang            : NOTCH, Electric field optimization            
  Frank Wennmohs         : Technical directorship and infrastructure     
  Hang Xu                : AUTO-CI-Response properties                   
                                                                         
[FACCTs GmbH]                                                            
  Markus Bursch, Miquel Garcia-Rates, Christoph Riplinger, Bernardo de Souza, Georgi L. Stoychev 
                                                                 
  APM, Basis sets (HGBS, AHGBS, def-TZVP (Ac-Lr), def2-XVPD (La-Lu)), CI-OPT, improved COSX, DLPNO-Multilevel,           
  DOCKER, DRACO, updates on ESD, GOAT, IRC, LR-CPCM, MBIS, meta-GGA TD-DFT gradient, ML-optimized integration grids, 
  MM, NACMEs, nearIR, NEB, NEB-TS, NL-DFT gradient (VV10), 2- and 3-layer-ONIOM, interface openCOSMO-RS, QMMM,   
  Crystal-QMMM, SF, symmetry and pop. for TD-DFT, r2SCAN hybrids, SOLVATOR                                   
                                                                         
[Other institutions]                                                     
  V. Asgeirsson          : NEB                                           
  Christoph Bannwarth    : sTDA-DFT, sTD-DFT, PBEh-3c, B97-3c, D3        
  Sebastian Ehlert       : rSCAN, r2SCAN, r2SCAN-3c, D4, dhf basis sets  
  Marvin Friede          : D4 for Fr, Ra, Ac-Lr                          
  Lars Goerigk           : TD-DFT with DH, B97 family of functionals     
  Stefan Grimme          : VdW corrections, initial TS optimization, DFT functionals, gCP, sTDA/sTD-DF 
  Waldemar Hujo          : DFT-NL                                        
  H. Jonsson             : NEB                                           
  Holger Kruse           : gCP                                           
  Marcel Mueller         : wB97X-3c, vDZP basis set                      
  Hagen Neugebauer       : wr2SCAN                                       
  Tobias Risthaus        : range-separated hybrid DFT                    
  Lukas Wittmann         : regularized MP2, r2SCAN double-hybrids, wr2SCAN        
                                                                         
We gratefully acknowledge several colleagues who have allowed us to      
interface, adapt or use parts of their codes:                            
  Ed Valeev, F. Pavosevic, A. Kumar             : LibInt (2-el integral package), F12 methods 
  Garnet Chan, S. Sharma, J. Yang, R. Olivares  : DMRG                   
  Ulf Ekstrom                                   : XCFun DFT Library      
  Mihaly Kallay                                 : mrcc  (arbitrary order and MRCC methods)
  Frank Weinhold                                : gennbo (NPA and NBO analysis)           
  Simon Mueller                                 : openCOSMO-RS                            
  Christopher J. Cramer and Donald G. Truhlar   : smd solvation model                     
  S Lehtola, MJT Oliveira, MAL Marques          : LibXC Library                           
  Liviu Ungur et al                             : ANISO software                          


 Your calculation uses the libint2 library for the computation of 2-el integrals
 For citations please refer to: http://libint.valeyev.net

 Your ORCA version has been built with support for libXC version: 6.2.2
 For citations please refer to: https://libxc.gitlab.io

 This ORCA versions uses:
   CBLAS   interface :  Fast vector & matrix operations
   LAPACKE interface :  Fast linear algebra routines
   SCALAPACK package :  Parallel linear algebra routines
   Shared memory     :  Shared parallel matrices
   BLAS/LAPACK       :  OpenBLAS 0.3.27  USE64BITINT DYNAMIC_ARCH NO_AFFINITY SkylakeX SINGLE_THREADED
        Core in use  :  SkylakeX
   Copyright (c) 2011-2014, The OpenBLAS Project


NOTE: MaxCore=8000 MB was set to SCF,MP2,MDCI,CIPSI,MRCI and CIS
      => If you want to overwrite this, your respective input block should be placed after the MaxCore statement
Your calculation utilizes the atom-pairwise dispersion correction
with the Becke-Johnson damping scheme (D3BJ)


Your calculation utilizes the SMD solvation module
Please cite in your paper:
A.V. Marenich, C.J. Cramer, D.G. Truhlar J. Phys. Chem. B, 113, (2009), 6378 

Warning: RI is on but no J-basis has been assigned. Assigning Def2/J (nothing to worry about!)
================================================================================

----- Orbital basis set information -----
Your calculation utilizes the basis: def2-TZVP
   F. Weigend and R. Ahlrichs, Phys. Chem. Chem. Phys. 7, 3297 (2005).

----- AuxJ basis set information -----
Your calculation utilizes the auxiliary basis: def2/J
   F. Weigend, Phys. Chem. Chem. Phys. 8, 1057 (2006).

================================================================================
                                        WARNINGS
                       Please study these warnings very carefully!
================================================================================


WARNING: your system is open-shell and RHF/RKS was chosen
  ===> : WILL SWITCH to UHF/UKS


================================================================================
                                       INPUT FILE
================================================================================
NAME = rf_mecn_freq_TP_C6_P_B.inp
|  1> !TPSSh def2-TZVP freq d3 TightSCF SlowConv defgrid2
|  2>  
|  3> %pal
|  4> nprocs 20
|  5> end
|  6>  
|  7> %scf
|  8> MaxIter 1500
|  9> end
| 10>  
| 11> %maxcore 8000
| 12>  
| 13> !CPCM
| 14> %cpcm smd true
| 15> SMDsolvent "ACETONITRILE"
| 16> end
| 17>  
| 18> * xyz 0 2
| 19> 6        4.673008000     -0.291836000      0.064955000
| 20> 8        5.058702000     -1.259021000     -0.756468000
| 21> 8        5.306029000      0.668564000      0.410143000
| 22> 6        3.219799000     -0.527107000      0.558023000
| 23> 6        2.190350000      0.247447000     -0.325552000
| 24> 6        0.703525000     -0.196795000     -0.125596000
| 25> 6       -0.365232000      0.841997000     -0.608927000
| 26> 6       -1.751913000      0.272342000     -0.689486000
| 27> 6       -2.851891000      0.509509000      0.294155000
| 28> 6       -4.021332000     -0.515963000      0.194709000
| 29> 9        2.905288000     -1.844726000      0.541519000
| 30> 9        3.125286000     -0.080686000      1.828921000
| 31> 9        2.310002000      1.564952000     -0.051435000
| 32> 9        2.522047000      0.052116000     -1.623828000
| 33> 9        0.505713000     -1.344433000     -0.812891000
| 34> 9        0.478253000     -0.439126000      1.184332000
| 35> 9       -0.366490000      1.889886000      0.249499000
| 36> 9        0.008814000      1.280421000     -1.840563000
| 37> 9       -2.055595000     -0.364050000     -1.809320000
| 38> 9       -3.401853000      1.753747000      0.145244000
| 39> 9       -2.358098000      0.446748000      1.557736000
| 40> 9       -3.552614000     -1.765679000      0.289932000
| 41> 9       -4.878520000     -0.302677000      1.196924000
| 42> 9       -4.677590000     -0.385446000     -0.961817000
| 43> 1        5.970632000     -1.073214000     -1.061909000
| 44> *
| 45> 
| 46>                          ****END OF INPUT****
================================================================================

                       ****************************
                       * Single Point Calculation *
                       ****************************

---------------------------------
CARTESIAN COORDINATES (ANGSTROEM)
---------------------------------
  C      4.673008   -0.291836    0.064955
  O      5.058702   -1.259021   -0.756468
  O      5.306029    0.668564    0.410143
  C      3.219799   -0.527107    0.558023
  C      2.190350    0.247447   -0.325552
  C      0.703525   -0.196795   -0.125596
  C     -0.365232    0.841997   -0.608927
  C     -1.751913    0.272342   -0.689486
  C     -2.851891    0.509509    0.294155
  C     -4.021332   -0.515963    0.194709
  F      2.905288   -1.844726    0.541519
  F      3.125286   -0.080686    1.828921
  F      2.310002    1.564952   -0.051435
  F      2.522047    0.052116   -1.623828
  F      0.505713   -1.344433   -0.812891
  F      0.478253   -0.439126    1.184332
  F     -0.366490    1.889886    0.249499
  F      0.008814    1.280421   -1.840563
  F     -2.055595   -0.364050   -1.809320
  F     -3.401853    1.753747    0.145244
  F     -2.358098    0.446748    1.557736
  F     -3.552614   -1.765679    0.289932
  F     -4.878520   -0.302677    1.196924
  F     -4.677590   -0.385446   -0.961817
  H      5.970632   -1.073214   -1.061909

----------------------------
CARTESIAN COORDINATES (A.U.)
----------------------------
  NO LB      ZA    FRAG     MASS         X           Y           Z
   0 C     6.0000    0    12.011    8.830705   -0.551490    0.122747
   1 O     8.0000    0    15.999    9.559561   -2.379205   -1.429517
   2 O     8.0000    0    15.999   10.026942    1.263403    0.775058
   3 C     6.0000    0    12.011    6.084538   -0.996088    1.054511
   4 C     6.0000    0    12.011    4.139162    0.467607   -0.615204
   5 C     6.0000    0    12.011    1.329470   -0.371889   -0.237342
   6 C     6.0000    0    12.011   -0.690188    1.591144   -1.150705
   7 C     6.0000    0    12.011   -3.310636    0.514652   -1.302940
   8 C     6.0000    0    12.011   -5.389293    0.962832    0.555872
   9 C     6.0000    0    12.011   -7.599216   -0.975029    0.367947
  10 F     9.0000    0    18.998    5.490199   -3.486027    1.023323
  11 F     9.0000    0    18.998    5.905935   -0.152474    3.456160
  12 F     9.0000    0    18.998    4.365271    2.957331   -0.097198
  13 F     9.0000    0    18.998    4.765978    0.098485   -3.068590
  14 F     9.0000    0    18.998    0.955659   -2.540610   -1.536141
  15 F     9.0000    0    18.998    0.903767   -0.829828    2.238063
  16 F     9.0000    0    18.998   -0.692566    3.571367    0.471485
  17 F     9.0000    0    18.998    0.016656    2.419645   -3.478160
  18 F     9.0000    0    18.998   -3.884512   -0.687955   -3.419119
  19 F     9.0000    0    18.998   -6.428571    3.314102    0.274471
  20 F     9.0000    0    18.998   -4.456159    0.844231    2.943694
  21 F     9.0000    0    18.998   -6.713468   -3.336650    0.547892
  22 F     9.0000    0    18.998   -9.219067   -0.571977    2.261859
  23 F     9.0000    0    18.998   -8.839364   -0.728387   -1.817571
  24 H     1.0000    0     1.008   11.282859   -2.028081   -2.006717

--------------------------------
INTERNAL COORDINATES (ANGSTROEM)
--------------------------------
 C      0   0   0     0.000000000000     0.00000000     0.00000000
 O      1   0   0     1.326251269854     0.00000000     0.00000000
 O      1   2   0     1.200932346881   127.44016845     0.00000000
 C      1   2   3     1.552509225012   111.00223511   179.27857366
 C      4   1   2     1.562179222478   111.22698043   265.17835778
 C      5   4   1     1.564602804908   114.40358457   165.96532913
 C      6   5   4     1.566824559379   114.86864517   160.52601741
 C      7   6   5     1.501293031779   113.26769290   167.11448501
 C      8   7   6     1.494573318126   125.75122923   103.44955023
 C      9   8   7     1.558548870642   113.94330220   197.07588716
 F      4   1   2     1.354735907953   111.15112165    26.58256889
 F      4   1   2     1.350335566744   108.32014964   145.65253115
 F      5   4   1     1.351027814598   108.08294500   288.32672749
 F      5   4   1     1.354140934890   108.01898974    45.26366889
 F      6   5   4     1.352248861494   108.36242235   281.14613857
 F      6   5   4     1.351067412356   109.46816348    39.22381670
 F      7   6   5     1.354609957280   108.54328671   288.40002143
 F      7   6   5     1.359798974256   107.79013645    46.26868002
 F      8   7   6     1.323346410561   116.09376931   275.21631413
 F      9   8   7     1.368488541424   111.61915745    75.94527895
 F      9   8   7     1.358089619109   109.71918443   317.73444189
 F     10   9   8     1.338115863410   110.31172598    54.30975366
 F     10   9   8     1.335925556072   109.17991631   173.68729604
 F     10   9   8     1.336136833760   111.06920193   293.39071131
 H      2   1   3     0.979507412238   108.99886491   359.67998751

---------------------------
INTERNAL COORDINATES (A.U.)
---------------------------
 C      0   0   0     0.000000000000     0.00000000     0.00000000
 O      1   0   0     2.506251684790     0.00000000     0.00000000
 O      1   2   0     2.269433240972   127.44016845     0.00000000
 C      1   2   3     2.933817255658   111.00223511   179.27857366
 C      4   1   2     2.952090902585   111.22698043   265.17835778
 C      5   4   1     2.956670809641   114.40358457   165.96532913
 C      6   5   4     2.960869317129   114.86864517   160.52601741
 C      7   6   5     2.837032676826   113.26769290   167.11448501
 C      8   7   6     2.824334258324   125.75122923   103.44955023
 C      9   8   7     2.945230531847   113.94330220   197.07588716
 F      4   1   2     2.560079849821   111.15112165    26.58256889
 F      4   1   2     2.551764410040   108.32014964   145.65253115
 F      5   4   1     2.553072568901   108.08294500   288.32672749
 F      5   4   1     2.558955513675   108.01898974    45.26366889
 F      6   5   4     2.555380013131   108.36242235   281.14613857
 F      6   5   4     2.553147397818   109.46816348    39.22381670
 F      7   6   5     2.559841837541   108.54328671   288.40002143
 F      7   6   5     2.569647658531   107.79013645    46.26868002
 F      8   7   6     2.500762296268   116.09376931   275.21631413
 F      9   8   7     2.586068560701   111.61915745    75.94527895
 F      9   8   7     2.566417445437   109.71918443   317.73444189
 F     10   9   8     2.528672517300   110.31172598    54.30975366
 F     10   9   8     2.524533436282   109.17991631   173.68729604
 F     10   9   8     2.524932693250   111.06920193   293.39071131
 H      2   1   3     1.851000755277   108.99886491   359.67998751

---------------------
BASIS SET INFORMATION
---------------------
There are 4 groups of distinct atoms

 Group   1 Type C   : 11s6p2d1f contracted to 5s3p2d1f pattern {62111/411/11/1}
 Group   2 Type O   : 11s6p2d1f contracted to 5s3p2d1f pattern {62111/411/11/1}
 Group   3 Type F   : 11s6p2d1f contracted to 5s3p2d1f pattern {62111/411/11/1}
 Group   4 Type H   : 5s1p contracted to 3s1p pattern {311/1}

Atom   0C    basis set group =>   1
Atom   1O    basis set group =>   2
Atom   2O    basis set group =>   2
Atom   3C    basis set group =>   1
Atom   4C    basis set group =>   1
Atom   5C    basis set group =>   1
Atom   6C    basis set group =>   1
Atom   7C    basis set group =>   1
Atom   8C    basis set group =>   1
Atom   9C    basis set group =>   1
Atom  10F    basis set group =>   3
Atom  11F    basis set group =>   3
Atom  12F    basis set group =>   3
Atom  13F    basis set group =>   3
Atom  14F    basis set group =>   3
Atom  15F    basis set group =>   3
Atom  16F    basis set group =>   3
Atom  17F    basis set group =>   3
Atom  18F    basis set group =>   3
Atom  19F    basis set group =>   3
Atom  20F    basis set group =>   3
Atom  21F    basis set group =>   3
Atom  22F    basis set group =>   3
Atom  23F    basis set group =>   3
Atom  24H    basis set group =>   4
---------------------------------
AUXILIARY/J BASIS SET INFORMATION
---------------------------------
There are 4 groups of distinct atoms

 Group   1 Type C   : 12s5p4d2f1g contracted to 6s4p3d1f1g pattern {711111/2111/211/2/1}
 Group   2 Type O   : 12s5p4d2f1g contracted to 6s4p3d1f1g pattern {711111/2111/211/2/1}
 Group   3 Type F   : 12s5p4d2f1g contracted to 6s4p3d1f1g pattern {711111/2111/211/2/1}
 Group   4 Type H   : 5s2p1d contracted to 3s1p1d pattern {311/2/1}

Atom   0C    basis set group =>   1
Atom   1O    basis set group =>   2
Atom   2O    basis set group =>   2
Atom   3C    basis set group =>   1
Atom   4C    basis set group =>   1
Atom   5C    basis set group =>   1
Atom   6C    basis set group =>   1
Atom   7C    basis set group =>   1
Atom   8C    basis set group =>   1
Atom   9C    basis set group =>   1
Atom  10F    basis set group =>   3
Atom  11F    basis set group =>   3
Atom  12F    basis set group =>   3
Atom  13F    basis set group =>   3
Atom  14F    basis set group =>   3
Atom  15F    basis set group =>   3
Atom  16F    basis set group =>   3
Atom  17F    basis set group =>   3
Atom  18F    basis set group =>   3
Atom  19F    basis set group =>   3
Atom  20F    basis set group =>   3
Atom  21F    basis set group =>   3
Atom  22F    basis set group =>   3
Atom  23F    basis set group =>   3
Atom  24H    basis set group =>   4


           ************************************************************
           *        Program running with 20 parallel MPI-processes    *
           *              working on a common directory               *
           ************************************************************
------------------------------------------------------------------------------
                             ORCA STARTUP CALCULATIONS
                           -- RI-GTO INTEGRALS CHOSEN --
------------------------------------------------------------------------------
------------------------------------------------------------------------------
                   ___                                                        
                  /   \      - P O W E R E D   B Y -                         
                 /     \                                                     
                 |  |  |   _    _      __       _____    __    __             
                 |  |  |  | |  | |    /  \     |  _  \  |  |  /  |          
                  \  \/   | |  | |   /    \    | | | |  |  | /  /          
                 / \  \   | |__| |  /  /\  \   | |_| |  |  |/  /          
                |  |  |   |  __  | /  /__\  \  |    /   |      \           
                |  |  |   | |  | | |   __   |  |    \   |  |\   \          
                \     /   | |  | | |  |  |  |  | |\  \  |  | \   \       
                 \___/    |_|  |_| |__|  |__|  |_| \__\ |__|  \__/        
                                                                              
                      - O R C A' S   B I G   F R I E N D -                    
                                      &                                       
                       - I N T E G R A L  F E E D E R -                       
                                                                              
 v1 FN, 2020, v2 2021, v3 2022-2024                                           
------------------------------------------------------------------------------


----------------------
SHARK INTEGRAL PACKAGE
----------------------

Number of atoms                             ...     25
Number of basis functions                   ...    750
Number of shells                            ...    268
Maximum angular momentum                    ...      3
Integral batch strategy                     ... SHARK/LIBINT Hybrid
RI-J (if used) integral strategy            ... SPLIT-RIJ (Revised 2003 algorithm where possible)
Printlevel                                  ...      1
Contraction scheme used                     ... SEGMENTED contraction
Prescreening option                         ... SCHWARTZ
   Thresh                                   ... 2.500e-11
   Tcut                                     ... 2.500e-12
   Tpresel                                  ... 2.500e-12 
Coulomb Range Separation                    ... NOT USED
Exchange Range Separation                   ... NOT USED
Multipole approximations                    ... NOT USED
Finite Nucleus Model                        ... NOT USED
CABS basis                                  ... NOT available
Auxiliary Coulomb fitting basis             ... AVAILABLE
   # of basis functions in Aux-J            ...   1187
   # of shells in Aux-J                     ...    365
   Maximum angular momentum in Aux-J        ...      4
Auxiliary J/K fitting basis                 ... NOT available
Auxiliary Correlation fitting basis         ... NOT available
Auxiliary 'external' fitting basis          ... NOT available

Checking pre-screening integrals            ... done (  0.0 sec) Dimension = 268
Check shell pair data                       ... done (  0.0 sec)
Shell pair information
Shell pair cut-off parameter TPreSel        ...   2.5e-12
Total number of shell pairs                 ...     36046
Shell pairs after pre-screening             ...     22407
Total number of primitive shell pairs       ...    118872
Primitive shell pairs kept                  ...     47519
          la=0 lb=0:   4255 shell pairs
          la=1 lb=0:   6141 shell pairs
          la=1 lb=1:   2106 shell pairs
          la=2 lb=0:   3326 shell pairs
          la=2 lb=1:   2413 shell pairs
          la=2 lb=2:    684 shell pairs
          la=3 lb=0:   1527 shell pairs
          la=3 lb=1:   1177 shell pairs
          la=3 lb=2:    624 shell pairs
          la=3 lb=3:    154 shell pairs

Calculating one electron integrals          ... done (  0.0 sec)
Calculating RI/J V-Matrix + Cholesky decomp.... done (  0.1 sec)
Calculating Nuclear repulsion               ... done (  0.0 sec) ENN=   2649.149681476215 Eh

Diagonalization of the overlap matrix:
Smallest eigenvalue                        ... 7.037e-05
Time for diagonalization                   ...    0.099 sec
Threshold for overlap eigenvalues          ... 1.000e-07
Number of eigenvalues below threshold      ... 0
Time for construction of square roots      ...    0.046 sec
Total time needed                          ...    0.149 sec

-------------------
DFT GRID GENERATION
-------------------

General Integration Accuracy     IntAcc      ... 4.388
Radial Grid Type                 RadialGrid  ... OptM3 with GC (2021)
Angular Grid (max. ang.)         AngularGrid ... 4 (Lebedev-302)
Angular grid pruning method      GridPruning ... 4 (adaptive)
Weight generation scheme         WeightScheme... mBecke (2022)
Basis function cutoff            BFCut       ... 1.0000e-11
Integration weight cutoff        WCut        ... 1.0000e-14
Partially contracted basis set               ... off
Rotationally invariant grid construction     ... off
Angular grids for H and He will be reduced by one unit

Total number of grid points                  ...   148715
Total number of batches                      ...     2336
Average number of points per batch           ...       63
Average number of grid points per atom       ...     5949

--------------------
COSX GRID GENERATION
--------------------

GRIDX 1
-------
General Integration Accuracy     IntAcc      ... 3.816
Radial Grid Type                 RadialGrid  ... OptM3 with GC (2021)
Angular Grid (max. ang.)         AngularGrid ... 1 (Lebedev-50)
Angular grid pruning method      GridPruning ... 4 (adaptive)
Weight generation scheme         WeightScheme... mBecke (2022)
Basis function cutoff            BFCut       ... 1.0000e-11
Integration weight cutoff        WCut        ... 1.0000e-14
Partially contracted basis set               ... on
Rotationally invariant grid construction     ... off
Angular grids for H and He will be reduced by one unit

Total number of grid points                  ...    18697
Total number of batches                      ...      157
Average number of points per batch           ...      119
Average number of grid points per atom       ...      748
UseSFitting                                  ... on

GRIDX 2
-------
General Integration Accuracy     IntAcc      ... 4.020
Radial Grid Type                 RadialGrid  ... OptM3 with GC (2021)
Angular Grid (max. ang.)         AngularGrid ... 2 (Lebedev-110)
Angular grid pruning method      GridPruning ... 4 (adaptive)
Weight generation scheme         WeightScheme... mBecke (2022)
Basis function cutoff            BFCut       ... 1.0000e-11
Integration weight cutoff        WCut        ... 1.0000e-14
Partially contracted basis set               ... on
Rotationally invariant grid construction     ... off
Angular grids for H and He will be reduced by one unit

Total number of grid points                  ...    44081
Total number of batches                      ...      355
Average number of points per batch           ...      124
Average number of grid points per atom       ...     1763
UseSFitting                                  ... on

GRIDX 3
-------
General Integration Accuracy     IntAcc      ... 4.338
Radial Grid Type                 RadialGrid  ... OptM3 with GC (2021)
Angular Grid (max. ang.)         AngularGrid ... 3 (Lebedev-194)
Angular grid pruning method      GridPruning ... 4 (adaptive)
Weight generation scheme         WeightScheme... mBecke (2022)
Basis function cutoff            BFCut       ... 1.0000e-11
Integration weight cutoff        WCut        ... 1.0000e-14
Partially contracted basis set               ... on
Rotationally invariant grid construction     ... off
Angular grids for H and He will be reduced by one unit

Total number of grid points                  ...    97633
Total number of batches                      ...      775
Average number of points per batch           ...      125
Average number of grid points per atom       ...     3905
UseSFitting                                  ... on
Initializing property integral containers    ... done (  0.0 sec)

SHARK setup successfully completed in   2.8 seconds

Maximum memory used throughout the entire STARTUP-calculation: 57.4 MB


           ************************************************************
           *        Program running with 20 parallel MPI-processes    *
           *              working on a common directory               *
           ************************************************************
-------------------------------------------------------------------------------
                                 ORCA GUESS
                   Start orbitals & Density for SCF / CASSCF
-------------------------------------------------------------------------------

------------
SCF SETTINGS
------------
Hamiltonian:
 Density Functional     Method          .... DFT(GTOs)
 Exchange Functional    Exchange        .... TPSS
 Correlation Functional Correlation     .... TPSS
 LDA part of GGA corr.  LDAOpt          .... PW91-LDA
 Gradients option       PostSCFGGA      .... off
 Hybrid DFT is turned on
   Fraction HF Exchange ScalHFX         ....  0.100000
   Scaling of DF-GGA-X  ScalDFX         ....  0.900000
   Scaling of DF-GGA-C  ScalDFC         ....  1.000000
   Scaling of DF-LDA-C  ScalLDAC        ....  1.000000
   Perturbative correction              ....  0.000000
   NL short-range parameter             ....  5.200000
 RI-approximation to the Coulomb term is turned on
   Number of AuxJ basis functions       .... 1187
   RIJ-COSX (HFX calculated with COS-X)).... on


General Settings:
 Integral files         IntName         .... rf_mecn_freq_TP_C6_P_B
 Hartree-Fock type      HFTyp           .... UHF
 Total Charge           Charge          ....    0
 Multiplicity           Mult            ....    2
 Number of Electrons    NEL             ....  191
 Basis Dimension        Dim             ....  750
 Nuclear Repulsion      ENuc            ....   2649.1496814762 Eh

Convergence Acceleration:
 AO-DIIS                CNVDIIS         .... on
   Start iteration      DIISMaxIt       ....     0
   Startup error        DIISStart       ....  0.200000
   # of expansion vecs  DIISMaxEq       ....     5
   Bias factor          DIISBfac        ....   1.050
   Max. coefficient     DIISMaxC        ....  10.000
 MO-DIIS                CNVKDIIS        .... off
 Trust-Rad. Augm. Hess. CNVTRAH         .... auto
   Auto Start mean grad. ratio tolernc. ....  1.125000
   Auto Start start iteration           ....    50
   Auto Start num. interpolation iter.  ....    10
   Max. Number of Micro iterations      ....    24
   Max. Number of Macro iterations      .... Maxiter - #DIIS iter
   Number of Davidson start vectors     ....     2
   Converg. threshold    (grad. norm)   ....   1.000e-05
   Grad. Scal. Fac. for Micro threshold ....   0.100
   Minimum threshold for Micro iter.    ....   1.000e-02
   NR start threshold (gradient norm)   ....   1.000e-04
   Initial trust radius                 ....   0.400
   Minimum AH scaling param. (alpha)    ....   1.000
   Maximum AH scaling param. (alpha)    .... 1000.000
   Quad. conv. algorithm                .... NR
   White noise on init. David. guess    .... on
   Maximum white noise                  ....   0.010
   Pseudo random numbers                .... off
   Inactive MOs                         .... canonical
   Orbital update algorithm             .... Taylor
   Preconditioner                       .... Diag
   Full preconditioner red. dimension   ....   250
 SOSCF                  CNVSOSCF        .... on
   Start iteration      SOSCFMaxIt      ....   150
   Startup grad/error   SOSCFStart      ....  0.001000
   Hessian update       SOSCFHessUp     .... L-BFGS
 Level Shifting         CNVShift        .... on
   Level shift para.    LevelShift      ....    0.2500
   Turn off err/grad.   ShiftErr        ....    0.0000
 Zerner damping         CNVZerner       .... off
 Static damping         CNVDamp         .... on
   Fraction old density DampFac         ....    0.8500
   Max. Damping (<1)    DampMax         ....    0.9800
   Min. Damping (>=0)   DampMin         ....    0.0000
   Turn off err/grad.   DampErr         ....    0.0300

SCF Procedure:
 Maximum # iterations   MaxIter         ....  1500
 SCF integral mode      SCFMode         .... Direct
   Integral package                     .... SHARK and LIBINT hybrid scheme
 Reset frequency        DirectResetFreq ....    20
 Integral Threshold     Thresh          ....  2.500e-11 Eh
 Primitive CutOff       TCut            ....  2.500e-12 Eh

Convergence Tolerance:
 Convergence Check Mode ConvCheckMode   .... Total+1el-Energy
 Convergence forced     ConvForced      .... 0
 Energy Change          TolE            ....  1.000e-08 Eh
 1-El. energy change                    ....  1.000e-05 Eh
 Orbital Gradient       TolG            ....  1.000e-05
 Orbital Rotation angle TolX            ....  1.000e-05
 DIIS Error             TolErr          ....  5.000e-07

------------------------------
INITIAL GUESS: MODEL POTENTIAL
------------------------------
Loading Hartree-Fock densities                     ... done
Calculating cut-offs                               ... done
Initializing the effective Hamiltonian             ... done
Setting up the integral package (SHARK)            ... done
Starting the Coulomb interaction                   ... done (   0.1 sec)
Making the grid                                    ... done (   0.5 sec)
Mapping shells                                     ... done
Starting the XC term evaluation                    ... done (   0.1 sec)
  promolecular density results
     # of electrons  =    191.000279402
     EX              =   -197.550927890
     EC              =     -6.707154791
     EX+EC           =   -204.258082680
Transforming the Hamiltonian                       ... done (   0.0 sec)
Diagonalizing the Hamiltonian                      ... done (   0.1 sec)
Back transforming the eigenvectors                 ... done (   0.0 sec)
Now organizing SCF variables                       ... done
                      ------------------
                      INITIAL GUESS DONE (   1.1 sec)
                      ------------------
             **** ENERGY FILE WAS UPDATED (rf_mecn_freq_TP_C6_P_B.en.tmp) ****
Finished Guess after   1.8 sec
Maximum memory used throughout the entire GUESS-calculation: 46.5 MB


           ************************************************************
           *        Program running with 20 parallel MPI-processes    *
           *              working on a common directory               *
           ************************************************************

-------------------------------------------------------------------------------------------
                                      ORCA LEAN-SCF
                              memory conserving SCF solver
-------------------------------------------------------------------------------------------

--------------------
CPCM SOLVATION MODEL
--------------------
CPCM parameters:
  Epsilon                                         ...      35.6880
  Refrac                                          ...       1.3442
  Rsolv                                           ...       1.3000
  Surface type                                    ... GAUSSIAN VDW
  Discretization scheme                           ... Constant charge density
    Threshold for H atoms                         ...       5.0000 (charges/Ang^2)
    Threshold for non-H atoms                     ...       5.0000 (charges/Ang^2)
  Epsilon function type                           ...         CPCM
Solvent:                                          ... ACETONITRILE
SMD-CDS solvent descriptors:
  Soln                                            ...       1.3442
  Soln25                                          ...       1.3416
  Sola                                            ...       0.0700
  Solb                                            ...       0.3200
  Solg                                            ...      41.2500
  Solc                                            ...       0.0000
  Solh                                            ...       0.0000
Radii:
  Scheme                                          ... Element-dependent radii
  Radius for C  used is    3.4960 Bohr (=   1.8500 Ang.)
  Radius for O  used is    4.0969 Bohr (=   2.1680 Ang.)
  Radius for F  used is    3.2692 Bohr (=   1.7300 Ang.)
  Radius for H  used is    2.2677 Bohr (=   1.2000 Ang.)
Calculating surface                               ...        done! (  0.0s)
Cavity surface points                             ...         2185
Cavity Volume                                     ...    2116.5515
Cavity Surface-area                               ...    1112.5206
Calculating surface distance matrix               ...        done! (  0.0s)
Performing Cholesky decomposition & store         ...        done! (  0.1s)
Overall time for CPCM initialization              ...                 0.1s

----------------------------------------D-I-I-S--------------------------------------------
Iteration    Energy (Eh)           Delta-E    RMSDP     MaxDP     DIISErr   Damp  Time(sec)
-------------------------------------------------------------------------------------------
               ***  Starting incremental Fock matrix formation  ***
    1    -1854.0155361861552592     0.00e+00  1.77e-04  1.36e-02  1.36e-01  0.850   6.7
Warning: op=1 Small HOMO/LUMO gap (   0.040) - skipping pre-diagonalization
         Will do a full diagonalization
    2    -1854.1318995377096144    -1.16e-01  1.68e-04  1.22e-02  9.05e-02  0.850   4.6
                               ***Turning on AO-DIIS***
    3    -1854.1929242930291366    -6.10e-02  7.73e-05  4.33e-03  5.06e-02  0.850   3.9
    4    -1854.2293607832862108    -3.64e-02  5.06e-05  2.96e-03  3.84e-02  0.850   3.7
    5    -1854.2552719172790603    -2.59e-02  4.21e-05  3.27e-03  3.31e-02  0.850   4.1
    6    -1854.2759151834488875    -2.06e-02  3.78e-05  3.36e-03  2.91e-02  0.850   4.4
    7    -1854.2932217960978960    -1.73e-02  2.31e-04  2.24e-02  2.49e-02  0.000   4.3
    8    -1854.3846831367618506    -9.15e-02  2.92e-05  3.56e-03  5.50e-03  0.000   4.6
    9    -1854.3847344843725296    -5.13e-05  1.25e-05  1.36e-03  5.23e-03  0.000   4.2
                              *** Initializing SOSCF ***
---------------------------------------S-O-S-C-F--------------------------------------
Iteration    Energy (Eh)           Delta-E    RMSDP     MaxDP     MaxGrad    Time(sec)
--------------------------------------------------------------------------------------
   10    -1854.3849970901765118    -2.63e-04  5.66e-06  5.72e-04  9.36e-04     4.5
               *** Restarting incremental Fock matrix formation ***
   11    -1854.3850322625985427    -3.52e-05  4.63e-06  4.22e-04  4.04e-04     7.6
   12    -1854.3850297252638484     2.54e-06  2.54e-06  2.83e-04  8.46e-04     4.8
   13    -1854.3850352098506846    -5.48e-06  8.72e-07  7.15e-05  2.14e-05     4.4
   14    -1854.3850352208382901    -1.10e-08  4.01e-07  2.53e-05  2.83e-05     4.2
   15    -1854.3850352615754673    -4.07e-08  2.20e-07  1.93e-05  7.98e-06     3.8
   16    -1854.3850352485369513     1.30e-08  1.17e-07  9.36e-06  1.11e-05     3.8
   17    -1854.3850352601884879    -1.17e-08  8.85e-08  9.36e-06  6.72e-07     3.3
                  *** Gradient check signals convergence ***

               *****************************************************
               *                     SUCCESS                       *
               *           SCF CONVERGED AFTER  17 CYCLES          *
               *****************************************************

Recomputing exchange energy using gridx3       ... done (    8.701 sec)
Old exchange energy                            :    -19.916504376 Eh
New exchange energy                            :    -19.916499915 Eh
Exchange energy change after final integration :      0.000004461 Eh
Total energy after final integration           :  -1854.385030799 Eh

SMD CDS free energy correction energy :                 3.29586     Kcal/mol
Total Energy after SMD CDS correction =             -1854.379778509 Eh
             **** ENERGY FILE WAS UPDATED (rf_mecn_freq_TP_C6_P_B.en.tmp) ****

----------------
TOTAL SCF ENERGY
----------------

Total Energy       :      -1854.37977850922334 Eh          -50460.23912 eV

Components:
Nuclear Repulsion  :       2649.14968147621494 Eh           72087.02767 eV
Electronic Energy  :      -4503.52145365964498 Eh         -122547.04893 eV
One Electron Energy:      -7849.43581156068831 Eh         -213594.00734 eV
Two Electron Energy:       3345.91435790104288 Eh           91046.95842 eV
CPCM Dielectric    :         -0.01326307675828 Eh              -0.36091 eV
SMD CDS (Gcds)     :          0.00525228978295 Eh               0.14292 eV

Virial components:
Potential Energy   :      -3702.45702267499291 Eh         -100748.97757 eV
Kinetic Energy     :       1848.07724416576957 Eh           50288.73844 eV
Virial Ratio       :          2.00341031975982

DFT components:
N(Alpha)           :       96.000011311745 electrons
N(Beta)            :       94.999996718532 electrons
N(Total)           :      191.000008030277 electrons
E(X)               :     -180.982079899610 Eh       
E(C)               :       -6.718879888132 Eh       
E(XC)              :     -187.700959787743 Eh       

CPCM Solvation Model Properties:
Surface-charge          :         -0.00860581578945
Corrected charge        :          0.00000000000000
Outlying charge corr.   :          0.00000407195202 Eh               0.00011 eV
Free-energy (cav+disp)  :          0.00525228978295 Eh               0.14292 eV

---------------
SCF CONVERGENCE
---------------

  Last Energy change         ...    1.1652e-08  Tolerance :   1.0000e-08
  Last MAX-Density change    ...    9.3581e-06  Tolerance :   1.0000e-07
  Last RMS-Density change    ...    8.8543e-08  Tolerance :   5.0000e-09
  Last DIIS Error            ...    9.3559e-04  Tolerance :   5.0000e-07
  Last Orbital Gradient      ...    6.7234e-07  Tolerance :   1.0000e-05
  Last Orbital Rotation      ...    1.6451e-06  Tolerance :   1.0000e-05


----------------------
UHF SPIN CONTAMINATION
----------------------

Warning: in a DFT calculation there is little theoretical justification to 
         calculate <S**2> as in Hartree-Fock theory. We will do it anyways
         but you should keep in mind that the values have only limited relevance

Expectation value of <S**2>     :     0.755445
Ideal value S*(S+1) for S=0.5   :     0.750000
Deviation                       :     0.005445

----------------
ORBITAL ENERGIES
----------------
                 SPIN UP ORBITALS
  NO   OCC          E(Eh)            E(eV) 
   0   1.0000     -24.677006      -671.4955 
   1   1.0000     -24.660139      -671.0365 
   2   1.0000     -24.659829      -671.0281 
   3   1.0000     -24.659271      -671.0129 
   4   1.0000     -24.659246      -671.0122 
   5   1.0000     -24.658605      -670.9948 
   6   1.0000     -24.658494      -670.9917 
   7   1.0000     -24.658033      -670.9792 
   8   1.0000     -24.656709      -670.9432 
   9   1.0000     -24.655104      -670.8995 
  10   1.0000     -24.654130      -670.8730 
  11   1.0000     -24.650690      -670.7794 
  12   1.0000     -24.649277      -670.7409 
  13   1.0000     -24.648633      -670.7234 
  14   1.0000     -19.133288      -520.6432 
  15   1.0000     -19.079827      -519.1885 
  16   1.0000     -10.394034      -282.8361 
  17   1.0000     -10.344620      -281.4914 
  18   1.0000     -10.341961      -281.4191 
  19   1.0000     -10.341244      -281.3995 
  20   1.0000     -10.340748      -281.3861 
  21   1.0000     -10.332227      -281.1542 
  22   1.0000     -10.280930      -279.7583 
  23   1.0000     -10.270267      -279.4682 
  24   1.0000      -1.320303       -35.9273 
  25   1.0000      -1.299331       -35.3566 
  26   1.0000      -1.284167       -34.9439 
  27   1.0000      -1.276154       -34.7259 
  28   1.0000      -1.271951       -34.6115 
  29   1.0000      -1.270353       -34.5681 
  30   1.0000      -1.267594       -34.4930 
  31   1.0000      -1.233068       -33.5535 
  32   1.0000      -1.232905       -33.5490 
  33   1.0000      -1.230777       -33.4911 
  34   1.0000      -1.223916       -33.3045 
  35   1.0000      -1.219018       -33.1712 
  36   1.0000      -1.214773       -33.0557 
  37   1.0000      -1.214252       -33.0415 
  38   1.0000      -1.119223       -30.4556 
  39   1.0000      -1.035372       -28.1739 
  40   1.0000      -0.838539       -22.8178 
  41   1.0000      -0.814464       -22.1627 
  42   1.0000      -0.787564       -21.4307 
  43   1.0000      -0.754770       -20.5383 
  44   1.0000      -0.710163       -19.3245 
  45   1.0000      -0.677193       -18.4274 
  46   1.0000      -0.649901       -17.6847 
  47   1.0000      -0.641797       -17.4642 
  48   1.0000      -0.617233       -16.7958 
  49   1.0000      -0.615738       -16.7551 
  50   1.0000      -0.612205       -16.6589 
  51   1.0000      -0.605219       -16.4688 
  52   1.0000      -0.604464       -16.4483 
  53   1.0000      -0.597227       -16.2514 
  54   1.0000      -0.584681       -15.9100 
  55   1.0000      -0.582035       -15.8380 
  56   1.0000      -0.576381       -15.6841 
  57   1.0000      -0.570627       -15.5276 
  58   1.0000      -0.564951       -15.3731 
  59   1.0000      -0.561407       -15.2767 
  60   1.0000      -0.552523       -15.0349 
  61   1.0000      -0.545782       -14.8515 
  62   1.0000      -0.509639       -13.8680 
  63   1.0000      -0.497778       -13.5452 
  64   1.0000      -0.483597       -13.1593 
  65   1.0000      -0.478957       -13.0331 
  66   1.0000      -0.476499       -12.9662 
  67   1.0000      -0.472579       -12.8595 
  68   1.0000      -0.470087       -12.7917 
  69   1.0000      -0.469069       -12.7640 
  70   1.0000      -0.466383       -12.6909 
  71   1.0000      -0.459764       -12.5108 
  72   1.0000      -0.457309       -12.4440 
  73   1.0000      -0.453252       -12.3336 
  74   1.0000      -0.448290       -12.1986 
  75   1.0000      -0.445938       -12.1346 
  76   1.0000      -0.440738       -11.9931 
  77   1.0000      -0.440003       -11.9731 
  78   1.0000      -0.436145       -11.8681 
  79   1.0000      -0.432587       -11.7713 
  80   1.0000      -0.431648       -11.7457 
  81   1.0000      -0.429890       -11.6979 
  82   1.0000      -0.422616       -11.5000 
  83   1.0000      -0.420146       -11.4328 
  84   1.0000      -0.417667       -11.3653 
  85   1.0000      -0.415425       -11.3043 
  86   1.0000      -0.413956       -11.2643 
  87   1.0000      -0.412098       -11.2138 
  88   1.0000      -0.411497       -11.1974 
  89   1.0000      -0.405230       -11.0269 
  90   1.0000      -0.384805       -10.4711 
  91   1.0000      -0.363441        -9.8897 
  92   1.0000      -0.340823        -9.2743 
  93   1.0000      -0.337787        -9.1916 
  94   1.0000      -0.296468        -8.0673 
  95   1.0000      -0.262102        -7.1322 
  96   0.0000      -0.064029        -1.7423 
  97   0.0000      -0.017776        -0.4837 
  98   0.0000       0.010266         0.2794 
  99   0.0000       0.021869         0.5951 
 100   0.0000       0.038498         1.0476 
 101   0.0000       0.053137         1.4459 
 102   0.0000       0.062109         1.6901 
 103   0.0000       0.067512         1.8371 
 104   0.0000       0.093344         2.5400 
 105   0.0000       0.109864         2.9895 
 106   0.0000       0.110868         3.0169 

                 SPIN DOWN ORBITALS
  NO   OCC          E(Eh)            E(eV) 
   0   1.0000     -24.672492      -671.3726 
   1   1.0000     -24.660099      -671.0354 
   2   1.0000     -24.659765      -671.0263 
   3   1.0000     -24.659261      -671.0126 
   4   1.0000     -24.659234      -671.0119 
   5   1.0000     -24.658581      -670.9941 
   6   1.0000     -24.658500      -670.9919 
   7   1.0000     -24.658024      -670.9790 
   8   1.0000     -24.656389      -670.9345 
   9   1.0000     -24.654411      -670.8806 
  10   1.0000     -24.653531      -670.8567 
  11   1.0000     -24.650692      -670.7794 
  12   1.0000     -24.649273      -670.7408 
  13   1.0000     -24.646990      -670.6787 
  14   1.0000     -19.133284      -520.6431 
  15   1.0000     -19.079814      -519.1881 
  16   1.0000     -10.393969      -282.8343 
  17   1.0000     -10.345559      -281.5170 
  18   1.0000     -10.342716      -281.4396 
  19   1.0000     -10.340691      -281.3845 
  20   1.0000     -10.340555      -281.3808 
  21   1.0000     -10.332179      -281.1529 
  22   1.0000     -10.280917      -279.7580 
  23   1.0000     -10.254551      -279.0405 
  24   1.0000      -1.320086       -35.9214 
  25   1.0000      -1.298888       -35.3445 
  26   1.0000      -1.282723       -34.9047 
  27   1.0000      -1.274621       -34.6842 
  28   1.0000      -1.271026       -34.5864 
  29   1.0000      -1.269569       -34.5467 
  30   1.0000      -1.260992       -34.3133 
  31   1.0000      -1.232799       -33.5462 
  32   1.0000      -1.232689       -33.5432 
  33   1.0000      -1.230680       -33.4885 
  34   1.0000      -1.223518       -33.2936 
  35   1.0000      -1.218281       -33.1511 
  36   1.0000      -1.214764       -33.0554 
  37   1.0000      -1.211806       -32.9749 
  38   1.0000      -1.119209       -30.4552 
  39   1.0000      -1.035353       -28.1734 
  40   1.0000      -0.826522       -22.4908 
  41   1.0000      -0.810618       -22.0580 
  42   1.0000      -0.786631       -21.4053 
  43   1.0000      -0.749834       -20.4040 
  44   1.0000      -0.706157       -19.2155 
  45   1.0000      -0.675777       -18.3888 
  46   1.0000      -0.645955       -17.5773 
  47   1.0000      -0.641610       -17.4591 
  48   1.0000      -0.615238       -16.7415 
  49   1.0000      -0.613952       -16.7065 
  50   1.0000      -0.609297       -16.5798 
  51   1.0000      -0.604525       -16.4500 
  52   1.0000      -0.603818       -16.4307 
  53   1.0000      -0.596633       -16.2352 
  54   1.0000      -0.583477       -15.8772 
  55   1.0000      -0.579882       -15.7794 
  56   1.0000      -0.574902       -15.6439 
  57   1.0000      -0.568497       -15.4696 
  58   1.0000      -0.561576       -15.2813 
  59   1.0000      -0.560159       -15.2427 
  60   1.0000      -0.550966       -14.9925 
  61   1.0000      -0.545587       -14.8462 
  62   1.0000      -0.497764       -13.5448 
  63   1.0000      -0.483105       -13.1460 
  64   1.0000      -0.482051       -13.1173 
  65   1.0000      -0.478682       -13.0256 
  66   1.0000      -0.475050       -12.9268 
  67   1.0000      -0.471555       -12.8317 
  68   1.0000      -0.469318       -12.7708 
  69   1.0000      -0.467656       -12.7256 
  70   1.0000      -0.466121       -12.6838 
  71   1.0000      -0.458768       -12.4837 
  72   1.0000      -0.455951       -12.4071 
  73   1.0000      -0.452498       -12.3131 
  74   1.0000      -0.447435       -12.1753 
  75   1.0000      -0.444659       -12.0998 
  76   1.0000      -0.439985       -11.9726 
  77   1.0000      -0.438221       -11.9246 
  78   1.0000      -0.434688       -11.8285 
  79   1.0000      -0.431162       -11.7325 
  80   1.0000      -0.431044       -11.7293 
  81   1.0000      -0.428917       -11.6714 
  82   1.0000      -0.422187       -11.4883 
  83   1.0000      -0.418719       -11.3939 
  84   1.0000      -0.417186       -11.3522 
  85   1.0000      -0.414895       -11.2899 
  86   1.0000      -0.413326       -11.2472 
  87   1.0000      -0.411348       -11.1933 
  88   1.0000      -0.410720       -11.1763 
  89   1.0000      -0.404569       -11.0089 
  90   1.0000      -0.383146       -10.4259 
  91   1.0000      -0.361623        -9.8403 
  92   1.0000      -0.340483        -9.2650 
  93   1.0000      -0.336277        -9.1506 
  94   1.0000      -0.296070        -8.0565 
  95   0.0000      -0.138666        -3.7733 
  96   0.0000      -0.062891        -1.7114 
  97   0.0000      -0.013250        -0.3605 
  98   0.0000       0.014906         0.4056 
  99   0.0000       0.024773         0.6741 
 100   0.0000       0.039425         1.0728 
 101   0.0000       0.060744         1.6529 
 102   0.0000       0.070164         1.9093 
 103   0.0000       0.077719         2.1148 
 104   0.0000       0.095676         2.6035 
 105   0.0000       0.111875         3.0443 
*Only the first 10 virtual orbitals were printed.

                    ********************************
                    * MULLIKEN POPULATION ANALYSIS *
                    ********************************

--------------------------------------------
MULLIKEN ATOMIC CHARGES AND SPIN POPULATIONS
--------------------------------------------
   0 C :    0.224398    0.000512
   1 O :   -0.338159    0.000077
   2 O :   -0.288843    0.000482
   3 C :    0.374322    0.002015
   4 C :    0.265904    0.005205
   5 C :    0.275983    0.027554
   6 C :    0.345044   -0.022345
   7 C :    0.122195    0.848857
   8 C :    0.314233   -0.004728
   9 C :    0.410251   -0.004229
  10 F :   -0.159334   -0.000014
  11 F :   -0.155461    0.000102
  12 F :   -0.152625   -0.000166
  13 F :   -0.155794    0.000184
  14 F :   -0.154806   -0.000106
  15 F :   -0.154323   -0.000314
  16 F :   -0.151991    0.005075
  17 F :   -0.154740    0.012929
  18 F :   -0.123736    0.086390
  19 F :   -0.160510    0.031038
  20 F :   -0.153922    0.009738
  21 F :   -0.139612    0.000360
  22 F :   -0.133884    0.000084
  23 F :   -0.136922    0.001232
  24 H :    0.382332    0.000069
Sum of atomic charges         :   -0.0000000
Sum of atomic spin populations:    1.0000000

-----------------------------------------------------
MULLIKEN REDUCED ORBITAL CHARGES AND SPIN POPULATIONS
-----------------------------------------------------
CHARGE
  0 C s       :     3.092952  s :     3.092952
      pz      :     0.767922  p :     2.388930
      px      :     0.875036
      py      :     0.745972
      dz2     :     0.047720  d :     0.269630
      dxz     :     0.029385
      dyz     :     0.053753
      dx2y2   :     0.089237
      dxy     :     0.049536
      f0      :     0.002172  f :     0.024091
      f+1     :     0.002116
      f-1     :     0.003711
      f+2     :     0.003515
      f-2     :     0.003800
      f+3     :     0.003156
      f-3     :     0.005620

  1 O s       :     3.772946  s :     3.772946
      pz      :     1.543663  p :     4.531902
      px      :     1.424966
      py      :     1.563274
      dz2     :     0.005356  d :     0.031487
      dxz     :     0.003154
      dyz     :     0.007821
      dx2y2   :     0.009658
      dxy     :     0.005498
      f0      :     0.000267  f :     0.001824
      f+1     :     0.000173
      f-1     :     0.000322
      f+2     :     0.000413
      f-2     :     0.000285
      f+3     :     0.000228
      f-3     :     0.000136

  2 O s       :     3.805236  s :     3.805236
      pz      :     1.490199  p :     4.451323
      px      :     1.583472
      py      :     1.377651
      dz2     :     0.003838  d :     0.030312
      dxz     :     0.003957
      dyz     :     0.006544
      dx2y2   :     0.008575
      dxy     :     0.007399
      f0      :     0.000163  f :     0.001972
      f+1     :     0.000143
      f-1     :     0.000271
      f+2     :     0.000160
      f-2     :     0.000362
      f+3     :     0.000377
      f-3     :     0.000496

  3 C s       :     3.041843  s :     3.041843
      pz      :     0.687190  p :     2.262493
      px      :     0.935537
      py      :     0.639766
      dz2     :     0.048538  d :     0.293291
      dxz     :     0.059254
      dyz     :     0.075576
      dx2y2   :     0.051536
      dxy     :     0.058387
      f0      :     0.006014  f :     0.028052
      f+1     :     0.004254
      f-1     :     0.003971
      f+2     :     0.003806
      f-2     :     0.002528
      f+3     :     0.004028
      f-3     :     0.003451

  4 C s       :     3.143414  s :     3.143414
      pz      :     0.671484  p :     2.261652
      px      :     0.920417
      py      :     0.669751
      dz2     :     0.056878  d :     0.300624
      dxz     :     0.053684
      dyz     :     0.079577
      dx2y2   :     0.046750
      dxy     :     0.063735
      f0      :     0.005134  f :     0.028406
      f+1     :     0.004228
      f-1     :     0.005869
      f+2     :     0.003681
      f-2     :     0.002213
      f+3     :     0.004693
      f-3     :     0.002589

  5 C s       :     3.142069  s :     3.142069
      pz      :     0.609282  p :     2.248738
      px      :     0.921383
      py      :     0.718073
      dz2     :     0.068895  d :     0.304724
      dxz     :     0.065094
      dyz     :     0.069142
      dx2y2   :     0.045712
      dxy     :     0.055880
      f0      :     0.004027  f :     0.028486
      f+1     :     0.004647
      f-1     :     0.007876
      f+2     :     0.002839
      f-2     :     0.003353
      f+3     :     0.003276
      f-3     :     0.002467

  6 C s       :     3.056639  s :     3.056639
      pz      :     0.615343  p :     2.257732
      px      :     0.902635
      py      :     0.739755
      dz2     :     0.077896  d :     0.312543
      dxz     :     0.065853
      dyz     :     0.060482
      dx2y2   :     0.045560
      dxy     :     0.062753
      f0      :     0.005162  f :     0.028042
      f+1     :     0.003253
      f-1     :     0.006225
      f+2     :     0.003673
      f-2     :     0.004545
      f+3     :     0.002974
      f-3     :     0.002211

  7 C s       :     3.222737  s :     3.222737
      pz      :     0.706773  p :     2.474134
      px      :     0.870590
      py      :     0.896771
      dz2     :     0.041133  d :     0.162928
      dxz     :     0.047034
      dyz     :     0.024019
      dx2y2   :     0.022697
      dxy     :     0.028045
      f0      :     0.004205  f :     0.018006
      f+1     :     0.002780
      f-1     :     0.002262
      f+2     :     0.003094
      f-2     :     0.002663
      f+3     :     0.001671
      f-3     :     0.001330

  8 C s       :     3.061761  s :     3.061761
      pz      :     0.704312  p :     2.295930
      px      :     0.868910
      py      :     0.722708
      dz2     :     0.057494  d :     0.300044
      dxz     :     0.057655
      dyz     :     0.068925
      dx2y2   :     0.048137
      dxy     :     0.067834
      f0      :     0.005591  f :     0.028031
      f+1     :     0.003567
      f-1     :     0.004930
      f+2     :     0.003030
      f-2     :     0.003552
      f+3     :     0.002505
      f-3     :     0.004856

  9 C s       :     3.022072  s :     3.022072
      pz      :     0.638753  p :     2.165422
      px      :     0.780633
      py      :     0.746036
      dz2     :     0.079964  d :     0.361822
      dxz     :     0.063442
      dyz     :     0.086267
      dx2y2   :     0.062602
      dxy     :     0.069547
      f0      :     0.008671  f :     0.040434
      f+1     :     0.005018
      f-1     :     0.004844
      f+2     :     0.006292
      f-2     :     0.006661
      f+3     :     0.003476
      f-3     :     0.005471

 10 F s       :     3.918234  s :     3.918234
      pz      :     1.887230  p :     5.224753
      px      :     1.877653
      py      :     1.459870
      dz2     :     0.002182  d :     0.015649
      dxz     :     0.000263
      dyz     :     0.003075
      dx2y2   :     0.005810
      dxy     :     0.004319
      f0      :     0.000056  f :     0.000698
      f+1     :     0.000018
      f-1     :     0.000136
      f+2     :     0.000080
      f-2     :     0.000020
      f+3     :     0.000187
      f-3     :     0.000202

 11 F s       :     3.915734  s :     3.915734
      pz      :     1.481763  p :     5.223191
      px      :     1.900746
      py      :     1.840682
      dz2     :     0.006925  d :     0.015817
      dxz     :     0.003398
      dyz     :     0.004418
      dx2y2   :     0.000567
      dxy     :     0.000508
      f0      :     0.000250  f :     0.000719
      f+1     :     0.000131
      f-1     :     0.000236
      f+2     :     0.000052
      f-2     :     0.000042
      f+3     :     0.000003
      f-3     :     0.000004

 12 F s       :     3.918644  s :     3.918644
      pz      :     1.870811  p :     5.217298
      px      :     1.896484
      py      :     1.450003
      dz2     :     0.002183  d :     0.015974
      dxz     :     0.000262
      dyz     :     0.003739
      dx2y2   :     0.006031
      dxy     :     0.003758
      f0      :     0.000068  f :     0.000709
      f+1     :     0.000010
      f-1     :     0.000132
      f+2     :     0.000124
      f-2     :     0.000019
      f+3     :     0.000146
      f-3     :     0.000210

 13 F s       :     3.919419  s :     3.919419
      pz      :     1.469351  p :     5.219826
      px      :     1.871559
      py      :     1.878916
      dz2     :     0.007376  d :     0.015848
      dxz     :     0.004331
      dyz     :     0.003303
      dx2y2   :     0.000466
      dxy     :     0.000371
      f0      :     0.000281  f :     0.000701
      f+1     :     0.000197
      f-1     :     0.000150
      f+2     :     0.000037
      f-2     :     0.000031
      f+3     :     0.000003
      f-3     :     0.000003

 14 F s       :     3.919042  s :     3.919042
      pz      :     1.773578  p :     5.219132
      px      :     1.890777
      py      :     1.554777
      dz2     :     0.002078  d :     0.015924
      dxz     :     0.001113
      dyz     :     0.005493
      dx2y2   :     0.004146
      dxy     :     0.003094
      f0      :     0.000080  f :     0.000708
      f+1     :     0.000006
      f-1     :     0.000134
      f+2     :     0.000191
      f-2     :     0.000091
      f+3     :     0.000094
      f-3     :     0.000112

 15 F s       :     3.920687  s :     3.920687
      pz      :     1.460682  p :     5.216944
      px      :     1.886915
      py      :     1.869348
      dz2     :     0.007596  d :     0.015983
      dxz     :     0.003914
      dyz     :     0.003667
      dx2y2   :     0.000425
      dxy     :     0.000381
      f0      :     0.000308  f :     0.000707
      f+1     :     0.000167
      f-1     :     0.000173
      f+2     :     0.000027
      f-2     :     0.000029
      f+3     :     0.000002
      f-3     :     0.000002

 16 F s       :     3.920215  s :     3.920215
      pz      :     1.706523  p :     5.215373
      px      :     1.901514
      py      :     1.607337
      dz2     :     0.002477  d :     0.015704
      dxz     :     0.001414
      dyz     :     0.006233
      dx2y2   :     0.003196
      dxy     :     0.002383
      f0      :     0.000075  f :     0.000698
      f+1     :     0.000011
      f-1     :     0.000184
      f+2     :     0.000205
      f-2     :     0.000093
      f+3     :     0.000059
      f-3     :     0.000071

 17 F s       :     3.918799  s :     3.918799
      pz      :     1.519703  p :     5.219908
      px      :     1.865997
      py      :     1.834208
      dz2     :     0.005822  d :     0.015352
      dxz     :     0.003837
      dyz     :     0.004099
      dx2y2   :     0.000765
      dxy     :     0.000829
      f0      :     0.000190  f :     0.000682
      f+1     :     0.000159
      f-1     :     0.000186
      f+2     :     0.000058
      f-2     :     0.000077
      f+3     :     0.000006
      f-3     :     0.000007

 18 F s       :     3.920394  s :     3.920394
      pz      :     1.561584  p :     5.184960
      px      :     1.875488
      py      :     1.747887
      dz2     :     0.005644  d :     0.017624
      dxz     :     0.003579
      dyz     :     0.005660
      dx2y2   :     0.001496
      dxy     :     0.001245
      f0      :     0.000162  f :     0.000758
      f+1     :     0.000113
      f-1     :     0.000231
      f+2     :     0.000114
      f-2     :     0.000107
      f+3     :     0.000016
      f-3     :     0.000014

 19 F s       :     3.916932  s :     3.916932
      pz      :     1.887251  p :     5.228013
      px      :     1.828399
      py      :     1.512363
      dz2     :     0.002087  d :     0.014900
      dxz     :     0.000710
      dyz     :     0.002645
      dx2y2   :     0.004590
      dxy     :     0.004868
      f0      :     0.000057  f :     0.000664
      f+1     :     0.000030
      f-1     :     0.000113
      f+2     :     0.000045
      f-2     :     0.000061
      f+3     :     0.000214
      f-3     :     0.000144

 20 F s       :     3.918360  s :     3.918360
      pz      :     1.489634  p :     5.219335
      px      :     1.841145
      py      :     1.888557
      dz2     :     0.006599  d :     0.015532
      dxz     :     0.004934
      dyz     :     0.002838
      dx2y2   :     0.000573
      dxy     :     0.000589
      f0      :     0.000230  f :     0.000693
      f+1     :     0.000246
      f-1     :     0.000105
      f+2     :     0.000054
      f-2     :     0.000050
      f+3     :     0.000004
      f-3     :     0.000005

 21 F s       :     3.913136  s :     3.913136
      pz      :     1.882861  p :     5.209625
      px      :     1.836825
      py      :     1.489939
      dz2     :     0.002293  d :     0.016093
      dxz     :     0.000606
      dyz     :     0.002906
      dx2y2   :     0.005258
      dxy     :     0.005029
      f0      :     0.000063  f :     0.000758
      f+1     :     0.000030
      f-1     :     0.000137
      f+2     :     0.000058
      f-2     :     0.000056
      f+3     :     0.000241
      f-3     :     0.000172

 22 F s       :     3.910943  s :     3.910943
      pz      :     1.635673  p :     5.205934
      px      :     1.694853
      py      :     1.875409
      dz2     :     0.003623  d :     0.016236
      dxz     :     0.006469
      dyz     :     0.002224
      dx2y2   :     0.002121
      dxy     :     0.001797
      f0      :     0.000103  f :     0.000770
      f+1     :     0.000249
      f-1     :     0.000049
      f+2     :     0.000166
      f-2     :     0.000127
      f+3     :     0.000038
      f-3     :     0.000038

 23 F s       :     3.911573  s :     3.911573
      pz      :     1.549496  p :     5.208393
      px      :     1.775324
      py      :     1.883573
      dz2     :     0.005411  d :     0.016191
      dxz     :     0.005845
      dyz     :     0.002693
      dx2y2   :     0.001186
      dxy     :     0.001056
      f0      :     0.000170  f :     0.000766
      f+1     :     0.000285
      f-1     :     0.000087
      f+2     :     0.000106
      f-2     :     0.000091
      f+3     :     0.000014
      f-3     :     0.000013

 24 H s       :     0.575965  s :     0.575965
      pz      :     0.012283  p :     0.041703
      px      :     0.019146
      py      :     0.010274


SPIN
  0 C s       :     0.000340  s :     0.000340
      pz      :     0.000039  p :     0.000133
      px      :     0.000045
      py      :     0.000049
      dz2     :    -0.000006  d :     0.000037
      dxz     :     0.000013
      dyz     :     0.000018
      dx2y2   :    -0.000009
      dxy     :     0.000021
      f0      :     0.000000  f :     0.000002
      f+1     :     0.000001
      f-1     :    -0.000000
      f+2     :    -0.000000
      f-2     :     0.000000
      f+3     :    -0.000000
      f-3     :     0.000001

  1 O s       :     0.000013  s :     0.000013
      pz      :     0.000110  p :     0.000060
      px      :    -0.000016
      py      :    -0.000034
      dz2     :    -0.000000  d :     0.000004
      dxz     :     0.000003
      dyz     :    -0.000000
      dx2y2   :     0.000001
      dxy     :     0.000000
      f0      :     0.000000  f :     0.000000
      f+1     :    -0.000000
      f-1     :     0.000000
      f+2     :     0.000000
      f-2     :     0.000000
      f+3     :     0.000000
      f-3     :     0.000000

  2 O s       :     0.000009  s :     0.000009
      pz      :     0.000477  p :     0.000475
      px      :    -0.000052
      py      :     0.000051
      dz2     :    -0.000000  d :    -0.000001
      dxz     :    -0.000000
      dyz     :    -0.000001
      dx2y2   :     0.000000
      dxy     :    -0.000000
      f0      :    -0.000000  f :    -0.000000
      f+1     :    -0.000000
      f-1     :    -0.000000
      f+2     :    -0.000000
      f-2     :    -0.000000
      f+3     :     0.000000
      f-3     :     0.000000

  3 C s       :    -0.000179  s :    -0.000179
      pz      :     0.000475  p :     0.001879
      px      :     0.000693
      py      :     0.000711
      dz2     :     0.000063  d :     0.000309
      dxz     :    -0.000013
      dyz     :     0.000024
      dx2y2   :     0.000224
      dxy     :     0.000011
      f0      :    -0.000001  f :     0.000006
      f+1     :     0.000001
      f-1     :    -0.000000
      f+2     :     0.000003
      f-2     :     0.000003
      f+3     :     0.000002
      f-3     :    -0.000001

  4 C s       :    -0.000773  s :    -0.000773
      pz      :     0.000342  p :     0.005321
      px      :     0.002742
      py      :     0.002236
      dz2     :     0.000052  d :     0.000638
      dxz     :     0.000051
      dyz     :     0.000002
      dx2y2   :     0.000398
      dxy     :     0.000135
      f0      :    -0.000002  f :     0.000020
      f+1     :     0.000000
      f-1     :     0.000001
      f+2     :     0.000001
      f-2     :    -0.000001
      f+3     :     0.000010
      f-3     :     0.000010

  5 C s       :    -0.002675  s :    -0.002675
      pz      :     0.003610  p :     0.025834
      px      :     0.011239
      py      :     0.010984
      dz2     :     0.000639  d :     0.004396
      dxz     :     0.000207
      dyz     :     0.000084
      dx2y2   :     0.003288
      dxy     :     0.000178
      f0      :    -0.000009  f :    -0.000001
      f+1     :     0.000003
      f-1     :    -0.000008
      f+2     :    -0.000009
      f-2     :     0.000009
      f+3     :     0.000034
      f-3     :    -0.000021

  6 C s       :    -0.008275  s :    -0.008275
      pz      :    -0.002632  p :    -0.035283
      px      :    -0.028403
      py      :    -0.004248
      dz2     :     0.000730  d :     0.020056
      dxz     :     0.004364
      dyz     :    -0.000112
      dx2y2   :     0.007162
      dxy     :     0.007912
      f0      :     0.000163  f :     0.001157
      f+1     :    -0.000004
      f-1     :     0.000094
      f+2     :     0.000035
      f-2     :     0.000056
      f+3     :     0.000742
      f-3     :     0.000072

  7 C s       :     0.053615  s :     0.053615
      pz      :     0.159672  p :     0.794034
      px      :     0.082998
      py      :     0.551364
      dz2     :     0.001795  d :     0.003414
      dxz     :     0.000670
      dyz     :     0.001002
      dx2y2   :    -0.000712
      dxy     :     0.000659
      f0      :    -0.000205  f :    -0.002206
      f+1     :    -0.000132
      f-1     :    -0.000557
      f+2     :    -0.000537
      f-2     :    -0.000185
      f+3     :    -0.000302
      f-3     :    -0.000288

  8 C s       :    -0.007819  s :    -0.007819
      pz      :    -0.008529  p :    -0.012738
      px      :    -0.019056
      py      :     0.014847
      dz2     :     0.005045  d :     0.014252
      dxz     :    -0.000909
      dyz     :     0.001349
      dx2y2   :     0.000048
      dxy     :     0.008718
      f0      :     0.000157  f :     0.001578
      f+1     :     0.000484
      f-1     :     0.000004
      f+2     :    -0.000007
      f-2     :     0.000619
      f+3     :    -0.000025
      f-3     :     0.000346

  9 C s       :    -0.001729  s :    -0.001729
      pz      :    -0.000133  p :    -0.002333
      px      :    -0.003677
      py      :     0.001476
      dz2     :    -0.000028  d :    -0.000199
      dxz     :    -0.000057
      dyz     :    -0.000039
      dx2y2   :    -0.000064
      dxy     :    -0.000012
      f0      :    -0.000004  f :     0.000033
      f+1     :     0.000004
      f-1     :     0.000002
      f+2     :    -0.000001
      f-2     :    -0.000008
      f+3     :     0.000033
      f-3     :     0.000007

 10 F s       :     0.000034  s :     0.000034
      pz      :     0.000002  p :    -0.000051
      px      :    -0.000003
      py      :    -0.000050
      dz2     :     0.000000  d :     0.000004
      dxz     :     0.000000
      dyz     :     0.000000
      dx2y2   :     0.000002
      dxy     :     0.000000
      f0      :    -0.000000  f :     0.000000
      f+1     :     0.000000
      f-1     :     0.000000
      f+2     :     0.000000
      f-2     :     0.000000
      f+3     :     0.000000
      f-3     :     0.000000

 11 F s       :     0.000007  s :     0.000007
      pz      :    -0.000030  p :     0.000092
      px      :     0.000032
      py      :     0.000090
      dz2     :     0.000000  d :     0.000003
      dxz     :     0.000001
      dyz     :     0.000001
      dx2y2   :     0.000000
      dxy     :     0.000001
      f0      :     0.000000  f :     0.000000
      f+1     :     0.000000
      f-1     :    -0.000000
      f+2     :    -0.000000
      f-2     :     0.000000
      f+3     :     0.000000
      f-3     :     0.000000

 12 F s       :    -0.000000  s :    -0.000000
      pz      :    -0.000005  p :    -0.000177
      px      :    -0.000060
      py      :    -0.000112
      dz2     :     0.000001  d :     0.000010
      dxz     :     0.000000
      dyz     :    -0.000000
      dx2y2   :     0.000003
      dxy     :     0.000006
      f0      :    -0.000000  f :     0.000000
      f+1     :     0.000000
      f-1     :    -0.000000
      f+2     :    -0.000000
      f-2     :    -0.000000
      f+3     :     0.000000
      f-3     :     0.000000

 13 F s       :     0.000016  s :     0.000016
      pz      :    -0.000109  p :     0.000156
      px      :     0.000077
      py      :     0.000189
      dz2     :     0.000001  d :     0.000011
      dxz     :     0.000010
      dyz     :    -0.000001
      dx2y2   :    -0.000000
      dxy     :     0.000001
      f0      :     0.000000  f :     0.000000
      f+1     :     0.000000
      f-1     :    -0.000000
      f+2     :     0.000000
      f-2     :     0.000000
      f+3     :    -0.000000
      f-3     :     0.000000

 14 F s       :     0.000333  s :     0.000333
      pz      :     0.000788  p :    -0.000500
      px      :    -0.000905
      py      :    -0.000383
      dz2     :     0.000000  d :     0.000059
      dxz     :     0.000002
      dyz     :     0.000004
      dx2y2   :     0.000055
      dxy     :    -0.000002
      f0      :    -0.000000  f :     0.000003
      f+1     :     0.000000
[...]
 11:     61.10   0.000070    0.35  0.000356  (-0.009574  0.004915 -0.015485)
 12:     68.84   0.000095    0.48  0.000433  (-0.011109 -0.010834 -0.013857)
 13:     73.68   0.000049    0.25  0.000208  (-0.002167 -0.003021 -0.013937)
 14:     99.84   0.000310    1.57  0.000969  ( 0.026466 -0.008695  0.013875)
 15:    118.25   0.000312    1.58  0.000823  ( 0.001750  0.012263  0.025868)
 16:    150.57   0.000078    0.39  0.000162  ( 0.006043 -0.010639  0.003502)
 17:    161.00   0.000090    0.45  0.000174  ( 0.006457  0.001847  0.011351)
 18:    180.37   0.000243    1.23  0.000420  (-0.005874  0.005177  0.018948)
 19:    192.62   0.001558    7.87  0.002524  (-0.027312  0.003734 -0.042001)
 20:    197.37   0.001232    6.22  0.001948  ( 0.026829 -0.032881 -0.012108)
 21:    212.16   0.000172    0.87  0.000252  (-0.001806  0.011386 -0.010936)
 22:    231.13   0.000053    0.27  0.000071  (-0.007776 -0.001564  0.002864)
 23:    237.34   0.000040    0.20  0.000053  (-0.003707  0.001863  0.005953)
 24:    252.06   0.000425    2.15  0.000526  ( 0.022402  0.004257 -0.002461)
 25:    269.91   0.000985    4.98  0.001138  (-0.030077  0.004703  0.014548)
 26:    282.77   0.000624    3.16  0.000689  ( 0.023396 -0.001108 -0.011856)
 27:    303.94   0.000010    0.05  0.000010  (-0.001960  0.002426 -0.000307)
 28:    316.38   0.000032    0.16  0.000031  ( 0.004122  0.000074  0.003781)
 29:    336.13   0.000395    2.00  0.000367  ( 0.017042  0.004798  0.007309)
 30:    349.81   0.000043    0.22  0.000039  ( 0.005845  0.000129 -0.002093)
 31:    359.98   0.000359    1.81  0.000311  (-0.008023 -0.009984 -0.012116)
 32:    364.12   0.000263    1.33  0.000225  ( 0.010917  0.009750  0.003348)
 33:    367.67   0.000592    2.99  0.000503  (-0.020913 -0.008001  0.001110)
 34:    381.68   0.001273    6.44  0.001041  (-0.030617  0.008854  0.005041)
 35:    433.31   0.000033    0.17  0.000024  (-0.001811 -0.004441 -0.000885)
 36:    462.30   0.000518    2.62  0.000350  ( 0.007805 -0.005494 -0.016083)
 37:    489.97   0.004740   23.95  0.003019  (-0.041074 -0.033332  0.014860)
 38:    499.63   0.006124   30.95  0.003825  (-0.048699  0.004586  0.037850)
 39:    516.80   0.005069   25.62  0.003061  (-0.053055  0.012066  0.010025)
 40:    535.57   0.002177   11.00  0.001268  (-0.033312 -0.008778 -0.009028)
 41:    557.57   0.009813   49.59  0.005492  ( 0.009581  0.042387 -0.060033)
 42:    575.37   0.014385   72.70  0.007802  ( 0.070595 -0.033530  0.041159)
 43:    582.85   0.001284    6.49  0.000687  (-0.021812  0.001677  0.014445)
 44:    591.66   0.004919   24.86  0.002595  ( 0.008417  0.002719 -0.050163)
 45:    623.59   0.055077  278.34  0.027562  (-0.145150  0.072585 -0.035003)
 46:    637.50   0.004662   23.56  0.002282  (-0.002250 -0.008538  0.046948)
 47:    660.00   0.005561   28.10  0.002629  ( 0.041954  0.026206 -0.013509)
 48:    691.10   0.006384   32.26  0.002883  (-0.044990 -0.027348 -0.010518)
 49:    702.95   0.011830   59.79  0.005252  (-0.067992 -0.018652  0.016766)
 50:    745.76   0.005288   26.72  0.002213  ( 0.004101 -0.017741  0.043370)
 51:    769.34   0.009208   46.53  0.003735  ( 0.050386  0.001519 -0.034552)
 52:    862.66   0.006528   32.99  0.002362  (-0.019404 -0.015175  0.041889)
 53:    980.46   0.015013   75.87  0.004778  (-0.043975 -0.035657  0.039662)
 54:   1032.16   0.050917  257.31  0.015394  ( 0.048709 -0.113557  0.011242)
 55:   1087.15   0.016861   85.21  0.004840  (-0.058042  0.007230 -0.037664)
 56:   1095.97   0.066225  334.68  0.018857  ( 0.005255  0.120253 -0.066094)
 57:   1111.02   0.020581  104.01  0.005781  (-0.009290 -0.033709  0.067515)
 58:   1125.47   0.044526  225.02  0.012346  ( 0.041853 -0.013112 -0.102090)
 59:   1130.02   0.006211   31.39  0.001715  (-0.017704  0.000929 -0.037427)
 60:   1133.81   0.059802  302.21  0.016459  ( 0.012156 -0.010699 -0.127268)
 61:   1144.33   0.261626  1322.15  0.071347  ( 0.005374 -0.193653 -0.183892)
 62:   1147.81   0.013337   67.40  0.003626  (-0.024419 -0.054302 -0.009006)
 63:   1161.75   0.072997  368.90  0.019608  ( 0.089377 -0.094431  0.051985)
 64:   1166.45   0.038925  196.71  0.010414  (-0.008911 -0.010605  0.101103)
 65:   1169.35   0.002847   14.39  0.000760  ( 0.019342 -0.015633  0.011891)
 66:   1189.92   0.009202   46.50  0.002413  (-0.027704  0.040510  0.002177)
 67:   1241.68   0.011957   60.42  0.003005  (-0.042650 -0.024451  0.024251)
 68:   1261.45   0.044731  226.05  0.011066  ( 0.077332  0.020368 -0.068342)
 69:   1268.30   0.009726   49.15  0.002393  ( 0.046939  0.013508 -0.002698)
 70:   1344.78   0.001125    5.69  0.000261  (-0.013852 -0.003752 -0.007430)
 71:   1382.97   0.016104   81.38  0.003634  (-0.051204  0.008903 -0.030542)
 72:   1394.54   0.016698   84.38  0.003737  ( 0.022298 -0.038106 -0.042277)
 73:   1807.52   0.091916  464.51  0.015869  (-0.047222 -0.101880 -0.057092)
 74:   3601.55   0.047694  241.03  0.004133  (-0.056125  0.008753  0.030099)

* The epsilon (eps) is given for a Dirac delta lineshape.
** The dipole moment derivative (T) already includes vibrational overlap.

The first frequency considered to be a vibration is 6
The total number of vibrations considered is 69


--------------------------
THERMOCHEMISTRY AT 298.15K
--------------------------

Temperature         ...   298.15 K
Pressure            ...     1.00 atm
Total Mass          ...   395.07 AMU
Quasi RRHO          ...     True
Cut-Off Frequency   ...     1.00 cm^-1

Throughout the following assumptions are being made:
  (1) The electronic state is orbitally nondegenerate
      but the spin degeneracy is treated
  (2) There are no thermally accessible electronically excited states
  (3) Hindered rotations indicated by low frequency modes are not
      treated as such but are treated as vibrations and this may
      cause some error
  (4) All equations used are the standard statistical mechanics
      equations for an ideal gas
  (5) All vibrations are strictly harmonic

freq.      18.78  E(vib)   ...       0.57 
freq.      25.26  E(vib)   ...       0.56 
freq.      37.99  E(vib)   ...       0.54 
freq.      43.10  E(vib)   ...       0.53 
freq.      50.32  E(vib)   ...       0.52 
freq.      61.10  E(vib)   ...       0.51 
freq.      68.84  E(vib)   ...       0.50 
freq.      73.68  E(vib)   ...       0.49 
freq.      99.84  E(vib)   ...       0.46 
freq.     118.25  E(vib)   ...       0.44 
freq.     150.57  E(vib)   ...       0.40 
freq.     161.00  E(vib)   ...       0.39 
freq.     180.37  E(vib)   ...       0.37 
freq.     192.62  E(vib)   ...       0.36 
freq.     197.37  E(vib)   ...       0.35 
freq.     212.16  E(vib)   ...       0.34 
freq.     231.13  E(vib)   ...       0.32 
freq.     237.34  E(vib)   ...       0.32 
freq.     252.06  E(vib)   ...       0.30 
freq.     269.91  E(vib)   ...       0.29 
freq.     282.77  E(vib)   ...       0.28 
freq.     303.94  E(vib)   ...       0.26 
freq.     316.38  E(vib)   ...       0.25 
freq.     336.13  E(vib)   ...       0.24 
freq.     349.81  E(vib)   ...       0.23 
freq.     359.98  E(vib)   ...       0.22 
freq.     364.12  E(vib)   ...       0.22 
freq.     367.67  E(vib)   ...       0.21 
freq.     381.68  E(vib)   ...       0.21 
freq.     433.31  E(vib)   ...       0.17 
freq.     462.30  E(vib)   ...       0.16 
freq.     489.97  E(vib)   ...       0.15 
freq.     499.63  E(vib)   ...       0.14 
freq.     516.80  E(vib)   ...       0.13 
freq.     535.57  E(vib)   ...       0.12 
freq.     557.57  E(vib)   ...       0.12 
freq.     575.37  E(vib)   ...       0.11 
freq.     582.85  E(vib)   ...       0.11 
freq.     591.66  E(vib)   ...       0.10 
freq.     623.59  E(vib)   ...       0.09 
freq.     637.50  E(vib)   ...       0.09 
freq.     660.00  E(vib)   ...       0.08 
freq.     691.10  E(vib)   ...       0.07 
freq.     702.95  E(vib)   ...       0.07 
freq.     745.76  E(vib)   ...       0.06 
freq.     769.34  E(vib)   ...       0.06 
freq.     862.66  E(vib)   ...       0.04 
freq.     980.46  E(vib)   ...       0.02 
freq.    1032.16  E(vib)   ...       0.02 
freq.    1087.15  E(vib)   ...       0.02 
freq.    1095.97  E(vib)   ...       0.02 
freq.    1111.02  E(vib)   ...       0.01 
freq.    1125.47  E(vib)   ...       0.01 
freq.    1130.02  E(vib)   ...       0.01 
freq.    1133.81  E(vib)   ...       0.01 
freq.    1144.33  E(vib)   ...       0.01 
freq.    1147.81  E(vib)   ...       0.01 
freq.    1161.75  E(vib)   ...       0.01 
freq.    1166.45  E(vib)   ...       0.01 
freq.    1169.35  E(vib)   ...       0.01 
freq.    1189.92  E(vib)   ...       0.01 
freq.    1241.68  E(vib)   ...       0.01 
freq.    1261.45  E(vib)   ...       0.01 
freq.    1268.30  E(vib)   ...       0.01 
freq.    1344.78  E(vib)   ...       0.01 
freq.    1382.97  E(vib)   ...       0.01 
freq.    1394.54  E(vib)   ...       0.00 
freq.    1807.52  E(vib)   ...       0.00 
freq.    3601.55  E(vib)   ...       0.00 

------------
INNER ENERGY
------------

The inner energy is: U= E(el) + E(ZPE) + E(vib) + E(rot) + E(trans)
    E(el)   - is the total energy from the electronic structure calculation
              = E(kin-el) + E(nuc-el) + E(el-el) + E(nuc-nuc)
    E(ZPE)  - the the zero temperature vibrational energy from the frequency calculation
    E(vib)  - the the finite temperature correction to E(ZPE) due to population
              of excited vibrational states
    E(rot)  - is the rotational thermal energy
    E(trans)- is the translational thermal energy

Summary of contributions to the inner energy U:
Electronic energy                ...  -1854.40945011 Eh
Zero point energy                ...      0.10402241 Eh      65.27 kcal/mol
Thermal vibrational correction   ...      0.02040483 Eh      12.80 kcal/mol
Thermal rotational correction    ...      0.00141627 Eh       0.89 kcal/mol
Thermal translational correction ...      0.00141627 Eh       0.89 kcal/mol
-----------------------------------------------------------------------
Total thermal energy                  -1854.28219032 Eh


Summary of corrections to the electronic energy:
(perhaps to be used in another calculation)
Total thermal correction                  0.02323738 Eh      14.58 kcal/mol
Non-thermal (ZPE) correction              0.10402241 Eh      65.27 kcal/mol
-----------------------------------------------------------------------
Total correction                          0.12725979 Eh      79.86 kcal/mol


--------
ENTHALPY
--------

The enthalpy is H = U + kB*T
                kB is Boltzmann's constant
Total thermal energy              ...  -1854.28219032 Eh 
Thermal Enthalpy correction       ...      0.00094421 Eh       0.59 kcal/mol
-----------------------------------------------------------------------
Total Enthalpy                    ...  -1854.28124611 Eh


Note: Only C1 symmetry has been detected, increase convergence thresholds 
      if your molecule has a higher symmetry. Symmetry factor of 1.0 is   
      used for the rotational entropy correction. 
 

Note: Rotational entropy computed according to Herzberg 
Infrared and Raman Spectra, Chapter V,1, Van Nostrand Reinhold, 1945 
Point Group:  C1, Symmetry Number:   1  
Rotational constants in cm-1:     0.020123     0.004045     0.004001 

Vibrational entropy computed according to the QRRHO of S. Grimme
Chem.Eur.J. 2012 18 9955 using a reference frequency of 100.0 cm-1


-------
ENTROPY
-------

The entropy contributions are T*S = T*(S(el)+S(vib)+S(rot)+S(trans))
     S(el)   - electronic entropy
     S(vib)  - vibrational entropy
     S(rot)  - rotational entropy
     S(trans)- translational entropy
The entropies will be listed as multiplied by the temperature to get
units of energy

Electronic entropy                ...      0.00065446 Eh      0.41 kcal/mol
Vibrational entropy               ...      0.03694910 Eh     23.19 kcal/mol
Rotational entropy                ...      0.01656264 Eh     10.39 kcal/mol
Translational entropy             ...      0.02081703 Eh     13.06 kcal/mol
-----------------------------------------------------------------------
Final entropy term                ...      0.07498324 Eh     47.05 kcal/mol

In case the symmetry of your molecule has not been determined correctly
or in case you have a reason to use a different symmetry number we print 
out the resulting rotational entropy values for sn=1,12:

 non-linear molecules -----------------------------------
|  sn= 1 | S(rot)=       0.01656264 Eh     10.39 kcal/mol|
|  sn= 2 | S(rot)=       0.01590819 Eh      9.98 kcal/mol|
|  sn= 3 | S(rot)=       0.01552535 Eh      9.74 kcal/mol|
|  sn= 4 | S(rot)=       0.01525373 Eh      9.57 kcal/mol|
|  sn= 5 | S(rot)=       0.01504304 Eh      9.44 kcal/mol|
|  sn= 6 | S(rot)=       0.01487090 Eh      9.33 kcal/mol|
|  sn= 7 | S(rot)=       0.01472535 Eh      9.24 kcal/mol|
|  sn= 8 | S(rot)=       0.01459927 Eh      9.16 kcal/mol|
|  sn= 9 | S(rot)=       0.01448807 Eh      9.09 kcal/mol|
|  sn=10 | S(rot)=       0.01438859 Eh      9.03 kcal/mol|
|  sn=11 | S(rot)=       0.01429860 Eh      8.97 kcal/mol|
|  sn=12 | S(rot)=       0.01421644 Eh      8.92 kcal/mol|
 linear molecules ---------------------------------------
|  Dinfh | S(rot)=       0.01053891 Eh      6.61 kcal/mol|
|  Cinfv | S(rot)=       0.01119336 Eh      7.02 kcal/mol|
 --------------------------------------------------------


-------------------
GIBBS FREE ENERGY
-------------------

The Gibbs free energy is G = H - T*S

Total enthalpy                    ...  -1854.28124611 Eh 
Total entropy correction          ...     -0.07498324 Eh    -47.05 kcal/mol
-----------------------------------------------------------------------
Final Gibbs free energy         ...  -1854.35622934 Eh

For completeness - the Gibbs free energy minus the electronic energy
G-E(el)                           ...      0.05322076 Eh     33.40 kcal/mol


Maximum memory used throughout the entire PROP-calculation: 545.3 MB

--------------------------------
SUGGESTED CITATIONS FOR THIS RUN
--------------------------------

Below you find a list of papers that are relevant to this ORCA run
We neither can nor want to force you to cite these papers, but we appreciate if you do
You receive ORCA, which is the product of decades of hard work by many enthusiastic individuals, for free
The only thing we kindly ask in return is that you cite our papers,
We deeply appreciate it, if you show your appreciation for ORCA by not just citing the generic ORCA reference.

Please note that relegating all ORCA citations to the supporting information does *not* help us.
SI sections are not indexed - citations you put there will not count into any citation statistics
But we need these citations in order to attract the funding resources that allow us to do what we are doing

Therefore, if you are a happy ORCA user, please consider citing a few of the papers listed below in the main body of your paper

In addition to the list printed below, the program has created the file rf_mecn_freq_TP_C6_P_B.bibtex that contains the list in bibtex format
You can import this file easily into all common literature databanks and citation aid programs


List of essential papers. We consider these as the minimum necessary citations

  1. Neese,F.
     Software update: the ORCA program system, version 5.0
     WIRES Comput. Molec. Sci., 2022 12(1)e1606
     doi.org/10.1002/wcms.1606

List of papers to cite with high priority. The work reported in these papers was absolutely
necessary for this run to complete.
Our perspective: the developers of density functionals and basis sets usually get cited in chemistry papers
Good! But without the algorithms to do something with them, the functionals or basis sets would not do anything.
Hence, in our opinion, the algorithm design and method developments papers are equally worthy of getting cited

  1. Neese,F.
     An improvement of the resolution of the identity approximation for the formation of the Coulomb matrix
     J. Comp. Chem., 2003 24(14)1740-1747
     doi.org/10.1002/jcc.10318
  2. Neese,F.; Wennmohs,F.; Hansen,A.; Becker,U.
     Efficient, approximate and parallel Hartree-Fock and hybrid DFT calculations. A 'chain-of-spheres' algorithm for the Hartree-Fock exchange
     Chem. Phys., 2009 356(1-3)98-109
     doi.org/10.1016/j.chemphys.2008.10.036
  3. Bykov,D.; Petrenko,T.; Izsak,R.; Kossmann,S.; Becker,U.; Valeev,E.; Neese,F.
     Efficient implementation of the analytic second derivatives of Hartree-Fock and hybrid DFT energies: a detailed analysis of different approximations
     Molec. Phys., 2015 113 1961-1977
     doi.org/10.1080/00268976.2015.1025114
  4. Garcia-Rates,M.; Neese,F.
     Efficient implementation of the analytical second derivatives of hartree-fock and hybrid DFT energies within the framework of the conductor-like polarizable continuum model
     J. Comput. Chem., 2019 40 1816-1828
     doi.org/10.1002/jcc.25833
  5. Garcia-Rates,M.; Neese,F.
     Effect of the Solute Cavity on the Solvation Energy and its Derivatives within the Framework of the Gaussian Charge Scheme
     J. Comput. Chem., 2020 41 922-939
     doi.org/10.1002/jcc.26139
  6. Helmich-Paris,B.; de Souza,B.; Neese,F.; Izsák,R.
     An improved chain of spheres for exchange algorithm
     J. Chem. Phys., 2021 155 104109
     doi.org/doi: 10.1063/5.0058766.
  7. Neese,F.
     The SHARK Integral Generation and Digestion System
     J. Comp. Chem., 2022  1-16
     doi.org/10.1002/jcc.26942
  8. Grimme,S.; Antony,J.; Ehrlich,S.; Krieg,H.
     A consistent and accurate ab initio parametrization of density functional dispersion correction (DFT-D) for the 94 elements H-Pu
     J. Chem. Phys., 2010 132 154104
     doi.org/10.1063/1.3382344
  9. Grimme,S.; Ehrlich,S.; Goerigk,L.
     Effect of the damping function in dispersion corrected density functional theory
     J. Comput. Chem., 2011 32(7)1456-1465
     doi.org/10.1002/jcc.21759

List of suggested additional citations. These are papers that are important in the 'surrounding' of 
of this run, or papers that preceded the highly important papers. If you like your results we are grateful for a citation.

  1. Izsak,R.; Neese,F.
     An overlap fitted chain of spheres exchange method
     J. Chem. Phys., 2011 135 144105
     doi.org/10.1063/1.3646921
  2. Izsak,R.; Hansen,A.; Neese,F.
     The resolution of identity and chain of spheres approximations for the LPNO-CCSD singles Fock term
     Molec. Phys., 2012 110 2413-2417
     doi.org/10.1080/00268976.2012.687466
  3. Neese,F.
     The ORCA program system
     WIRES Comput. Molec. Sci., 2012 2(1)73-78
     doi.org/10.1002/wcms.81
  4. Izsak,R.; Neese,F.; Klopper,W.
     Robust fitting techniques in the chain of spheres approximation to the Fock exchange: The role of the complementary space
     J. Chem. Phys., 2013 139 
     doi.org/10.1063/1.4819264
  5. Neese,F.
     Software update: the ORCA program system, version 4.0
     WIRES Comput. Molec. Sci., 2018 8(1)1-6
     doi.org/10.1002/wcms.1327
  6. Neese,F.; Wennmohs,F.; Becker,U.; Riplinger,C.
     The ORCA quantum chemistry program package
     J. Chem. Phys., 2020 152 Art. No. L224108
     doi.org/10.1063/5.0004608

List of optional additional citations

  1. Neese,F.
     Approximate second-order SCF convergence for spin unrestricted wavefunctions
     Chem. Phys. Lett., 2000 325(1-3)93-98
     doi.org/10.1016/s0009-2614(00)00662-x

Timings for individual modules:

Sum of individual times          ...     1426.066 sec (=  23.768 min)
Startup calculation              ...        3.616 sec (=   0.060 min)   0.3 %
SCF iterations                   ...       90.720 sec (=   1.512 min)   6.4 %
Property integrals               ...      435.625 sec (=   7.260 min)  30.5 %
SCF Response                     ...      616.831 sec (=  10.281 min)  43.3 %
Property calculations            ...      279.275 sec (=   4.655 min)  19.6 %
                             ****ORCA TERMINATED NORMALLY****
TOTAL RUN TIME: 0 days 0 hours 23 minutes 46 seconds 985 msec
