
                                 *****************
                                 * O   R   C   A *
                                 *****************

                                            #,                                       
                                            ###                                      
                                            ####                                     
                                            #####                                    
                                            ######                                   
                                           ########,                                 
                                     ,,################,,,,,                         
                               ,,#################################,,                 
                          ,,##########################################,,             
                       ,#########################################, ''#####,          
                    ,#############################################,,   '####,        
                  ,##################################################,,,,####,       
                ,###########''''           ''''###############################       
              ,#####''   ,,,,##########,,,,          '''####'''          '####       
            ,##' ,,,,###########################,,,                        '##       
           ' ,,###''''                  '''############,,,                           
         ,,##''                                '''############,,,,        ,,,,,,###''
      ,#''                                            '''#######################'''  
     '                                                          ''''####''''         
             ,#######,   #######,   ,#######,      ##                                
            ,#'     '#,  ##    ##  ,#'     '#,    #''#        ,####,   ,####,        
            ##       ##  ##   ,#'  ##            #'  '#       #'       #'  '#        
            ##       ##  #######   ##           ,######,      #####,   #    #        
            '#,     ,#'  ##    ##  '#,     ,#' ,#      #,     #,   #   #,  ,#        
             '#######'   ##     ##  '#######'  #'      '#     '####' # '####'        



                #########################################################
                #                        -***-                          #
                #          Department of theory and spectroscopy        #
                #                                                       #
                #                      Frank Neese                      #
                #                                                       #
                #     Directorship, Architecture, Infrastructure        #
                #                    SHARK, DRIVERS                     #
                #        Core code/Algorithms in most modules           #
                #                                                       #
                #        Max Planck Institute fuer Kohlenforschung      #
                #                Kaiser Wilhelm Platz 1                 #
                #                 D-45470 Muelheim/Ruhr                 #
                #                      Germany                          #
                #                                                       #
                #                  All rights reserved                  #
                #                        -***-                          #
                #########################################################


                         Program Version 6.0.1  -  RELEASE   -


 With contributions from (in alphabetic order):
[Max-Planck-Institut fuer Kohlenforschung]                               
  Daniel Aravena         : Magnetic Suceptibility                        
  Michael Atanasov       : Ab Initio Ligand Field Theory (pilot matlab implementation)
  Alexander A. Auer      : GIAO ZORA, VPT2 properties, NMR spectrum      
  Ute Becker             : All parallelization in ORCA, NUMFREQ, NUMCALC 
  Giovanni Bistoni       : ED, misc. LED, open-shell LED, HFLD           
  Martin Brehm           : Molecular dynamics                            
  Dmytro Bykov           : pre 5.0 version of the SCF Hessian            
  Marcos Casanova-Páez   : Triplet and SCS-CIS(D). UHF-(DLPNO)-IP/EA/STEOM-CCSD. UHF-CVS-IP/STEOM-CCSD   
  Vijay G. Chilkuri      : MRCI spin determinant printing, contributions to CSF-ICE 
  Pauline Colinet        : FMM embedding                                 
  Dipayan Datta          : RHF DLPNO-CCSD density                        
  Achintya Kumar Dutta   : EOM-CC, STEOM-CC                              
  Nicolas Foglia         : Exact transition moments, OPA infrastructure, MCD improvements    
  Dmitry Ganyushin       : Spin-Orbit,Spin-Spin,Magnetic field MRCI      
  Miquel Garcia-Rates    : C-PCM and meta-GGA Hessian, CCSD/C-PCM, Gaussian charge scheme 
  Tiago L. C. Gouveia    : GS-ROHF, GS-ROCIS                             
  Yang Guo               : DLPNO-NEVPT2, F12-NEVPT2, CIM, IAO-localization        
  Andreas Hansen         : Spin unrestricted coupled pair/coupled cluster methods 
  Ingolf Harden          : AUTO-CI MPn and infrastructure                
  Benjamin Helmich-Paris : MC-RPA, TRAH-(SCF,CASSCF), AVAS, COSX integrals, SCF dyn. polar. 
  Lee Huntington         : MR-EOM, pCC                                   
  Robert Izsak           : Overlap fitted RIJCOSX, COSX-SCS-MP3, EOM     
  Riya Kayal             : Wick's Theorem for AUTO-CI, AUTO-CI UHF-CCSDT 
  Emily Kempfer          : AUTO-CI, RHF CISDT and CCSDT                  
  Christian Kollmar      : KDIIS, OOCD, Brueckner-CCSD(T), CCSD density, CASPT2, CASPT2-K, improved NEVPT2 
  Axel Koslowski         : Symmetry handling                             
  Simone Kossmann        : meta-GGA functionals, TD-DFT gradient, OOMP2, (MP2 Hessian; deprecated post 5.0) 
  Lucas Lang             : DCDCAS                                        
  Marvin Lechner         : AUTO-CI (C++ implementation), FIC-MRCC        
  Spencer Leger          : CASSCF response                               
  Dagmar Lenk            : GEPOL surface, SMD, ORCA-2-JSON               
  Dimitrios Liakos       : Extrapolation schemes; Compound Job, initial MDCI parallelization 
  Dimitrios Manganas     : Further ROCIS development; embedding schemes. LFT, Crystal Embedding 
  Dimitrios Pantazis     : SARC Basis sets                               
  Anastasios Papadopoulos: AUTO-CI, single reference methods and gradients 
  Taras Petrenko         : pre 6.0 DFT Hessian and TD-DFT gradient, (ASA, deprecated), ECA, 1-Electron XAS/XES, NRVS 
  Peter Pinski           : DLPNO-MP2, DLPNO-MP2 Gradient                 
  Christoph Reimann      : Effective Core Potentials                     
  Marius Retegan         : Local ZFS, SOC                                
  Christoph Riplinger    : Optimizer, TS searches, QM/MM, DLPNO-CCSD(T), (RO)-DLPNO pert. Triples 
  Michael Roemelt        : Original ROCIS implementation                 
  Masaaki Saitow         : Open-shell DLPNO-CCSD energy and density      
  Barbara Sandhoefer     : DKH picture change effects                    
  Kantharuban Sivalingam : CASSCF convergence/infrastructure, NEVPT2 and variants, FIC-MRCI 
  Bernardo de Souza      : ESD, SOC TD-DFT                               
  Georgi L. Stoychev     : AutoAux, RI-MP2 NMR, DLPNO-MP2 response, X2C  
  Van Anh Tran           : RI-MP2 g-tensors                              
  Willem Van den Heuvel  : Paramagnetic NMR                              
  Zikuan Wang            : NOTCH, Electric field optimization            
  Frank Wennmohs         : Technical directorship and infrastructure     
  Hang Xu                : AUTO-CI-Response properties                   
                                                                         
[FACCTs GmbH]                                                            
  Markus Bursch, Miquel Garcia-Rates, Christoph Riplinger, Bernardo de Souza, Georgi L. Stoychev 
                                                                 
  APM, Basis sets (HGBS, AHGBS, def-TZVP (Ac-Lr), def2-XVPD (La-Lu)), CI-OPT, improved COSX, DLPNO-Multilevel,           
  DOCKER, DRACO, updates on ESD, GOAT, IRC, LR-CPCM, MBIS, meta-GGA TD-DFT gradient, ML-optimized integration grids, 
  MM, NACMEs, nearIR, NEB, NEB-TS, NL-DFT gradient (VV10), 2- and 3-layer-ONIOM, interface openCOSMO-RS, QMMM,   
  Crystal-QMMM, SF, symmetry and pop. for TD-DFT, r2SCAN hybrids, SOLVATOR                                   
                                                                         
[Other institutions]                                                     
  V. Asgeirsson          : NEB                                           
  Christoph Bannwarth    : sTDA-DFT, sTD-DFT, PBEh-3c, B97-3c, D3        
  Sebastian Ehlert       : rSCAN, r2SCAN, r2SCAN-3c, D4, dhf basis sets  
  Marvin Friede          : D4 for Fr, Ra, Ac-Lr                          
  Lars Goerigk           : TD-DFT with DH, B97 family of functionals     
  Stefan Grimme          : VdW corrections, initial TS optimization, DFT functionals, gCP, sTDA/sTD-DF 
  Waldemar Hujo          : DFT-NL                                        
  H. Jonsson             : NEB                                           
  Holger Kruse           : gCP                                           
  Marcel Mueller         : wB97X-3c, vDZP basis set                      
  Hagen Neugebauer       : wr2SCAN                                       
  Tobias Risthaus        : range-separated hybrid DFT                    
  Lukas Wittmann         : regularized MP2, r2SCAN double-hybrids, wr2SCAN        
                                                                         
We gratefully acknowledge several colleagues who have allowed us to      
interface, adapt or use parts of their codes:                            
  Ed Valeev, F. Pavosevic, A. Kumar             : LibInt (2-el integral package), F12 methods 
  Garnet Chan, S. Sharma, J. Yang, R. Olivares  : DMRG                   
  Ulf Ekstrom                                   : XCFun DFT Library      
  Mihaly Kallay                                 : mrcc  (arbitrary order and MRCC methods)
  Frank Weinhold                                : gennbo (NPA and NBO analysis)           
  Simon Mueller                                 : openCOSMO-RS                            
  Christopher J. Cramer and Donald G. Truhlar   : smd solvation model                     
  S Lehtola, MJT Oliveira, MAL Marques          : LibXC Library                           
  Liviu Ungur et al                             : ANISO software                          


 Your calculation uses the libint2 library for the computation of 2-el integrals
 For citations please refer to: http://libint.valeyev.net

 Your ORCA version has been built with support for libXC version: 6.2.2
 For citations please refer to: https://libxc.gitlab.io

 This ORCA versions uses:
   CBLAS   interface :  Fast vector & matrix operations
   LAPACKE interface :  Fast linear algebra routines
   SCALAPACK package :  Parallel linear algebra routines
   Shared memory     :  Shared parallel matrices
   BLAS/LAPACK       :  OpenBLAS 0.3.27  USE64BITINT DYNAMIC_ARCH NO_AFFINITY SkylakeX SINGLE_THREADED
        Core in use  :  SkylakeX
   Copyright (c) 2011-2014, The OpenBLAS Project


NOTE: MaxCore=8000 MB was set to SCF,MP2,MDCI,CIPSI,MRCI and CIS
      => If you want to overwrite this, your respective input block should be placed after the MaxCore statement
Your calculation utilizes the atom-pairwise dispersion correction
with the Becke-Johnson damping scheme (D3BJ)


Your calculation utilizes the SMD solvation module
Please cite in your paper:
A.V. Marenich, C.J. Cramer, D.G. Truhlar J. Phys. Chem. B, 113, (2009), 6378 

Warning: RI is on but no J-basis has been assigned. Assigning Def2/J (nothing to worry about!)
================================================================================

----- Orbital basis set information -----
Your calculation utilizes the basis: def2-TZVP
   F. Weigend and R. Ahlrichs, Phys. Chem. Chem. Phys. 7, 3297 (2005).

----- AuxJ basis set information -----
Your calculation utilizes the auxiliary basis: def2/J
   F. Weigend, Phys. Chem. Chem. Phys. 8, 1057 (2006).

================================================================================
                                        WARNINGS
                       Please study these warnings very carefully!
================================================================================


WARNING: your system is open-shell and RHF/RKS was chosen
  ===> : WILL SWITCH to UHF/UKS


WARNING: Geometry Optimization
  ===> : Switching off AutoStart
         For restart on a previous wavefunction, please use MOREAD

================================================================================
                                       INPUT FILE
================================================================================
NAME = rf_mecn_2H2O_opt_TP_con_002.inp
|  1> !TPSSh def2-TZVP opt d3 TightSCF SlowConv defgrid2
|  2>  
|  3> %pal
|  4> nprocs 20
|  5> end
|  6>  
|  7> %scf
|  8> MaxIter 1500
|  9> end
| 10>  
| 11> %maxcore 8000
| 12>  
| 13> !CPCM
| 14> %cpcm smd true
| 15> SMDsolvent "ACETONITRILE"
| 16> end
| 17>  
| 18> * xyz -1 2
| 19> 6        6.856165000     27.192116000      1.751510000
| 20> 6        6.229604000     25.803627000      2.099502000
| 21> 6        7.271743000     24.654678000      2.293887000
| 22> 6        6.708858000     23.399624000      3.054274000
| 23> 6        7.543584000     22.172258000      2.874312000
| 24> 6        7.148988000     20.826380000      2.333543000
| 25> 6        7.198436000     20.691602000      0.785195000
| 26> 6        6.800643000     19.268516000      0.251173000
| 27> 9        7.736102000     27.080281000      0.750104000
| 28> 9        7.471879000     27.718498000      2.812155000
| 29> 9        5.880275000     28.023033000      1.372215000
| 30> 9        5.503977000     25.961249000      3.227360000
| 31> 9        5.396519000     25.467532000      1.092081000
| 32> 9        7.696628000     24.261986000      1.072313000
| 33> 9        8.334703000     25.134721000      2.978209000
| 34> 9        6.650497000     23.731829000      4.380264000
| 35> 9        5.445190000     23.169034000      2.628542000
| 36> 9        8.842556000     22.344217000      3.098494000
| 37> 9        8.000140000     19.906116000      2.868245000
| 38> 9        5.887858000     20.520168000      2.744529000
| 39> 9        6.378105000     21.660536000      0.281346000
| 40> 9        8.469520000     21.022610000      0.402133000
| 41> 8        7.722296000     18.431419000      0.261170000
| 42> 8        5.613461000     19.139975000     -0.102152000
| 43> 8        3.313787000     20.639311000      0.271454000
| 44> 1        2.754960000     19.970339000      0.688133000
| 45> 1        4.175617000     20.183692000      0.135037000
| 46> 1        9.432565000     18.523462000      0.794773000
| 47> 8       10.361882000     18.384825000      1.084927000
| 48> 1       10.322875000     18.434501000      2.047961000
| 49> *
| 50> 
| 51>                          ****END OF INPUT****
================================================================================

                       *****************************
                       * Geometry Optimization Run *
                       *****************************

Geometry optimization settings:
Update method            Update   .... BFGS
Choice of coordinates    CoordSys .... (2022) Redundant Internals
Initial Hessian          InHess   .... Almloef's Model
Max. no of cycles        MaxIter  .... 90

Convergence Tolerances:
Energy Change            TolE     ....  5.0000e-06 Eh
Max. Gradient            TolMAXG  ....  3.0000e-04 Eh/bohr
RMS Gradient             TolRMSG  ....  1.0000e-04 Eh/bohr
Max. Displacement        TolMAXD  ....  4.0000e-03 bohr
RMS Displacement         TolRMSD  ....  2.0000e-03 bohr
Strict Convergence                .... False

------------------------------------------------------------------------------
                        ORCA OPTIMIZATION COORDINATE SETUP
------------------------------------------------------------------------------

The optimization will be done in redundant internal coordinates (2022)
Making redundant internal coordinates   ...  (2022 redundants) done
Evaluating the initial hessian          ...  (Almloef) done
Evaluating the coordinates              ...  done
Calculating the B-matrix                .... done
Calculating the G-matrix                .... done
Diagonalizing the G-matrix              .... done
Small eigenvalue found = 2.818e-03
Small eigenvalue found = 5.692e-03
Small eigenvalue found = 8.565e-03
Small eigenvalue found = 1.029e-02
Small eigenvalue found = 1.790e-02
The first mode is                       ....   40
The number of degrees of freedom        ....   84

    -----------------------------------------------------------------
                    Redundant Internal Coordinates


    -----------------------------------------------------------------
         Definition                    Initial Value    Approx d2E/dq
    -----------------------------------------------------------------
      1. B(C   1,C   0)                  1.5626         0.331465   
      2. B(C   2,C   1)                  1.5633         0.330553   
      3. B(C   3,C   2)                  1.5717         0.320534   
      4. B(C   4,C   3)                  1.4952         0.424542   
      5. B(C   5,C   4)                  1.5032         0.412269   
      6. B(C   6,C   5)                  1.5550         0.340807   
      7. B(C   7,C   6)                  1.5712         0.321133   
      8. B(F   8,C   0)                  1.3378         0.629952   
      9. B(F   9,C   0)                  1.3346         0.637321   
     10. B(F  10,C   0)                  1.3367         0.632519   
     11. B(F  11,C   1)                  1.3503         0.601488   
     12. B(F  12,C   1)                  1.3498         0.602762   
     13. B(F  13,C   2)                  1.3517         0.598605   
     14. B(F  14,C   2)                  1.3523         0.597269   
     15. B(F  15,C   3)                  1.3682         0.563276   
     16. B(F  16,C   3)                  1.3532         0.595120   
     17. B(F  17,C   4)                  1.3293         0.649740   
     18. B(F  18,C   5)                  1.3628         0.574574   
     19. B(F  19,C   5)                  1.3613         0.577782   
     20. B(F  20,C   6)                  1.3659         0.568122   
     21. B(F  21,C   6)                  1.3682         0.563320   
     22. B(O  22,C   7)                  1.2451         0.952913   
     23. B(O  23,C   7)                  1.2453         0.952229   
     24. B(H  25,O  24)                  0.9661         0.508353   
     25. B(H  26,O  23)                  1.7925         0.024423   
     26. B(H  26,O  24)                  0.9844         0.475460   
     27. B(H  27,O  22)                  1.7939         0.024292   
     28. B(O  28,H  27)                  0.9834         0.477159   
     29. B(H  29,O  28)                  0.9651         0.510300   
     30. A(F   9,C   0,F  10)          108.4915         0.428262   
     31. A(C   1,C   0,F  10)          108.8340         0.385684   
     32. A(C   1,C   0,F   8)          110.8658         0.385411   
     33. A(F   8,C   0,F   9)          108.9306         0.427950   
     34. A(C   1,C   0,F   9)          111.0067         0.386192   
     35. A(F   8,C   0,F  10)          108.6500         0.427370   
     36. A(C   2,C   1,F  11)          109.8862         0.382142   
     37. A(C   0,C   1,C   2)          114.4225         0.348732   
     38. A(C   0,C   1,F  11)          107.3233         0.382325   
     39. A(F  11,C   1,F  12)          108.7108         0.420215   
     40. A(C   2,C   1,F  12)          108.7382         0.382282   
     41. A(C   0,C   1,F  12)          107.6097         0.382465   
     42. A(F  13,C   2,F  14)          108.2640         0.419170   
     43. A(C   1,C   2,C   3)          114.0980         0.346768   
     44. A(C   1,C   2,F  14)          109.0280         0.381675   
     45. A(C   3,C   2,F  14)          108.6728         0.379643   
     46. A(C   3,C   2,F  13)          108.5315         0.379790   
     47. A(C   1,C   2,F  13)          108.1012         0.381823   
     48. A(F  15,C   3,F  16)          107.8444         0.414390   
     49. A(C   4,C   3,F  16)          110.0951         0.398478   
     50. A(C   2,C   3,F  16)          108.5601         0.379406   
     51. A(C   4,C   3,F  15)          109.8629         0.394650   
     52. A(C   2,C   3,C   4)          113.4115         0.361789   
     53. A(C   2,C   3,F  15)          106.8737         0.375814   
     54. A(C   5,C   4,F  17)          115.6581         0.402601   
     55. A(C   3,C   4,F  17)          114.7738         0.404690   
     56. A(C   3,C   4,C   5)          129.1778         0.377780   
     57. A(C   6,C   5,F  18)          108.1971         0.381133   
     58. A(C   4,C   5,F  18)          107.4280         0.393995   
     59. A(C   4,C   5,C   6)          115.3073         0.363771   
     60. A(F  18,C   5,F  19)          107.9538         0.413676   
     61. A(C   6,C   5,F  19)          108.0943         0.381502   
     62. A(C   4,C   5,F  19)          109.6324         0.394380   
     63. A(C   5,C   6,C   7)          114.1351         0.348666   
     64. A(F  20,C   6,F  21)          106.4429         0.410994   
     65. A(C   7,C   6,F  21)          111.0498         0.375940   
     66. A(C   5,C   6,F  21)          106.6996         0.379828   
     67. A(C   7,C   6,F  20)          111.4128         0.376492   
     68. A(C   5,C   6,F  20)          106.6618         0.380388   
     69. A(O  22,C   7,O  23)          129.6846         0.501242   
     70. A(C   6,C   7,O  23)          115.5497         0.413957   
     71. A(C   6,C   7,O  22)          114.7591         0.414010   
     72. A(C   7,O  22,H  27)          132.3449         0.243879   
     73. A(C   7,O  23,H  26)          131.8414         0.244041   
     74. A(H  25,O  24,H  26)          104.2228         0.316004   
     75. A(O  23,H  26,O  24)          171.9550         0.203192   
     76. A(O  22,H  27,O  28)          168.9544         0.203146   
     77. A(H  27,O  28,H  29)          104.4167         0.316384   
     78. D(F  11,C   1,C   0,F  10)    -68.9857         0.008939   
     79. D(C   2,C   1,C   0,F   8)     49.3618         0.008939   
     80. D(C   2,C   1,C   0,F  10)    168.8081         0.008939   
     81. D(F  11,C   1,C   0,F   9)     50.3510         0.008939   
     82. D(F  11,C   1,C   0,F   8)    171.5680         0.008939   
     83. D(C   2,C   1,C   0,F   9)    -71.8552         0.008939   
     84. D(C   3,C   2,C   1,C   0)    162.3689         0.008895   
     85. D(F  13,C   2,C   1,F  12)     43.5240         0.008895   
     86. D(F  13,C   2,C   1,C   0)    -76.8006         0.008895   
     87. D(F  13,C   2,C   1,F  11)    162.4011         0.008895   
     88. D(C   3,C   2,C   1,F  11)     41.5706         0.008895   
     89. D(C   3,C   2,C   1,F  12)    -77.3065         0.008895   
     90. D(C   4,C   3,C   2,F  14)    -75.7679         0.008419   
     91. D(C   4,C   3,C   2,F  13)     41.7601         0.008419   
     92. D(C   4,C   3,C   2,C   1)    162.3508         0.008419   
     93. D(F  15,C   3,C   2,F  14)     45.4463         0.008419   
     94. D(F  15,C   3,C   2,F  13)    162.9743         0.008419   
     95. D(F  15,C   3,C   2,C   1)    -76.4349         0.008419   
     96. D(F  17,C   4,C   3,C   2)     49.7681         0.013319   
     97. D(C   5,C   4,C   3,F  16)     -0.8114         0.013319   
     98. D(C   5,C   4,C   3,F  15)    117.8155         0.013319   
     99. D(F  17,C   4,C   3,F  15)    -69.7520         0.013319   
    100. D(C   5,C   4,C   3,C   2)   -122.6645         0.013319   
    101. D(F  19,C   5,C   4,C   3)    -37.2558         0.012583   
    102. D(F  18,C   5,C   4,F  17)     33.3020         0.012583   
    103. D(F  18,C   5,C   4,C   3)   -154.3210         0.012583   
    104. D(C   6,C   5,C   4,F  17)    -87.3950         0.012583   
    105. D(C   6,C   5,C   4,C   3)     84.9820         0.012583   
    106. D(C   7,C   6,C   5,F  19)    -57.7667         0.009400   
    107. D(C   7,C   6,C   5,F  18)     58.8980         0.009400   
    108. D(C   7,C   6,C   5,C   4)    179.1752         0.009400   
    109. D(F  20,C   6,C   5,F  19)     65.7161         0.009400   
    110. D(F  20,C   6,C   5,F  18)   -177.6192         0.009400   
    111. D(F  20,C   6,C   5,C   4)    -57.3420         0.009400   
    112. D(O  23,C   7,C   6,F  20)    -24.9651         0.007938   
    113. D(O  23,C   7,C   6,C   5)     95.9113         0.007938   
    114. D(O  22,C   7,C   6,F  21)     37.4045         0.007938   
    115. D(O  22,C   7,C   6,F  20)    155.8753         0.007938   
    116. D(O  22,C   7,C   6,C   5)    -83.2482         0.007938   
    117. D(H  27,O  22,C   7,O  23)   -177.9504         0.073316   
    118. D(H  27,O  22,C   7,C   6)      1.0643         0.073316   
    119. D(H  26,O  23,C   7,O  22)    166.8157         0.073195   
    120. D(H  26,O  23,C   7,C   6)    -12.1926         0.073195   
    121. D(O  23,H  26,O  24,H  25)     22.4178         0.242061   
    122. D(O  24,H  26,O  23,C   7)   -146.6254         0.001782   
    123. D(O  28,H  27,O  22,C   7)    163.2062         0.001779   
    124. D(H  29,O  28,H  27,O  22)    -95.1194         0.244278   
    -----------------------------------------------------------------

Number of atoms                         .... 30
Number of degrees of freedom            .... 124


         *************************************************************
         *                GEOMETRY OPTIMIZATION CYCLE   1            *
         *************************************************************
---------------------------------
CARTESIAN COORDINATES (ANGSTROEM)
---------------------------------
  C      6.856165   27.192116    1.751510
  C      6.229604   25.803627    2.099502
  C      7.271743   24.654678    2.293887
  C      6.708858   23.399624    3.054274
  C      7.543584   22.172258    2.874312
  C      7.148988   20.826380    2.333543
  C      7.198436   20.691602    0.785195
  C      6.800643   19.268516    0.251173
  F      7.736102   27.080281    0.750104
  F      7.471879   27.718498    2.812155
  F      5.880275   28.023033    1.372215
  F      5.503977   25.961249    3.227360
  F      5.396519   25.467532    1.092081
  F      7.696628   24.261986    1.072313
  F      8.334703   25.134721    2.978209
  F      6.650497   23.731829    4.380264
  F      5.445190   23.169034    2.628542
  F      8.842556   22.344217    3.098494
  F      8.000140   19.906116    2.868245
  F      5.887858   20.520168    2.744529
  F      6.378105   21.660536    0.281346
  F      8.469520   21.022610    0.402133
  O      7.722296   18.431419    0.261170
  O      5.613461   19.139975   -0.102152
  O      3.313787   20.639311    0.271454
  H      2.754960   19.970339    0.688133
  H      4.175617   20.183692    0.135037
  H      9.432565   18.523462    0.794773
  O     10.361882   18.384825    1.084927
  H     10.322875   18.434501    2.047961

----------------------------
CARTESIAN COORDINATES (A.U.)
----------------------------
  NO LB      ZA    FRAG     MASS         X           Y           Z
   0 C     6.0000    0    12.011   12.956274   51.385652    3.309874
   1 C     6.0000    0    12.011   11.772245   48.761788    3.967484
   2 C     6.0000    0    12.011   13.741603   46.590589    4.334818
   3 C     6.0000    0    12.011   12.677904   44.218881    5.771741
   4 C     6.0000    0    12.011   14.255308   41.899495    5.431663
   5 C     6.0000    0    12.011   13.509629   39.356155    4.409757
   6 C     6.0000    0    12.011   13.603073   39.101461    1.483804
   7 C     6.0000    0    12.011   12.851353   36.412218    0.474648
   8 F     9.0000    0    18.998   14.619114   51.174315    1.417491
   9 F     9.0000    0    18.998   14.119805   52.380370    5.314203
  10 F     9.0000    0    18.998   11.112109   52.955858    2.593111
  11 F     9.0000    0    18.998   10.401009   49.059651    6.098827
  12 F     9.0000    0    18.998   10.197943   48.126661    2.063734
  13 F     9.0000    0    18.998   14.544519   45.848509    2.026378
  14 F     9.0000    0    18.998   15.750306   47.497739    5.627999
  15 F     9.0000    0    18.998   12.567618   44.846657    8.277499
  16 F     9.0000    0    18.998   10.289918   43.783129    4.967225
  17 F     9.0000    0    18.998   16.710009   42.224451    5.855305
  18 F     9.0000    0    18.998   15.118074   37.617108    5.420198
  19 F     9.0000    0    18.998   11.126439   38.777498    5.186408
  20 F     9.0000    0    18.998   12.052872   40.932481    0.531667
  21 F     9.0000    0    18.998   16.005073   39.726976    0.759921
  22 O     8.0000    0    15.999   14.593025   34.830334    0.493540
  23 O     8.0000    0    15.999   10.607904   36.169311   -0.193039
  24 O     8.0000    0    15.999    6.262150   39.002645    0.512974
  25 H     1.0000    0     1.008    5.206120   37.738472    1.300383
  26 H     1.0000    0     1.008    7.890773   38.141650    0.255183
  27 H     1.0000    0     1.008   17.824965   35.004270    1.501903
  28 O     8.0000    0    15.999   19.581119   34.742284    2.050215
  29 H     1.0000    0     1.008   19.507407   34.836158    3.870085

--------------------------------
INTERNAL COORDINATES (ANGSTROEM)
--------------------------------
 C      0   0   0     0.000000000000     0.00000000     0.00000000
 C      1   0   0     1.562555222034     0.00000000     0.00000000
 C      2   1   0     1.563305161556   114.42247932     0.00000000
 C      3   2   1     1.571683319219   114.09795846   162.36888474
 C      4   3   2     1.495185979895   113.41152754   162.35080182
 C      5   4   3     1.503171548913   129.17776822   237.33552932
 C      6   5   4     1.554989306424   115.30727707    84.98198969
 C      7   6   5     1.571175525118   114.13508309   179.17517991
 F      1   2   3     1.337763121046   110.86579650    49.36184187
 F      1   2   3     1.334597151108   111.00671131   288.14479511
 F      1   2   3     1.336655920577   108.83397853   168.80811395
 F      2   1   3     1.350349179352   107.32329990   122.20620515
 F      2   1   3     1.349773142973   107.60973264   239.04983801
 F      3   2   1     1.351657244854   108.10116859   283.19939624
 F      3   2   1     1.352265448473   109.02800322    40.68332784
 F      4   3   2     1.368216228688   106.87366197   283.56505999
 F      4   3   2     1.353246576995   108.56006907    39.64538825
 F      5   4   3     1.329344095255   114.77380137    49.76807899
 F      6   5   4     1.362810252971   107.42800305   205.67897905
 F      6   5   4     1.361295029757   109.63243771   322.74418190
 F      7   6   5     1.365884277938   106.66180435   302.65800535
 F      7   6   5     1.368194915560   106.69959405    56.12762188
 O      8   7   6     1.245100630402   114.75913120   276.75177375
 O      8   7   6     1.245296127606   115.54971565    95.91132162
 O     24   8   7     2.770575822895   134.20117850   345.62077171
 H     25  24   8     0.966143126951    99.41287478   236.87350496
 H     25  24   8     0.984352182885     5.19489249    34.86685345
 H     23   8   7     1.793940948810   132.34490775     1.06425689
 O     28  23   8     0.983381740716   168.95443808   163.20620946
 H     29  28  23     0.965102966621   104.41674159   264.88056750

---------------------------
INTERNAL COORDINATES (A.U.)
---------------------------
 C      0   0   0     0.000000000000     0.00000000     0.00000000
 C      1   0   0     2.952801438773     0.00000000     0.00000000
 C      2   1   0     2.954218619086   114.42247932     0.00000000
 C      3   2   1     2.970051042575   114.09795846   162.36888474
 C      4   3   2     2.825492021281   113.41152754   162.35080182
 C      5   4   3     2.840582559747   129.17776822   237.33552932
 C      6   5   4     2.938503930317   115.30727707    84.98198969
 C      7   6   5     2.969091450792   114.13508309   179.17517991
 F      1   2   3     2.528005930836   110.86579650    49.36184187
 F      1   2   3     2.522023114705   111.00671131   288.14479511
 F      1   2   3     2.525913625175   108.83397853   168.80811395
 F      2   1   3     2.551790134141   107.32329990   122.20620515
 F      2   1   3     2.550701583141   107.60973264   239.04983801
 F      3   2   1     2.554262019704   108.10116859   283.19939624
 F      3   2   1     2.555411357978   109.02800322    40.68332784
 F      4   3   2     2.585553964207   106.87366197   283.56505999
 F      4   3   2     2.557265422186   108.56006907    39.64538825
 F      5   4   3     2.512096277777   114.77380137    49.76807899
 F      6   5   4     2.575338150616   107.42800305   205.67897905
 F      6   5   4     2.572474793708   109.63243771   322.74418190
 F      7   6   5     2.581147215931   106.66180435   302.65800535
 F      7   6   5     2.585513688232   106.69959405    56.12762188
 O      8   7   6     2.352899200632   114.75913120   276.75177375
 O      8   7   6     2.353268636808   115.54971565    95.91132162
 O     24   8   7     5.235629538534   134.20117850   345.62077171
 H     25  24   8     1.825745916107    99.41287478   236.87350496
 H     25  24   8     1.860156044980     5.19489249    34.86685345
 H     23   8   7     3.390057093679   132.34490775     1.06425689
 O     28  23   8     1.858322175052   168.95443808   163.20620946
 H     29  28  23     1.823780297949   104.41674159   264.88056750

---------------------
BASIS SET INFORMATION
---------------------
There are 4 groups of distinct atoms

 Group   1 Type C   : 11s6p2d1f contracted to 5s3p2d1f pattern {62111/411/11/1}
 Group   2 Type F   : 11s6p2d1f contracted to 5s3p2d1f pattern {62111/411/11/1}
 Group   3 Type O   : 11s6p2d1f contracted to 5s3p2d1f pattern {62111/411/11/1}
 Group   4 Type H   : 5s1p contracted to 3s1p pattern {311/1}

Atom   0C    basis set group =>   1
Atom   1C    basis set group =>   1
Atom   2C    basis set group =>   1
Atom   3C    basis set group =>   1
Atom   4C    basis set group =>   1
Atom   5C    basis set group =>   1
Atom   6C    basis set group =>   1
Atom   7C    basis set group =>   1
Atom   8F    basis set group =>   2
Atom   9F    basis set group =>   2
Atom  10F    basis set group =>   2
Atom  11F    basis set group =>   2
Atom  12F    basis set group =>   2
Atom  13F    basis set group =>   2
Atom  14F    basis set group =>   2
Atom  15F    basis set group =>   2
Atom  16F    basis set group =>   2
Atom  17F    basis set group =>   2
Atom  18F    basis set group =>   2
Atom  19F    basis set group =>   2
Atom  20F    basis set group =>   2
Atom  21F    basis set group =>   2
Atom  22O    basis set group =>   3
Atom  23O    basis set group =>   3
Atom  24O    basis set group =>   3
Atom  25H    basis set group =>   4
Atom  26H    basis set group =>   4
Atom  27H    basis set group =>   4
Atom  28O    basis set group =>   3
Atom  29H    basis set group =>   4
---------------------------------
AUXILIARY/J BASIS SET INFORMATION
---------------------------------
There are 4 groups of distinct atoms

 Group   1 Type C   : 12s5p4d2f1g contracted to 6s4p3d1f1g pattern {711111/2111/211/2/1}
 Group   2 Type F   : 12s5p4d2f1g contracted to 6s4p3d1f1g pattern {711111/2111/211/2/1}
 Group   3 Type O   : 12s5p4d2f1g contracted to 6s4p3d1f1g pattern {711111/2111/211/2/1}
 Group   4 Type H   : 5s2p1d contracted to 3s1p1d pattern {311/2/1}

Atom   0C    basis set group =>   1
Atom   1C    basis set group =>   1
Atom   2C    basis set group =>   1
Atom   3C    basis set group =>   1
Atom   4C    basis set group =>   1
Atom   5C    basis set group =>   1
Atom   6C    basis set group =>   1
Atom   7C    basis set group =>   1
Atom   8F    basis set group =>   2
Atom   9F    basis set group =>   2
Atom  10F    basis set group =>   2
Atom  11F    basis set group =>   2
Atom  12F    basis set group =>   2
Atom  13F    basis set group =>   2
Atom  14F    basis set group =>   2
Atom  15F    basis set group =>   2
Atom  16F    basis set group =>   2
Atom  17F    basis set group =>   2
Atom  18F    basis set group =>   2
Atom  19F    basis set group =>   2
Atom  20F    basis set group =>   2
Atom  21F    basis set group =>   2
Atom  22O    basis set group =>   3
Atom  23O    basis set group =>   3
Atom  24O    basis set group =>   3
Atom  25H    basis set group =>   4
Atom  26H    basis set group =>   4
Atom  27H    basis set group =>   4
Atom  28O    basis set group =>   3
Atom  29H    basis set group =>   4


           ************************************************************
           *        Program running with 20 parallel MPI-processes    *
           *              working on a common directory               *
           ************************************************************
------------------------------------------------------------------------------
                             ORCA STARTUP CALCULATIONS
                           -- RI-GTO INTEGRALS CHOSEN --
------------------------------------------------------------------------------
------------------------------------------------------------------------------
                   ___                                                        
                  /   \      - P O W E R E D   B Y -                         
                 /     \                                                     
                 |  |  |   _    _      __       _____    __    __             
                 |  |  |  | |  | |    /  \     |  _  \  |  |  /  |          
                  \  \/   | |  | |   /    \    | | | |  |  | /  /          
                 / \  \   | |__| |  /  /\  \   | |_| |  |  |/  /          
                |  |  |   |  __  | /  /__\  \  |    /   |      \           
                |  |  |   | |  | | |   __   |  |    \   |  |\   \          
                \     /   | |  | | |  |  |  |  | |\  \  |  | \   \       
                 \___/    |_|  |_| |__|  |__|  |_| \__\ |__|  \__/        
                                                                              
                      - O R C A' S   B I G   F R I E N D -                    
                                      &                                       
                       - I N T E G R A L  F E E D E R -                       
                                                                              
 v1 FN, 2020, v2 2021, v3 2022-2024                                           
------------------------------------------------------------------------------


----------------------
SHARK INTEGRAL PACKAGE
----------------------

Number of atoms                             ...     30
Number of basis functions                   ...    830
Number of shells                            ...    302
Maximum angular momentum                    ...      3
Integral batch strategy                     ... SHARK/LIBINT Hybrid
RI-J (if used) integral strategy            ... SPLIT-RIJ (Revised 2003 algorithm where possible)
Printlevel                                  ...      1
Contraction scheme used                     ... SEGMENTED contraction
Prescreening option                         ... SCHWARTZ
   Thresh                                   ... 2.500e-11
   Tcut                                     ... 2.500e-12
   Tpresel                                  ... 2.500e-12 
Coulomb Range Separation                    ... NOT USED
Exchange Range Separation                   ... NOT USED
Multipole approximations                    ... NOT USED
Finite Nucleus Model                        ... NOT USED
CABS basis                                  ... NOT available
Auxiliary Coulomb fitting basis             ... AVAILABLE
   # of basis functions in Aux-J            ...   1318
   # of shells in Aux-J                     ...    410
   Maximum angular momentum in Aux-J        ...      4
Auxiliary J/K fitting basis                 ... NOT available
Auxiliary Correlation fitting basis         ... NOT available
Auxiliary 'external' fitting basis          ... NOT available

Checking pre-screening integrals            ... done (  0.0 sec) Dimension = 302
Check shell pair data                       ... done (  0.0 sec)
Shell pair information
Shell pair cut-off parameter TPreSel        ...   2.5e-12
Total number of shell pairs                 ...     45753
Shell pairs after pre-screening             ...     27304
Total number of primitive shell pairs       ...    148824
Primitive shell pairs kept                  ...     56383
          la=0 lb=0:   5568 shell pairs
          la=1 lb=0:   7628 shell pairs
          la=1 lb=1:   2551 shell pairs
          la=2 lb=0:   3986 shell pairs
          la=2 lb=1:   2792 shell pairs
          la=2 lb=2:    758 shell pairs
          la=3 lb=0:   1816 shell pairs
          la=3 lb=1:   1352 shell pairs
          la=3 lb=2:    684 shell pairs
          la=3 lb=3:    169 shell pairs

Calculating one electron integrals          ... done (  0.0 sec)
Calculating RI/J V-Matrix + Cholesky decomp.... done (  0.1 sec)
Calculating Nuclear repulsion               ... done (  0.0 sec) ENN=   3063.357223669201 Eh

Diagonalization of the overlap matrix:
Smallest eigenvalue                        ... 6.422e-05
Time for diagonalization                   ...    0.128 sec
Threshold for overlap eigenvalues          ... 1.000e-07
Number of eigenvalues below threshold      ... 0
Time for construction of square roots      ...    0.062 sec
Total time needed                          ...    0.199 sec

-------------------
DFT GRID GENERATION
-------------------

General Integration Accuracy     IntAcc      ... 4.388
Radial Grid Type                 RadialGrid  ... OptM3 with GC (2021)
Angular Grid (max. ang.)         AngularGrid ... 4 (Lebedev-302)
Angular grid pruning method      GridPruning ... 4 (adaptive)
Weight generation scheme         WeightScheme... mBecke (2022)
Basis function cutoff            BFCut       ... 1.0000e-11
Integration weight cutoff        WCut        ... 1.0000e-14
Partially contracted basis set               ... off
Rotationally invariant grid construction     ... off
Angular grids for H and He will be reduced by one unit

Total number of grid points                  ...   170536
Total number of batches                      ...     2682
Average number of points per batch           ...       63
Average number of grid points per atom       ...     5685

--------------------
COSX GRID GENERATION
--------------------

GRIDX 1
-------
General Integration Accuracy     IntAcc      ... 3.816
Radial Grid Type                 RadialGrid  ... OptM3 with GC (2021)
Angular Grid (max. ang.)         AngularGrid ... 1 (Lebedev-50)
Angular grid pruning method      GridPruning ... 4 (adaptive)
Weight generation scheme         WeightScheme... mBecke (2022)
Basis function cutoff            BFCut       ... 1.0000e-11
Integration weight cutoff        WCut        ... 1.0000e-14
Partially contracted basis set               ... on
Rotationally invariant grid construction     ... off
Angular grids for H and He will be reduced by one unit

Total number of grid points                  ...    21464
Total number of batches                      ...      181
Average number of points per batch           ...      118
Average number of grid points per atom       ...      715
UseSFitting                                  ... on

GRIDX 2
-------
General Integration Accuracy     IntAcc      ... 4.020
Radial Grid Type                 RadialGrid  ... OptM3 with GC (2021)
Angular Grid (max. ang.)         AngularGrid ... 2 (Lebedev-110)
Angular grid pruning method      GridPruning ... 4 (adaptive)
Weight generation scheme         WeightScheme... mBecke (2022)
Basis function cutoff            BFCut       ... 1.0000e-11
Integration weight cutoff        WCut        ... 1.0000e-14
Partially contracted basis set               ... on
Rotationally invariant grid construction     ... off
Angular grids for H and He will be reduced by one unit

Total number of grid points                  ...    49744
Total number of batches                      ...      401
Average number of points per batch           ...      124
Average number of grid points per atom       ...     1658
UseSFitting                                  ... on

GRIDX 3
-------
General Integration Accuracy     IntAcc      ... 4.338
Radial Grid Type                 RadialGrid  ... OptM3 with GC (2021)
Angular Grid (max. ang.)         AngularGrid ... 3 (Lebedev-194)
Angular grid pruning method      GridPruning ... 4 (adaptive)
Weight generation scheme         WeightScheme... mBecke (2022)
Basis function cutoff            BFCut       ... 1.0000e-11
Integration weight cutoff        WCut        ... 1.0000e-14
Partially contracted basis set               ... on
Rotationally invariant grid construction     ... off
Angular grids for H and He will be reduced by one unit

Total number of grid points                  ...   109905
Total number of batches                      ...      873
Average number of points per batch           ...      125
Average number of grid points per atom       ...     3664
UseSFitting                                  ... on
Initializing property integral containers    ... done (  0.0 sec)

SHARK setup successfully completed in   3.3 seconds

Maximum memory used throughout the entire STARTUP-calculation: 67.5 MB


           ************************************************************
           *        Program running with 20 parallel MPI-processes    *
           *              working on a common directory               *
           ************************************************************
-------------------------------------------------------------------------------
                                 ORCA GUESS
                   Start orbitals & Density for SCF / CASSCF
-------------------------------------------------------------------------------

------------
SCF SETTINGS
------------
Hamiltonian:
 Density Functional     Method          .... DFT(GTOs)
 Exchange Functional    Exchange        .... TPSS
 Correlation Functional Correlation     .... TPSS
 LDA part of GGA corr.  LDAOpt          .... PW91-LDA
 Gradients option       PostSCFGGA      .... off
 Hybrid DFT is turned on
   Fraction HF Exchange ScalHFX         ....  0.100000
   Scaling of DF-GGA-X  ScalDFX         ....  0.900000
   Scaling of DF-GGA-C  ScalDFC         ....  1.000000
   Scaling of DF-LDA-C  ScalLDAC        ....  1.000000
   Perturbative correction              ....  0.000000
   NL short-range parameter             ....  5.200000
 RI-approximation to the Coulomb term is turned on
   Number of AuxJ basis functions       .... 1318
   RIJ-COSX (HFX calculated with COS-X)).... on


General Settings:
 Integral files         IntName         .... rf_mecn_2H2O_opt_TP_con_002
 Hartree-Fock type      HFTyp           .... UHF
 Total Charge           Charge          ....   -1
 Multiplicity           Mult            ....    2
 Number of Electrons    NEL             ....  211
 Basis Dimension        Dim             ....  830
 Nuclear Repulsion      ENuc            ....   3063.3572236692 Eh

Convergence Acceleration:
 AO-DIIS                CNVDIIS         .... on
   Start iteration      DIISMaxIt       ....     0
   Startup error        DIISStart       ....  0.200000
   # of expansion vecs  DIISMaxEq       ....     5
   Bias factor          DIISBfac        ....   1.050
   Max. coefficient     DIISMaxC        ....  10.000
 MO-DIIS                CNVKDIIS        .... off
 Trust-Rad. Augm. Hess. CNVTRAH         .... auto
   Auto Start mean grad. ratio tolernc. ....  1.125000
   Auto Start start iteration           ....    50
   Auto Start num. interpolation iter.  ....    10
   Max. Number of Micro iterations      ....    24
   Max. Number of Macro iterations      .... Maxiter - #DIIS iter
   Number of Davidson start vectors     ....     2
   Converg. threshold    (grad. norm)   ....   1.000e-05
   Grad. Scal. Fac. for Micro threshold ....   0.100
   Minimum threshold for Micro iter.    ....   1.000e-02
   NR start threshold (gradient norm)   ....   1.000e-04
   Initial trust radius                 ....   0.400
   Minimum AH scaling param. (alpha)    ....   1.000
   Maximum AH scaling param. (alpha)    .... 1000.000
   Quad. conv. algorithm                .... NR
   White noise on init. David. guess    .... on
   Maximum white noise                  ....   0.010
   Pseudo random numbers                .... off
   Inactive MOs                         .... canonical
   Orbital update algorithm             .... Taylor
   Preconditioner                       .... Diag
   Full preconditioner red. dimension   ....   250
 SOSCF                  CNVSOSCF        .... on
   Start iteration      SOSCFMaxIt      ....   150
   Startup grad/error   SOSCFStart      ....  0.001000
   Hessian update       SOSCFHessUp     .... L-BFGS
 Level Shifting         CNVShift        .... on
   Level shift para.    LevelShift      ....    0.2500
   Turn off err/grad.   ShiftErr        ....    0.0000
 Zerner damping         CNVZerner       .... off
 Static damping         CNVDamp         .... on
   Fraction old density DampFac         ....    0.8500
   Max. Damping (<1)    DampMax         ....    0.9800
   Min. Damping (>=0)   DampMin         ....    0.0000
   Turn off err/grad.   DampErr         ....    0.0300

SCF Procedure:
 Maximum # iterations   MaxIter         ....  1500
 SCF integral mode      SCFMode         .... Direct
   Integral package                     .... SHARK and LIBINT hybrid scheme
 Reset frequency        DirectResetFreq ....    20
 Integral Threshold     Thresh          ....  2.500e-11 Eh
 Primitive CutOff       TCut            ....  2.500e-12 Eh

Convergence Tolerance:
 Convergence Check Mode ConvCheckMode   .... Total+1el-Energy
 Convergence forced     ConvForced      .... 0
 Energy Change          TolE            ....  1.000e-08 Eh
 1-El. energy change                    ....  1.000e-05 Eh
 Orbital Gradient       TolG            ....  1.000e-05
 Orbital Rotation angle TolX            ....  1.000e-05
 DIIS Error             TolErr          ....  5.000e-07

------------------------------
INITIAL GUESS: MODEL POTENTIAL
------------------------------
Loading Hartree-Fock densities                     ... done
Calculating cut-offs                               ... done
Initializing the effective Hamiltonian             ... done
Setting up the integral package (SHARK)            ... done
Starting the Coulomb interaction                   ... done (   0.2 sec)
Making the grid                                    ... done (   0.4 sec)
Mapping shells                                     ... done
Starting the XC term evaluation                    ... done (   0.2 sec)
  promolecular density results
     # of electrons  =    210.001009635
     EX              =   -214.663301290
     EC              =     -7.316289589
     EX+EC           =   -221.979590880
Transforming the Hamiltonian                       ... done (   0.1 sec)
Diagonalizing the Hamiltonian                      ... done (   0.1 sec)
Back transforming the eigenvectors                 ... done (   0.0 sec)
Now organizing SCF variables                       ... done
                      ------------------
                      INITIAL GUESS DONE (   1.2 sec)
                      ------------------
             **** ENERGY FILE WAS UPDATED (rf_mecn_2H2O_opt_TP_con_002.en.tmp) ****
Finished Guess after   1.9 sec
Maximum memory used throughout the entire GUESS-calculation: 56.2 MB


           ************************************************************
           *        Program running with 20 parallel MPI-processes    *
           *              working on a common directory               *
           ************************************************************

-------------------------------------------------------------------------------------------
                                      ORCA LEAN-SCF
                              memory conserving SCF solver
-------------------------------------------------------------------------------------------

--------------------
CPCM SOLVATION MODEL
--------------------
CPCM parameters:
  Epsilon                                         ...      35.6880
  Refrac                                          ...       1.3442
  Rsolv                                           ...       1.3000
  Surface type                                    ... GAUSSIAN VDW
  Discretization scheme                           ... Constant charge density
    Threshold for H atoms                         ...       5.0000 (charges/Ang^2)
    Threshold for non-H atoms                     ...       5.0000 (charges/Ang^2)
  Epsilon function type                           ...         CPCM
Solvent:                                          ... ACETONITRILE
SMD-CDS solvent descriptors:
  Soln                                            ...       1.3442
  Soln25                                          ...       1.3416
  Sola                                            ...       0.0700
  Solb                                            ...       0.3200
  Solg                                            ...      41.2500
  Solc                                            ...       0.0000
  Solh                                            ...       0.0000
Radii:
  Scheme                                          ... Element-dependent radii
  Radius for C  used is    3.4960 Bohr (=   1.8500 Ang.)
  Radius for F  used is    3.2692 Bohr (=   1.7300 Ang.)
  Radius for O  used is    4.0969 Bohr (=   2.1680 Ang.)
  Radius for H  used is    2.2677 Bohr (=   1.2000 Ang.)
Calculating surface                               ...        done! (  0.0s)
Cavity surface points                             ...         2620
Cavity Volume                                     ...    2577.2503
Cavity Surface-area                               ...    1326.2975
Calculating surface distance matrix               ...        done! (  0.1s)
Performing Cholesky decomposition & store         ...        done! (  0.1s)
Overall time for CPCM initialization              ...                 0.2s

----------------------------------------D-I-I-S--------------------------------------------
Iteration    Energy (Eh)           Delta-E    RMSDP     MaxDP     DIISErr   Damp  Time(sec)
-------------------------------------------------------------------------------------------
               ***  Starting incremental Fock matrix formation  ***
    1    -2006.2787739305258583     0.00e+00  2.27e-04  1.98e-02  1.64e-01  0.850   8.2
Warning: op=0 Small HOMO/LUMO gap (   0.063) - skipping pre-diagonalization
         Will do a full diagonalization
    2    -2006.4638350423301745    -1.85e-01  2.68e-04  4.33e-02  1.15e-01  0.850   5.6
                               ***Turning on AO-DIIS***
    3    -2006.5643488447067284    -1.01e-01  1.37e-04  2.46e-02  7.01e-02  0.850   4.9
    4    -2006.6244540660982238    -6.01e-02  7.73e-05  1.15e-02  5.20e-02  0.850   4.6
    5    -2006.6670240465600727    -4.26e-02  5.18e-05  4.24e-03  4.23e-02  0.850   4.5
    6    -2006.7006037342025593    -3.36e-02  4.10e-05  3.42e-03  3.59e-02  0.850   4.5
    7    -2006.7284284076004042    -2.78e-02  3.61e-05  3.36e-03  3.08e-02  0.850   4.4
    8    -2006.7518880261122831    -2.35e-02  3.20e-05  3.07e-03  2.62e-02  0.850   4.4
    9    -2006.7714933756633400    -1.96e-02  1.85e-04  1.78e-02  2.19e-02  0.000   4.2
   10    -2006.8745802276607719    -1.03e-01  1.40e-05  1.18e-03  3.43e-03  0.000   4.7
                              *** Initializing SOSCF ***
---------------------------------------S-O-S-C-F--------------------------------------
Iteration    Energy (Eh)           Delta-E    RMSDP     MaxDP     MaxGrad    Time(sec)
--------------------------------------------------------------------------------------
   11    -2006.8747365398976399    -1.56e-04  6.93e-06  9.73e-04  9.48e-04     4.6
               *** Restarting incremental Fock matrix formation ***
   12    -2006.8747415668003669    -5.03e-06  1.07e-05  1.04e-03  9.95e-04     7.7
   13    -2006.8747489234938257    -7.36e-06  6.34e-06  5.16e-04  3.52e-04     5.4
   14    -2006.8747577530757553    -8.83e-06  3.36e-06  3.29e-04  2.80e-04     5.2
   15    -2006.8747585287728725    -7.76e-07  1.75e-06  1.41e-04  1.81e-04     4.8
   16    -2006.8747585755527325    -4.68e-08  1.55e-06  1.45e-04  1.52e-04     4.5
   17    -2006.8747589829099525    -4.07e-07  5.87e-07  3.63e-05  3.80e-05     5.2
   18    -2006.8747590075472544    -2.46e-08  4.20e-07  3.39e-05  3.58e-05     4.6
   19    -2006.8747590462235166    -3.87e-08  1.82e-07  2.19e-05  4.54e-06     4.5
   20    -2006.8747590447410403     1.48e-09  8.45e-08  9.87e-06  3.64e-06     4.0
                 **** Energy Check signals convergence ****

               *****************************************************
               *                     SUCCESS                       *
               *           SCF CONVERGED AFTER  20 CYCLES          *
               *****************************************************

Recomputing exchange energy using gridx3       ... done (   10.343 sec)
Old exchange energy                            :    -21.691639032 Eh
New exchange energy                            :    -21.691651386 Eh
Exchange energy change after final integration :     -0.000012354 Eh
Total energy after final integration           :  -2006.874771399 Eh

SMD CDS free energy correction energy :                 2.66838     Kcal/mol
Total Energy after SMD CDS correction =             -2006.870519063 Eh
             **** ENERGY FILE WAS UPDATED (rf_mecn_2H2O_opt_TP_con_002.en.tmp) ****

----------------
TOTAL SCF ENERGY
----------------

Total Energy       :      -2006.87051906271131 Eh          -54609.72313 eV

Components:
Nuclear Repulsion  :       3063.35722366920072 Eh           83358.18790 eV
Electronic Energy  :      -5070.15180443955614 Eh         -137965.84465 eV
One Electron Energy:      -8912.40693478455069 Eh         -242518.92212 eV
Two Electron Energy:       3842.25513034499409 Eh          104553.07747 eV
CPCM Dielectric    :         -0.08017827438510 Eh              -2.18176 eV
SMD CDS (Gcds)     :          0.00425233628301 Eh               0.11571 eV

Virial components:
Potential Energy   :      -4006.86968406679989 Eh         -109032.46721 eV
Kinetic Energy     :       1999.99916500408835 Eh           54422.74408 eV
Virial Ratio       :          2.00343567846370

DFT components:
N(Alpha)           :      105.999982780466 electrons
N(Beta)            :      104.999978348400 electrons
N(Total)           :      210.999961128866 electrons
E(X)               :     -197.118338307056 Eh       
E(C)               :       -7.382262394867 Eh       
E(XC)              :     -204.500600701923 Eh       

CPCM Solvation Model Properties:
Surface-charge          :          0.99067867626152
Corrected charge        :          1.00000000000000
Outlying charge corr.   :          0.00000444771754 Eh               0.00012 eV
Free-energy (cav+disp)  :          0.00425233628301 Eh               0.11571 eV

---------------
SCF CONVERGENCE
---------------

  Last Energy change         ...   -1.4825e-09  Tolerance :   1.0000e-08
  Last MAX-Density change    ...    9.8698e-06  Tolerance :   1.0000e-07
  Last RMS-Density change    ...    8.4491e-08  Tolerance :   5.0000e-09
  Last DIIS Error            ...    9.4796e-04  Tolerance :   5.0000e-07
  Last Orbital Gradient      ...    3.6420e-06  Tolerance :   1.0000e-05
  Last Orbital Rotation      ...    1.3836e-05  Tolerance :   1.0000e-05


----------------------
UHF SPIN CONTAMINATION
----------------------

Warning: in a DFT calculation there is little theoretical justification to 
         calculate <S**2> as in Hartree-Fock theory. We will do it anyways
         but you should keep in mind that the values have only limited relevance

Expectation value of <S**2>     :     0.755575
Ideal value S*(S+1) for S=0.5   :     0.750000
Deviation                       :     0.005575

----------------
ORBITAL ENERGIES
----------------
                 SPIN UP ORBITALS
  NO   OCC          E(Eh)            E(eV) 
   0   1.0000     -24.665581      -671.1846 
   1   1.0000     -24.659677      -671.0239 
   2   1.0000     -24.658934      -671.0037 
   3   1.0000     -24.658234      -670.9846 
   4   1.0000     -24.657936      -670.9765 
   5   1.0000     -24.657141      -670.9549 
   6   1.0000     -24.656599      -670.9402 
   7   1.0000     -24.656452      -670.9362 
   8   1.0000     -24.652792      -670.8366 
   9   1.0000     -24.644193      -670.6026 
  10   1.0000     -24.637129      -670.4104 
  11   1.0000     -24.636499      -670.3932 
  12   1.0000     -24.621301      -669.9797 
  13   1.0000     -24.621243      -669.9781 
  14   1.0000     -19.014679      -517.4157 
  15   1.0000     -19.014247      -517.4040 
  16   1.0000     -19.010585      -517.3043 
  17   1.0000     -19.009953      -517.2871 
  18   1.0000     -10.394242      -282.8417 
  19   1.0000     -10.341656      -281.4108 
  20   1.0000     -10.339695      -281.3574 
  21   1.0000     -10.338436      -281.3231 
  22   1.0000     -10.320961      -280.8476 
  23   1.0000     -10.288151      -279.9548 
  24   1.0000     -10.257479      -279.1202 
  25   1.0000     -10.210184      -277.8332 
  26   1.0000      -1.320823       -35.9414 
  27   1.0000      -1.292412       -35.1683 
  28   1.0000      -1.276356       -34.7314 
  29   1.0000      -1.271016       -34.5861 
  30   1.0000      -1.264796       -34.4168 
  31   1.0000      -1.253786       -34.1173 
  32   1.0000      -1.238835       -33.7104 
  33   1.0000      -1.235354       -33.6157 
  34   1.0000      -1.230130       -33.4735 
  35   1.0000      -1.226655       -33.3790 
  36   1.0000      -1.219573       -33.1863 
  37   1.0000      -1.211880       -32.9769 
  38   1.0000      -1.202953       -32.7340 
  39   1.0000      -1.183086       -32.1934 
  40   1.0000      -1.019590       -27.7444 
  41   1.0000      -0.951248       -25.8848 
  42   1.0000      -0.948658       -25.8143 
  43   1.0000      -0.934310       -25.4239 
  44   1.0000      -0.828231       -22.5373 
  45   1.0000      -0.806865       -21.9559 
  46   1.0000      -0.770067       -20.9546 
  47   1.0000      -0.732726       -19.9385 
  48   1.0000      -0.692510       -18.8442 
  49   1.0000      -0.663020       -18.0417 
  50   1.0000      -0.636521       -17.3206 
  51   1.0000      -0.617793       -16.8110 
  52   1.0000      -0.615333       -16.7441 
  53   1.0000      -0.608022       -16.5451 
  54   1.0000      -0.594417       -16.1749 
  55   1.0000      -0.591288       -16.0898 
  56   1.0000      -0.589865       -16.0511 
  57   1.0000      -0.581754       -15.8303 
  58   1.0000      -0.574393       -15.6300 
  59   1.0000      -0.570950       -15.5363 
  60   1.0000      -0.563531       -15.3345 
  61   1.0000      -0.553392       -15.0585 
  62   1.0000      -0.551295       -15.0015 
  63   1.0000      -0.542579       -14.7643 
  64   1.0000      -0.525885       -14.3101 
  65   1.0000      -0.499513       -13.5925 
  66   1.0000      -0.490693       -13.3524 
  67   1.0000      -0.483313       -13.1516 
  68   1.0000      -0.478142       -13.0109 
  69   1.0000      -0.475088       -12.9278 
  70   1.0000      -0.472711       -12.8631 
  71   1.0000      -0.468000       -12.7349 
  72   1.0000      -0.465966       -12.6796 
  73   1.0000      -0.457596       -12.4518 
  74   1.0000      -0.451725       -12.2920 
  75   1.0000      -0.450830       -12.2677 
  76   1.0000      -0.447334       -12.1726 
  77   1.0000      -0.443160       -12.0590 
  78   1.0000      -0.441089       -12.0027 
  79   1.0000      -0.433867       -11.8061 
  80   1.0000      -0.432704       -11.7745 
  81   1.0000      -0.430450       -11.7131 
  82   1.0000      -0.427748       -11.6396 
  83   1.0000      -0.422075       -11.4852 
  84   1.0000      -0.419628       -11.4186 
  85   1.0000      -0.417184       -11.3522 
  86   1.0000      -0.414966       -11.2918 
  87   1.0000      -0.411857       -11.2072 
  88   1.0000      -0.410212       -11.1624 
  89   1.0000      -0.409581       -11.1453 
  90   1.0000      -0.404909       -11.0181 
  91   1.0000      -0.399088       -10.8597 
  92   1.0000      -0.396243       -10.7823 
  93   1.0000      -0.386462       -10.5162 
  94   1.0000      -0.383173       -10.4267 
  95   1.0000      -0.379975       -10.3397 
  96   1.0000      -0.352601        -9.5948 
  97   1.0000      -0.337013        -9.1706 
  98   1.0000      -0.335425        -9.1274 
  99   1.0000      -0.329721        -8.9722 
 100   1.0000      -0.261819        -7.1245 
 101   1.0000      -0.260085        -7.0773 
 102   1.0000      -0.256920        -6.9911 
 103   1.0000      -0.251902        -6.8546 
 104   1.0000      -0.237752        -6.4696 
 105   1.0000      -0.233384        -6.3507 
 106   0.0000      -0.017437        -0.4745 
 107   0.0000       0.002806         0.0764 
 108   0.0000       0.009119         0.2482 
 109   0.0000       0.029393         0.7998 
 110   0.0000       0.056503         1.5375 
 111   0.0000       0.062829         1.7097 
 112   0.0000       0.072433         1.9710 
 113   0.0000       0.083980         2.2852 
 114   0.0000       0.093206         2.5363 
 115   0.0000       0.101946         2.7741 
 116   0.0000       0.114332         3.1111 

                 SPIN DOWN ORBITALS
  NO   OCC          E(Eh)            E(eV) 
   0   1.0000     -24.661306      -671.0683 
   1   1.0000     -24.659679      -671.0240 
   2   1.0000     -24.658931      -671.0036 
   3   1.0000     -24.658213      -670.9841 
   4   1.0000     -24.657938      -670.9766 
   5   1.0000     -24.657032      -670.9520 
   6   1.0000     -24.656572      -670.9394 
   7   1.0000     -24.656445      -670.9360 
   8   1.0000     -24.652719      -670.8346 
   9   1.0000     -24.642908      -670.5676 
  10   1.0000     -24.636712      -670.3990 
  11   1.0000     -24.636127      -670.3831 
  12   1.0000     -24.621292      -669.9794 
  13   1.0000     -24.621240      -669.9780 
  14   1.0000     -19.014678      -517.4157 
  15   1.0000     -19.014245      -517.4039 
  16   1.0000     -19.010366      -517.2984 
  17   1.0000     -19.009805      -517.2831 
  18   1.0000     -10.394208      -282.8408 
  19   1.0000     -10.341588      -281.4089 
  20   1.0000     -10.339319      -281.3472 
  21   1.0000     -10.339146      -281.3425 
  22   1.0000     -10.321933      -280.8741 
  23   1.0000     -10.287349      -279.9330 
  24   1.0000     -10.241899      -278.6962 
  25   1.0000     -10.210091      -277.8307 
  26   1.0000      -1.320794       -35.9406 
  27   1.0000      -1.291915       -35.1548 
  28   1.0000      -1.275855       -34.7178 
  29   1.0000      -1.269449       -34.5435 
  30   1.0000      -1.262925       -34.3659 
  31   1.0000      -1.247829       -33.9551 
  32   1.0000      -1.238506       -33.7015 
  33   1.0000      -1.235310       -33.6145 
  34   1.0000      -1.230105       -33.4729 
  35   1.0000      -1.226449       -33.3734 
  36   1.0000      -1.219447       -33.1828 
  37   1.0000      -1.210218       -32.9317 
  38   1.0000      -1.202001       -32.7081 
  39   1.0000      -1.182998       -32.1910 
  40   1.0000      -1.019253       -27.7353 
  41   1.0000      -0.951192       -25.8833 
  42   1.0000      -0.948654       -25.8142 
  43   1.0000      -0.933978       -25.4148 
  44   1.0000      -0.820452       -22.3256 
  45   1.0000      -0.798740       -21.7348 
  46   1.0000      -0.768886       -20.9225 
  47   1.0000      -0.726578       -19.7712 
  48   1.0000      -0.689359       -18.7584 
  49   1.0000      -0.662353       -18.0235 
  50   1.0000      -0.632593       -17.2137 
  51   1.0000      -0.616317       -16.7708 
  52   1.0000      -0.614256       -16.7147 
  53   1.0000      -0.607866       -16.5409 
  54   1.0000      -0.593066       -16.1382 
  55   1.0000      -0.590207       -16.0603 
  56   1.0000      -0.584126       -15.8949 
  57   1.0000      -0.580470       -15.7954 
  58   1.0000      -0.573219       -15.5981 
  59   1.0000      -0.568903       -15.4806 
  60   1.0000      -0.562528       -15.3072 
  61   1.0000      -0.551955       -15.0195 
  62   1.0000      -0.549956       -14.9651 
  63   1.0000      -0.540963       -14.7204 
  64   1.0000      -0.525346       -14.2954 
  65   1.0000      -0.491272       -13.3682 
  66   1.0000      -0.483141       -13.1469 
  67   1.0000      -0.480331       -13.0705 
  68   1.0000      -0.475112       -12.9284 
  69   1.0000      -0.474268       -12.9055 
  70   1.0000      -0.469573       -12.7777 
  71   1.0000      -0.466241       -12.6871 
  72   1.0000      -0.463836       -12.6216 
  73   1.0000      -0.456365       -12.4183 
  74   1.0000      -0.450693       -12.2640 
  75   1.0000      -0.449642       -12.2354 
  76   1.0000      -0.446672       -12.1546 
  77   1.0000      -0.442770       -12.0484 
  78   1.0000      -0.440694       -11.9919 
  79   1.0000      -0.433044       -11.7837 
  80   1.0000      -0.431731       -11.7480 
  81   1.0000      -0.427291       -11.6272 
  82   1.0000      -0.426096       -11.5947 
  83   1.0000      -0.421889       -11.4802 
  84   1.0000      -0.419312       -11.4100 
  85   1.0000      -0.416669       -11.3381 
  86   1.0000      -0.414564       -11.2809 
  87   1.0000      -0.411485       -11.1971 
  88   1.0000      -0.409747       -11.1498 
  89   1.0000      -0.408814       -11.1244 
  90   1.0000      -0.404394       -11.0041 
  91   1.0000      -0.398532       -10.8446 
  92   1.0000      -0.395495       -10.7620 
  93   1.0000      -0.386134       -10.5072 
  94   1.0000      -0.382165       -10.3992 
  95   1.0000      -0.379008       -10.3133 
  96   1.0000      -0.349727        -9.5166 
  97   1.0000      -0.336882        -9.1670 
  98   1.0000      -0.334604        -9.1050 
  99   1.0000      -0.328600        -8.9417 
 100   1.0000      -0.261628        -7.1193 
 101   1.0000      -0.260023        -7.0756 
 102   1.0000      -0.251503        -6.8437 
 103   1.0000      -0.239674        -6.5219 
 104   1.0000      -0.237253        -6.4560 
 105   0.0000      -0.127452        -3.4681 
 106   0.0000      -0.012909        -0.3513 
 107   0.0000       0.004932         0.1342 
 108   0.0000       0.012700         0.3456 
 109   0.0000       0.034342         0.9345 
 110   0.0000       0.057039         1.5521 
 111   0.0000       0.065578         1.7845 
 112   0.0000       0.073938         2.0120 
 113   0.0000       0.089011         2.4221 
 114   0.0000       0.099301         2.7021 
 115   0.0000       0.110877         3.0171 
*Only the first 10 virtual orbitals were printed.

                    ********************************
                    * MULLIKEN POPULATION ANALYSIS *
                    ********************************

--------------------------------------------
MULLIKEN ATOMIC CHARGES AND SPIN POPULATIONS
--------------------------------------------
   0 C :    0.408736    0.001354
   1 C :    0.294877    0.003038
   2 C :    0.282357    0.009619
   3 C :    0.325010   -0.002317
   4 C :    0.089025    0.856403
   5 C :    0.326906   -0.035395
   6 C :    0.286684    0.031978
   7 C :    0.291699    0.003248
   8 F :   -0.136783   -0.000052
   9 F :   -0.134003    0.000026
  10 F :   -0.133258    0.000385
  11 F :   -0.147181   -0.000102
  12 F :   -0.145750    0.000149
  13 F :   -0.155618    0.000042
  14 F :   -0.153428    0.002086
  15 F :   -0.162102    0.023918
  16 F :   -0.157080    0.000095
  17 F :   -0.136346    0.080387
  18 F :   -0.171613    0.006614
  19 F :   -0.171099    0.006495
  20 F :   -0.197815   -0.000634
  21 F :   -0.198412   -0.000088
  22 O :   -0.500587    0.005175
  23 O :   -0.501664    0.007538
  24 O :   -0.735600    0.000017
  25 H :    0.332894   -0.000003
  26 H :    0.351402   -0.000025
  27 H :    0.347789   -0.000029
  28 O :   -0.733084    0.000043
  29 H :    0.334045    0.000037
Sum of atomic charges         :   -1.0000000
Sum of atomic spin populations:    1.0000000

-----------------------------------------------------
MULLIKEN REDUCED ORBITAL CHARGES AND SPIN POPULATIONS
-----------------------------------------------------
CHARGE
  0 C s       :     3.021849  s :     3.021849
      pz      :     0.652469  p :     2.166563
      px      :     0.673120
      py      :     0.840974
      dz2     :     0.083003  d :     0.362431
      dxz     :     0.073950
      dyz     :     0.068475
      dx2y2   :     0.074645
      dxy     :     0.062358
      f0      :     0.007308  f :     0.040422
      f+1     :     0.006265
      f-1     :     0.004462
      f+2     :     0.005983
      f-2     :     0.007413
      f+3     :     0.005094
      f-3     :     0.003897

  1 C s       :     3.103845  s :     3.103845
      pz      :     0.603086  p :     2.276574
      px      :     0.748157
      py      :     0.925330
      dz2     :     0.078633  d :     0.296230
      dxz     :     0.056297
      dyz     :     0.065732
      dx2y2   :     0.036140
      dxy     :     0.059427
      f0      :     0.006216  f :     0.028474
      f+1     :     0.004447
      f-1     :     0.003501
      f+2     :     0.005016
      f-2     :     0.004953
      f+3     :     0.002316
      f-3     :     0.002026

  2 C s       :     3.135672  s :     3.135672
      pz      :     0.650603  p :     2.252321
      px      :     0.723802
      py      :     0.877916
      dz2     :     0.071968  d :     0.301203
      dxz     :     0.063366
      dyz     :     0.059283
      dx2y2   :     0.047708
      dxy     :     0.058877
      f0      :     0.004823  f :     0.028447
      f+1     :     0.006236
      f-1     :     0.003408
      f+2     :     0.004510
      f-2     :     0.003573
      f+3     :     0.003252
      f-3     :     0.002644

  3 C s       :     3.069737  s :     3.069737
      pz      :     0.675507  p :     2.269711
      px      :     0.687932
      py      :     0.906272
      dz2     :     0.058525  d :     0.307667
      dxz     :     0.074767
      dyz     :     0.067694
      dx2y2   :     0.043511
      dxy     :     0.063169
      f0      :     0.004488  f :     0.027876
      f+1     :     0.007088
      f-1     :     0.003724
      f+2     :     0.003151
      f-2     :     0.002683
      f+3     :     0.003005
      f-3     :     0.003736

  4 C s       :     3.234527  s :     3.234527
      pz      :     0.990110  p :     2.500213
      px      :     0.613591
      py      :     0.896512
      dz2     :     0.014117  d :     0.158305
      dxz     :     0.036225
      dyz     :     0.014055
      dx2y2   :     0.030858
      dxy     :     0.063051
      f0      :     0.002266  f :     0.017930
      f+1     :     0.002021
      f-1     :     0.001527
      f+2     :     0.003006
      f-2     :     0.001045
      f+3     :     0.003041
      f-3     :     0.005023

  5 C s       :     3.069652  s :     3.069652
      pz      :     0.907005  p :     2.272970
      px      :     0.598856
      py      :     0.767109
      dz2     :     0.060036  d :     0.302655
      dxz     :     0.059188
      dyz     :     0.050336
      dx2y2   :     0.069954
      dxy     :     0.063142
      f0      :     0.002323  f :     0.027817
      f+1     :     0.004255
      f-1     :     0.003415
      f+2     :     0.004163
      f-2     :     0.003681
      f+3     :     0.004644
      f-3     :     0.005335

  6 C s       :     3.135776  s :     3.135776
      pz      :     0.866107  p :     2.274428
      px      :     0.588293
      py      :     0.820028
      dz2     :     0.049039  d :     0.275942
      dxz     :     0.052084
      dyz     :     0.039888
      dx2y2   :     0.070568
      dxy     :     0.064364
      f0      :     0.002392  f :     0.027169
      f+1     :     0.003586
      f-1     :     0.003076
      f+2     :     0.003751
      f-2     :     0.003583
      f+3     :     0.004913
      f-3     :     0.005868

  7 C s       :     3.033084  s :     3.033084
      pz      :     0.815249  p :     2.386281
      px      :     0.698516
      py      :     0.872516
      dz2     :     0.014561  d :     0.264498
      dxz     :     0.067802
      dyz     :     0.027550
      dx2y2   :     0.079924
      dxy     :     0.074660
      f0      :     0.002105  f :     0.024438
      f+1     :     0.002452
      f-1     :     0.001142
      f+2     :     0.002173
      f-2     :     0.003644
      f+3     :     0.005866
      f-3     :     0.007056

  8 F s       :     3.912761  s :     3.912761
      pz      :     1.633210  p :     5.207113
      px      :     1.686479
      py      :     1.887425
      dz2     :     0.003482  d :     0.016151
      dxz     :     0.006579
      dyz     :     0.002211
      dx2y2   :     0.002095
      dxy     :     0.001784
      f0      :     0.000094  f :     0.000758
      f+1     :     0.000255
      f-1     :     0.000043
      f+2     :     0.000178
      f-2     :     0.000114
      f+3     :     0.000037
      f-3     :     0.000038

  9 F s       :     3.911249  s :     3.911249
      pz      :     1.605310  p :     5.205662
      px      :     1.786355
      py      :     1.813997
      dz2     :     0.004345  d :     0.016320
      dxz     :     0.004705
      dyz     :     0.003997
      dx2y2   :     0.001340
      dxy     :     0.001933
      f0      :     0.000116  f :     0.000773
      f+1     :     0.000191
      f-1     :     0.000149
      f+2     :     0.000099
      f-2     :     0.000164
      f+3     :     0.000028
      f-3     :     0.000025

 10 F s       :     3.911103  s :     3.911103
      pz      :     1.849115  p :     5.205157
      px      :     1.652089
      py      :     1.703953
      dz2     :     0.002061  d :     0.016229
      dxz     :     0.002732
      dyz     :     0.002090
      dx2y2   :     0.003470
      dxy     :     0.005876
      f0      :     0.000079  f :     0.000769
      f+1     :     0.000081
      f-1     :     0.000056
      f+2     :     0.000045
      f-2     :     0.000156
      f+3     :     0.000151
      f-3     :     0.000201

 11 F s       :     3.917391  s :     3.917391
      pz      :     1.570905  p :     5.213077
      px      :     1.748503
      py      :     1.893669
      dz2     :     0.004657  d :     0.016001
      dxz     :     0.005828
      dyz     :     0.002728
      dx2y2   :     0.001335
      dxy     :     0.001452
      f0      :     0.000128  f :     0.000712
      f+1     :     0.000264
      f-1     :     0.000072
      f+2     :     0.000114
      f-2     :     0.000101
      f+3     :     0.000015
      f-3     :     0.000018

 12 F s       :     3.915771  s :     3.915771
      pz      :     1.636509  p :     5.213227
      px      :     1.705153
      py      :     1.871565
      dz2     :     0.003441  d :     0.016032
      dxz     :     0.005872
      dyz     :     0.002656
      dx2y2   :     0.001903
      dxy     :     0.002160
      f0      :     0.000089  f :     0.000720
      f+1     :     0.000216
      f-1     :     0.000063
      f+2     :     0.000136
      f-2     :     0.000142
      f+3     :     0.000033
[...]
      f+3     :    -0.000002
      f-3     :    -0.000002

 19 F s       :     0.000953  s :     0.000953
      pz      :     0.000214  p :     0.007336
      px      :     0.007425
      py      :    -0.000303
      dz2     :    -0.000053  d :    -0.000214
      dxz     :    -0.000053
      dyz     :     0.000031
      dx2y2   :    -0.000006
      dxy     :    -0.000132
      f0      :    -0.000000  f :    -0.000012
      f+1     :    -0.000003
      f-1     :    -0.000001
      f+2     :    -0.000001
      f-2     :    -0.000000
      f+3     :    -0.000001
      f-3     :    -0.000005

 20 F s       :     0.000163  s :     0.000163
      pz      :    -0.000343  p :     0.000100
      px      :     0.000693
      py      :    -0.000250
      dz2     :     0.000031  d :     0.000274
      dxz     :     0.000009
      dyz     :     0.000182
      dx2y2   :     0.000023
      dxy     :     0.000028
      f0      :     0.000000  f :     0.000018
      f+1     :     0.000002
      f-1     :     0.000009
      f+2     :    -0.000000
      f-2     :     0.000004
      f+3     :     0.000003
      f-3     :     0.000000

 21 F s       :     0.000085  s :     0.000085
      pz      :     0.000219  p :     0.000181
      px      :    -0.000097
      py      :     0.000059
      dz2     :     0.000023  d :     0.000239
      dxz     :     0.000135
      dyz     :     0.000047
      dx2y2   :     0.000017
      dxy     :     0.000017
      f0      :     0.000002  f :     0.000016
      f+1     :     0.000003
      f-1     :     0.000001
      f+2     :     0.000005
      f-2     :     0.000002
      f+3     :     0.000001
      f-3     :     0.000002

 22 O s       :     0.000120  s :     0.000120
      pz      :    -0.000263  p :     0.004966
      px      :     0.000529
      py      :     0.004700
      dz2     :    -0.000000  d :     0.000060
      dxz     :    -0.000008
      dyz     :    -0.000020
      dx2y2   :     0.000085
      dxy     :     0.000003
      f0      :    -0.000000  f :     0.000005
      f+1     :     0.000000
      f-1     :     0.000000
      f+2     :     0.000000
      f-2     :    -0.000002
      f+3     :     0.000003
      f-3     :     0.000004

 23 O s       :     0.000139  s :     0.000139
      pz      :    -0.000234  p :     0.006108
      px      :     0.000990
      py      :     0.005352
      dz2     :    -0.000008  d :     0.000076
      dxz     :    -0.000014
      dyz     :    -0.000002
      dx2y2   :    -0.000003
      dxy     :     0.000104
      f0      :    -0.000000  f :     0.000005
      f+1     :    -0.000001
      f-1     :     0.000001
      f+2     :    -0.000001
      f-2     :     0.000000
      f+3     :     0.000001
      f-3     :     0.000006

 24 O s       :     0.000001  s :     0.000001
      pz      :     0.000011  p :     0.000020
      px      :     0.000014
      py      :    -0.000005
      dz2     :    -0.000000  d :    -0.000001
      dxz     :    -0.000000
      dyz     :     0.000000
      dx2y2   :    -0.000000
      dxy     :    -0.000000
      f0      :    -0.000000  f :    -0.000000
      f+1     :    -0.000000
      f-1     :    -0.000000
      f+2     :    -0.000000
      f-2     :    -0.000000
      f+3     :    -0.000000
      f-3     :    -0.000000

 25 H s       :    -0.000002  s :    -0.000002
      pz      :     0.000000  p :     0.000001
      px      :     0.000000
      py      :    -0.000000

 26 H s       :    -0.000013  s :    -0.000013
      pz      :     0.000000  p :    -0.000004
      px      :    -0.000001
      py      :    -0.000004

 27 H s       :    -0.000016  s :    -0.000016
      pz      :     0.000001  p :    -0.000001
      px      :    -0.000005
      py      :     0.000003

 28 O s       :    -0.000001  s :    -0.000001
      pz      :     0.000002  p :     0.000036
      px      :     0.000030
      py      :     0.000005
      dz2     :    -0.000000  d :    -0.000001
      dxz     :    -0.000000
      dyz     :    -0.000000
      dx2y2   :    -0.000000
      dxy     :     0.000000
      f0      :    -0.000000  f :    -0.000000
      f+1     :     0.000000
      f-1     :     0.000000
      f+2     :    -0.000000
      f-2     :    -0.000000
      f+3     :    -0.000000
      f-3     :    -0.000000

 29 H s       :     0.000034  s :     0.000034
      pz      :    -0.000000  p :     0.000000
      px      :    -0.000000
      py      :     0.000000



                      *****************************
                      * MAYER POPULATION ANALYSIS *
                      *****************************

  NA   - Mulliken gross atomic population
  ZA   - Total nuclear charge
  QA   - Mulliken gross atomic charge
  VA   - Mayer's total valence
  BVA  - Mayer's bonded valence
  FA   - Mayer's free valence

  ATOM       NA         ZA         QA         VA         BVA        FA
  0 C      5.5910     6.0000     0.4090     4.5641     4.5641     0.0000
  1 C      5.7056     6.0000     0.2944     4.2345     4.2345     0.0000
  2 C      5.7177     6.0000     0.2823     4.1273     4.1269     0.0004
  3 C      5.6734     6.0000     0.3266     4.3057     4.3026     0.0031
  4 C      5.9097     6.0000     0.0903     3.9682     3.3823     0.5859
  5 C      5.6724     6.0000     0.3276     4.2085     4.2058     0.0027
  6 C      5.7225     6.0000     0.2775     3.9486     3.9476     0.0010
  7 C      5.7040     6.0000     0.2960     4.3979     4.3979     0.0000
  8 F      9.1362     9.0000    -0.1362     1.1881     1.1881     0.0000
  9 F      9.1342     9.0000    -0.1342     1.1905     1.1905     0.0000
 10 F      9.1334     9.0000    -0.1334     1.1910     1.1910     0.0000
 11 F      9.1477     9.0000    -0.1477     1.1790     1.1790     0.0000
 12 F      9.1450     9.0000    -0.1450     1.1804     1.1804     0.0000
 13 F      9.1559     9.0000    -0.1559     1.1739     1.1739     0.0000
 14 F      9.1533     9.0000    -0.1533     1.1740     1.1740     0.0000
 15 F      9.1621     9.0000    -0.1621     1.1479     1.1472     0.0007
 16 F      9.1570     9.0000    -0.1570     1.1636     1.1635     0.0000
 17 F      9.1372     9.0000    -0.1372     1.2063     1.1956     0.0107
 18 F      9.1714     9.0000    -0.1714     1.1434     1.1433     0.0001
 19 F      9.1697     9.0000    -0.1697     1.1428     1.1427     0.0001
 20 F      9.1977     9.0000    -0.1977     1.1073     1.1073     0.0000
 21 F      9.1995     9.0000    -0.1995     1.0966     1.0966     0.0000
 22 O      8.4990     8.0000    -0.4990     1.9620     1.9619     0.0000
 23 O      8.5018     8.0000    -0.5018     1.9648     1.9647     0.0001
 24 O      8.7352     8.0000    -0.7352     1.7254     1.7254     0.0000
 25 H      0.6670     1.0000     0.3330     0.9034     0.9034     0.0000
 26 H      0.6484     1.0000     0.3516     0.9435     0.9435     0.0000
 27 H      0.6528     1.0000     0.3472     0.9531     0.9531     0.0000
 28 O      8.7313     8.0000    -0.7313     1.7379     1.7379     0.0000
 29 H      0.6677     1.0000     0.3323     0.9098     0.9098     0.0000

  Mayer bond orders larger than 0.100000
B(  0-C ,  1-C ) :   0.9671 B(  0-C ,  8-F ) :   1.1587 B(  0-C ,  9-F ) :   1.1693 
B(  0-C , 10-F ) :   1.1622 B(  1-C ,  2-C ) :   0.9275 B(  1-C , 11-F ) :   1.1001 
B(  1-C , 12-F ) :   1.1136 B(  2-C ,  3-C ) :   0.9278 B(  2-C , 13-F ) :   1.0815 
B(  2-C , 14-F ) :   1.0948 B(  3-C ,  4-C ) :   1.0723 B(  3-C , 15-F ) :   1.0766 
B(  3-C , 16-F ) :   1.0842 B(  4-C ,  5-C ) :   1.0129 B(  4-C , 17-F ) :   1.1255 
B(  5-C ,  6-C ) :   0.9162 B(  5-C , 18-F ) :   1.0680 B(  5-C , 19-F ) :   1.0969 
B(  6-C ,  7-C ) :   0.8838 B(  6-C , 20-F ) :   1.0366 B(  6-C , 21-F ) :   1.0286 
B(  7-C , 22-O ) :   1.7153 B(  7-C , 23-O ) :   1.7233 B( 22-O , 27-H ) :   0.1179 
B( 23-O , 26-H ) :   0.1114 B( 24-O , 25-H ) :   0.8980 B( 24-O , 26-H ) :   0.8186 
B( 27-H , 28-O ) :   0.8238 B( 28-O , 29-H ) :   0.8988 

-------
TIMINGS
-------

Total SCF time: 0 days 0 hours 0 min 56 sec 

Total time                  ....      56.402 sec
Sum of individual times     ....      55.013 sec  ( 97.5%)

SCF preparation             ....       1.547 sec  (  2.7%)
Fock matrix formation       ....      46.536 sec  ( 82.5%)
  Startup                   ....       0.204 sec  (  0.4% of F)
  Split-RI-J                ....       3.025 sec  (  6.5% of F)
  Chain of spheres X        ....      30.257 sec  ( 65.0% of F)
  XC integration            ....       9.339 sec  ( 20.1% of F)
    XC Preparation          ....       0.000 sec  (  0.0% of XC)
    Basis function eval.    ....       0.632 sec  (  6.8% of XC)
    Density eval.           ....       2.954 sec  ( 31.6% of XC)
    XC-Functional eval.     ....       0.116 sec  (  1.2% of XC)
    XC-Potential eval.      ....       2.581 sec  ( 27.6% of XC)
  CPCM terms                ....       3.088 sec  (  6.6% of F)
Diagonalization             ....       0.000 sec  (  0.0%)
Density matrix formation    ....       0.739 sec  (  1.3%)
Total Energy calculation    ....       0.411 sec  (  0.7%)
Population analysis         ....       0.607 sec  (  1.1%)
Orbital Transformation      ....       0.673 sec  (  1.2%)
Orbital Orthonormalization  ....       0.000 sec  (  0.0%)
DIIS solution               ....       0.840 sec  (  1.5%)
SOSCF solution              ....       3.660 sec  (  6.5%)
Finished LeanSCF after  57.0 sec

Maximum memory used throughout the entire LEANSCF-calculation: 126.5 MB


-------------------------------------------------------------------------------
                          DFT DISPERSION CORRECTION                            
                                                                               
                              DFTD3 V3.1  Rev 1                                
                          USING Becke-Johnson damping                          
-------------------------------------------------------------------------------
The TPSSH functional is recognized
Active option DFTDOPT                   ...         4   

molecular C6(AA) [au] = 8581.091054 


            DFT-D V3
 parameters
 s6 scaling factor         :     1.0000 
 a1 scaling factor         :     0.4529 
 s8 scaling factor         :     2.2382 
 a2 scaling factor         :     4.6550 
 ad hoc parameters k1-k3   :    16.0000     1.3333    -4.0000 

 Edisp/kcal,au: -21.812210985927  -0.034759967077 
 E6   /kcal   : -10.738524349 
 E8   /kcal   : -11.073686637 
 % E8         :  50.768290497 

-------------------------   ----------------
Dispersion correction           -0.034759967
-------------------------   ----------------


-------------------------   --------------------
FINAL SINGLE POINT ENERGY     -2006.905715117937
-------------------------   --------------------

                                *** OPTIMIZATION RUN DONE ***



           ************************************************************
           *        Program running with 20 parallel MPI-processes    *
           *              working on a common directory               *
           ************************************************************

------------------------------------------------------------------------------
                              ORCA PROPERTY CALCULATIONS
------------------------------------------------------------------------------

GBWName                                 ... rf_mecn_2H2O_opt_TP_con_002.gbw
Number of atoms                         ...     30
Number of basis functions               ...    830
Max core memory                         ...   8000 MB

Electric properties:
Dipole moment                           ... YES
Quadrupole moment                       ...  NO
Static polarizability (Dipole/Dipole)   ...  NO
Static polarizability (Dipole/Quad.)    ...  NO
Static polarizability (Quad./Quad.)     ...  NO
Static polarizability (Velocity)        ...  NO

Atomic electric properties:
Dipole moment                           ...  NO
Quadrupole moment                       ...  NO
Static polarizability                   ...  NO

Choice of electric origin               ... Center of mass
Position of electric origin             ...    13.115242    43.429314     3.446971

General magnetic properties:
Magnetizability                         ...  NO

EPR properties:
g-Tensor (aka g-matrix)                 ...  NO
Zero-Field splitting spin-orbit         ...  NO
Zero-field splitting spin-spin          ...  NO
Hyperfine couplings                     ...  NO (   0 nuclei)
Quadrupole couplings                    ...  NO (   0 nuclei)
Contact density                         ...  NO (   0 nuclei)

NMR properties:
Chemical shifts                         ...  NO (   0 nuclei)
Spin-rotation constants                 ...  NO (   0 nuclei)
Spin-spin couplings                     ...  NO (   0 nuclei,    0 pairs)

Choice of magnetic origin               ... GIAO
Position of magnetic origin             ...     0.000000     0.000000     0.000000

Properties with geometric perturbations:
SCF Hessian                             ...  NO
IR spectrum                             ...  NO
VCD spectrum                            ...  NO
X-ray spectroscopy properties:
SCF XES/XAS/RIXS spectra                ...  NO


-------------
DIPOLE MOMENT
-------------

Method             : SCF
Type of density    : Electron Density
Multiplicity       :   2
Irrep              :   0
Energy             : -2006.8709551508597997 Eh
Relativity type    : 
Basis              : AO
                                X                 Y                 Z
Electronic contribution:      1.661556266      32.924482892      10.995932779
Nuclear contribution   :     -1.603345882     -26.121576975      -7.949076579
                        -----------------------------------------
Total Dipole Moment    :      0.058210384       6.802905917       3.046856200
                        -----------------------------------------
Magnitude (a.u.)       :      7.454277300
Magnitude (Debye)      :     18.947267133



--------------------
Rotational spectrum 
--------------------
 
Rotational constants in cm-1:             0.011913             0.003878             0.003580 
Rotational constants in MHz :           357.131007           116.256887           107.330435 

Dipole components along the rotational axes: 
x,y,z [a.u.] :     7.151734     1.283648     1.664690 
x,y,z [Debye]:    18.178264     3.262773     4.231306 

 

Dipole moment calculation done in   0.1 sec 

Maximum memory used throughout the entire PROP-calculation: 66.1 MB

--------------------------------
SUGGESTED CITATIONS FOR THIS RUN
--------------------------------

Below you find a list of papers that are relevant to this ORCA run
We neither can nor want to force you to cite these papers, but we appreciate if you do
You receive ORCA, which is the product of decades of hard work by many enthusiastic individuals, for free
The only thing we kindly ask in return is that you cite our papers,
We deeply appreciate it, if you show your appreciation for ORCA by not just citing the generic ORCA reference.

Please note that relegating all ORCA citations to the supporting information does *not* help us.
SI sections are not indexed - citations you put there will not count into any citation statistics
But we need these citations in order to attract the funding resources that allow us to do what we are doing

Therefore, if you are a happy ORCA user, please consider citing a few of the papers listed below in the main body of your paper

In addition to the list printed below, the program has created the file rf_mecn_2H2O_opt_TP_con_002.bibtex that contains the list in bibtex format
You can import this file easily into all common literature databanks and citation aid programs


List of essential papers. We consider these as the minimum necessary citations

  1. Neese,F.
     Software update: the ORCA program system, version 5.0
     WIRES Comput. Molec. Sci., 2022 12(1)e1606
     doi.org/10.1002/wcms.1606

List of papers to cite with high priority. The work reported in these papers was absolutely
necessary for this run to complete.
Our perspective: the developers of density functionals and basis sets usually get cited in chemistry papers
Good! But without the algorithms to do something with them, the functionals or basis sets would not do anything.
Hence, in our opinion, the algorithm design and method developments papers are equally worthy of getting cited

  1. Neese,F.
     An improvement of the resolution of the identity approximation for the formation of the Coulomb matrix
     J. Comp. Chem., 2003 24(14)1740-1747
     doi.org/10.1002/jcc.10318
  2. Neese,F.; Wennmohs,F.; Hansen,A.; Becker,U.
     Efficient, approximate and parallel Hartree-Fock and hybrid DFT calculations. A 'chain-of-spheres' algorithm for the Hartree-Fock exchange
     Chem. Phys., 2009 356(1-3)98-109
     doi.org/10.1016/j.chemphys.2008.10.036
  3. Garcia-Rates,M.; Neese,F.
     Effect of the Solute Cavity on the Solvation Energy and its Derivatives within the Framework of the Gaussian Charge Scheme
     J. Comput. Chem., 2020 41 922-939
     doi.org/10.1002/jcc.26139
  4. Helmich-Paris,B.; de Souza,B.; Neese,F.; Izsák,R.
     An improved chain of spheres for exchange algorithm
     J. Chem. Phys., 2021 155 104109
     doi.org/doi: 10.1063/5.0058766.
  5. Neese,F.
     The SHARK Integral Generation and Digestion System
     J. Comp. Chem., 2022  1-16
     doi.org/10.1002/jcc.26942
  6. Grimme,S.; Antony,J.; Ehrlich,S.; Krieg,H.
     A consistent and accurate ab initio parametrization of density functional dispersion correction (DFT-D) for the 94 elements H-Pu
     J. Chem. Phys., 2010 132 154104
     doi.org/10.1063/1.3382344
  7. Grimme,S.; Ehrlich,S.; Goerigk,L.
     Effect of the damping function in dispersion corrected density functional theory
     J. Comput. Chem., 2011 32(7)1456-1465
     doi.org/10.1002/jcc.21759

List of suggested additional citations. These are papers that are important in the 'surrounding' of 
of this run, or papers that preceded the highly important papers. If you like your results we are grateful for a citation.

  1. Izsak,R.; Neese,F.
     An overlap fitted chain of spheres exchange method
     J. Chem. Phys., 2011 135 144105
     doi.org/10.1063/1.3646921
  2. Izsak,R.; Hansen,A.; Neese,F.
     The resolution of identity and chain of spheres approximations for the LPNO-CCSD singles Fock term
     Molec. Phys., 2012 110 2413-2417
     doi.org/10.1080/00268976.2012.687466
  3. Neese,F.
     The ORCA program system
     WIRES Comput. Molec. Sci., 2012 2(1)73-78
     doi.org/10.1002/wcms.81
  4. Izsak,R.; Neese,F.; Klopper,W.
     Robust fitting techniques in the chain of spheres approximation to the Fock exchange: The role of the complementary space
     J. Chem. Phys., 2013 139 
     doi.org/10.1063/1.4819264
  5. Neese,F.
     Software update: the ORCA program system, version 4.0
     WIRES Comput. Molec. Sci., 2018 8(1)1-6
     doi.org/10.1002/wcms.1327
  6. Neese,F.; Wennmohs,F.; Becker,U.; Riplinger,C.
     The ORCA quantum chemistry program package
     J. Chem. Phys., 2020 152 Art. No. L224108
     doi.org/10.1063/5.0004608

List of optional additional citations

  1. Neese,F.
     Approximate second-order SCF convergence for spin unrestricted wavefunctions
     Chem. Phys. Lett., 2000 325(1-3)93-98
     doi.org/10.1016/s0009-2614(00)00662-x

Timings for individual modules:

Sum of individual times          ...     2577.245 sec (=  42.954 min)
Startup calculation              ...      114.273 sec (=   1.905 min)   4.4 %
SCF iterations                   ...     1854.281 sec (=  30.905 min)  71.9 %
Property calculations            ...        0.979 sec (=   0.016 min)   0.0 %
SCF Gradient evaluation          ...      607.145 sec (=  10.119 min)  23.6 %
Geometry relaxation              ...        0.567 sec (=   0.009 min)   0.0 %
                             ****ORCA TERMINATED NORMALLY****
TOTAL RUN TIME: 0 days 0 hours 43 minutes 14 seconds 767 msec
