
                                 *****************
                                 * O   R   C   A *
                                 *****************

                                            #,                                       
                                            ###                                      
                                            ####                                     
                                            #####                                    
                                            ######                                   
                                           ########,                                 
                                     ,,################,,,,,                         
                               ,,#################################,,                 
                          ,,##########################################,,             
                       ,#########################################, ''#####,          
                    ,#############################################,,   '####,        
                  ,##################################################,,,,####,       
                ,###########''''           ''''###############################       
              ,#####''   ,,,,##########,,,,          '''####'''          '####       
            ,##' ,,,,###########################,,,                        '##       
           ' ,,###''''                  '''############,,,                           
         ,,##''                                '''############,,,,        ,,,,,,###''
      ,#''                                            '''#######################'''  
     '                                                          ''''####''''         
             ,#######,   #######,   ,#######,      ##                                
            ,#'     '#,  ##    ##  ,#'     '#,    #''#        ,####,   ,####,        
            ##       ##  ##   ,#'  ##            #'  '#       #'       #'  '#        
            ##       ##  #######   ##           ,######,      #####,   #    #        
            '#,     ,#'  ##    ##  '#,     ,#' ,#      #,     #,   #   #,  ,#        
             '#######'   ##     ##  '#######'  #'      '#     '####' # '####'        



                #########################################################
                #                        -***-                          #
                #          Department of theory and spectroscopy        #
                #                                                       #
                #                      Frank Neese                      #
                #                                                       #
                #     Directorship, Architecture, Infrastructure        #
                #                    SHARK, DRIVERS                     #
                #        Core code/Algorithms in most modules           #
                #                                                       #
                #        Max Planck Institute fuer Kohlenforschung      #
                #                Kaiser Wilhelm Platz 1                 #
                #                 D-45470 Muelheim/Ruhr                 #
                #                      Germany                          #
                #                                                       #
                #                  All rights reserved                  #
                #                        -***-                          #
                #########################################################


                         Program Version 6.0.1  -  RELEASE   -


 With contributions from (in alphabetic order):
[Max-Planck-Institut fuer Kohlenforschung]                               
  Daniel Aravena         : Magnetic Suceptibility                        
  Michael Atanasov       : Ab Initio Ligand Field Theory (pilot matlab implementation)
  Alexander A. Auer      : GIAO ZORA, VPT2 properties, NMR spectrum      
  Ute Becker             : All parallelization in ORCA, NUMFREQ, NUMCALC 
  Giovanni Bistoni       : ED, misc. LED, open-shell LED, HFLD           
  Martin Brehm           : Molecular dynamics                            
  Dmytro Bykov           : pre 5.0 version of the SCF Hessian            
  Marcos Casanova-Páez   : Triplet and SCS-CIS(D). UHF-(DLPNO)-IP/EA/STEOM-CCSD. UHF-CVS-IP/STEOM-CCSD   
  Vijay G. Chilkuri      : MRCI spin determinant printing, contributions to CSF-ICE 
  Pauline Colinet        : FMM embedding                                 
  Dipayan Datta          : RHF DLPNO-CCSD density                        
  Achintya Kumar Dutta   : EOM-CC, STEOM-CC                              
  Nicolas Foglia         : Exact transition moments, OPA infrastructure, MCD improvements    
  Dmitry Ganyushin       : Spin-Orbit,Spin-Spin,Magnetic field MRCI      
  Miquel Garcia-Rates    : C-PCM and meta-GGA Hessian, CCSD/C-PCM, Gaussian charge scheme 
  Tiago L. C. Gouveia    : GS-ROHF, GS-ROCIS                             
  Yang Guo               : DLPNO-NEVPT2, F12-NEVPT2, CIM, IAO-localization        
  Andreas Hansen         : Spin unrestricted coupled pair/coupled cluster methods 
  Ingolf Harden          : AUTO-CI MPn and infrastructure                
  Benjamin Helmich-Paris : MC-RPA, TRAH-(SCF,CASSCF), AVAS, COSX integrals, SCF dyn. polar. 
  Lee Huntington         : MR-EOM, pCC                                   
  Robert Izsak           : Overlap fitted RIJCOSX, COSX-SCS-MP3, EOM     
  Riya Kayal             : Wick's Theorem for AUTO-CI, AUTO-CI UHF-CCSDT 
  Emily Kempfer          : AUTO-CI, RHF CISDT and CCSDT                  
  Christian Kollmar      : KDIIS, OOCD, Brueckner-CCSD(T), CCSD density, CASPT2, CASPT2-K, improved NEVPT2 
  Axel Koslowski         : Symmetry handling                             
  Simone Kossmann        : meta-GGA functionals, TD-DFT gradient, OOMP2, (MP2 Hessian; deprecated post 5.0) 
  Lucas Lang             : DCDCAS                                        
  Marvin Lechner         : AUTO-CI (C++ implementation), FIC-MRCC        
  Spencer Leger          : CASSCF response                               
  Dagmar Lenk            : GEPOL surface, SMD, ORCA-2-JSON               
  Dimitrios Liakos       : Extrapolation schemes; Compound Job, initial MDCI parallelization 
  Dimitrios Manganas     : Further ROCIS development; embedding schemes. LFT, Crystal Embedding 
  Dimitrios Pantazis     : SARC Basis sets                               
  Anastasios Papadopoulos: AUTO-CI, single reference methods and gradients 
  Taras Petrenko         : pre 6.0 DFT Hessian and TD-DFT gradient, (ASA, deprecated), ECA, 1-Electron XAS/XES, NRVS 
  Peter Pinski           : DLPNO-MP2, DLPNO-MP2 Gradient                 
  Christoph Reimann      : Effective Core Potentials                     
  Marius Retegan         : Local ZFS, SOC                                
  Christoph Riplinger    : Optimizer, TS searches, QM/MM, DLPNO-CCSD(T), (RO)-DLPNO pert. Triples 
  Michael Roemelt        : Original ROCIS implementation                 
  Masaaki Saitow         : Open-shell DLPNO-CCSD energy and density      
  Barbara Sandhoefer     : DKH picture change effects                    
  Kantharuban Sivalingam : CASSCF convergence/infrastructure, NEVPT2 and variants, FIC-MRCI 
  Bernardo de Souza      : ESD, SOC TD-DFT                               
  Georgi L. Stoychev     : AutoAux, RI-MP2 NMR, DLPNO-MP2 response, X2C  
  Van Anh Tran           : RI-MP2 g-tensors                              
  Willem Van den Heuvel  : Paramagnetic NMR                              
  Zikuan Wang            : NOTCH, Electric field optimization            
  Frank Wennmohs         : Technical directorship and infrastructure     
  Hang Xu                : AUTO-CI-Response properties                   
                                                                         
[FACCTs GmbH]                                                            
  Markus Bursch, Miquel Garcia-Rates, Christoph Riplinger, Bernardo de Souza, Georgi L. Stoychev 
                                                                 
  APM, Basis sets (HGBS, AHGBS, def-TZVP (Ac-Lr), def2-XVPD (La-Lu)), CI-OPT, improved COSX, DLPNO-Multilevel,           
  DOCKER, DRACO, updates on ESD, GOAT, IRC, LR-CPCM, MBIS, meta-GGA TD-DFT gradient, ML-optimized integration grids, 
  MM, NACMEs, nearIR, NEB, NEB-TS, NL-DFT gradient (VV10), 2- and 3-layer-ONIOM, interface openCOSMO-RS, QMMM,   
  Crystal-QMMM, SF, symmetry and pop. for TD-DFT, r2SCAN hybrids, SOLVATOR                                   
                                                                         
[Other institutions]                                                     
  V. Asgeirsson          : NEB                                           
  Christoph Bannwarth    : sTDA-DFT, sTD-DFT, PBEh-3c, B97-3c, D3        
  Sebastian Ehlert       : rSCAN, r2SCAN, r2SCAN-3c, D4, dhf basis sets  
  Marvin Friede          : D4 for Fr, Ra, Ac-Lr                          
  Lars Goerigk           : TD-DFT with DH, B97 family of functionals     
  Stefan Grimme          : VdW corrections, initial TS optimization, DFT functionals, gCP, sTDA/sTD-DF 
  Waldemar Hujo          : DFT-NL                                        
  H. Jonsson             : NEB                                           
  Holger Kruse           : gCP                                           
  Marcel Mueller         : wB97X-3c, vDZP basis set                      
  Hagen Neugebauer       : wr2SCAN                                       
  Tobias Risthaus        : range-separated hybrid DFT                    
  Lukas Wittmann         : regularized MP2, r2SCAN double-hybrids, wr2SCAN        
                                                                         
We gratefully acknowledge several colleagues who have allowed us to      
interface, adapt or use parts of their codes:                            
  Ed Valeev, F. Pavosevic, A. Kumar             : LibInt (2-el integral package), F12 methods 
  Garnet Chan, S. Sharma, J. Yang, R. Olivares  : DMRG                   
  Ulf Ekstrom                                   : XCFun DFT Library      
  Mihaly Kallay                                 : mrcc  (arbitrary order and MRCC methods)
  Frank Weinhold                                : gennbo (NPA and NBO analysis)           
  Simon Mueller                                 : openCOSMO-RS                            
  Christopher J. Cramer and Donald G. Truhlar   : smd solvation model                     
  S Lehtola, MJT Oliveira, MAL Marques          : LibXC Library                           
  Liviu Ungur et al                             : ANISO software                          


 Your calculation uses the libint2 library for the computation of 2-el integrals
 For citations please refer to: http://libint.valeyev.net

 Your ORCA version has been built with support for libXC version: 6.2.2
 For citations please refer to: https://libxc.gitlab.io

 This ORCA versions uses:
   CBLAS   interface :  Fast vector & matrix operations
   LAPACKE interface :  Fast linear algebra routines
   SCALAPACK package :  Parallel linear algebra routines
   Shared memory     :  Shared parallel matrices
   BLAS/LAPACK       :  OpenBLAS 0.3.27  USE64BITINT DYNAMIC_ARCH NO_AFFINITY SkylakeX SINGLE_THREADED
        Core in use  :  SkylakeX
   Copyright (c) 2011-2014, The OpenBLAS Project


NOTE: MaxCore=8000 MB was set to SCF,MP2,MDCI,CIPSI,MRCI and CIS
      => If you want to overwrite this, your respective input block should be placed after the MaxCore statement
Your calculation utilizes the atom-pairwise dispersion correction
with the Becke-Johnson damping scheme (D3BJ)


Your calculation utilizes the SMD solvation module
Please cite in your paper:
A.V. Marenich, C.J. Cramer, D.G. Truhlar J. Phys. Chem. B, 113, (2009), 6378 

Warning: RI is on but no J-basis has been assigned. Assigning Def2/J (nothing to worry about!)
================================================================================

----- Orbital basis set information -----
Your calculation utilizes the basis: def2-TZVP
   F. Weigend and R. Ahlrichs, Phys. Chem. Chem. Phys. 7, 3297 (2005).

----- AuxJ basis set information -----
Your calculation utilizes the auxiliary basis: def2/J
   F. Weigend, Phys. Chem. Chem. Phys. 8, 1057 (2006).

================================================================================
                                        WARNINGS
                       Please study these warnings very carefully!
================================================================================


WARNING: your system is open-shell and RHF/RKS was chosen
  ===> : WILL SWITCH to UHF/UKS


WARNING: Geometry Optimization
  ===> : Switching off AutoStart
         For restart on a previous wavefunction, please use MOREAD

================================================================================
                                       INPUT FILE
================================================================================
NAME = rf_mecn_2H2O_opt_TP_sw_004.inp
|  1> !TPSSh def2-TZVP opt d3 TightSCF SlowConv defgrid2
|  2>  
|  3> %pal
|  4> nprocs 20
|  5> end
|  6>  
|  7> %scf
|  8> MaxIter 1500
|  9> end
| 10>  
| 11> %maxcore 8000
| 12>  
| 13> !CPCM
| 14> %cpcm smd true
| 15> SMDsolvent "ACETONITRILE"
| 16> end
| 17>  
| 18> * xyz -2 2
| 19> 6        7.369539000     27.836887000      2.875128000
| 20> 6        6.819253000     26.400301000      3.045578000
| 21> 6        7.252508000     25.202707000      2.139346000
| 22> 6        6.767447000     23.698968000      2.201011000
| 23> 6        7.200514000     22.514484000      1.272699000
| 24> 6        6.737514000     21.035786000      1.471519000
| 25> 6        7.014916000     19.967369000      0.372037000
| 26> 6        6.730507000     18.499223000      0.822816000
| 27> 9        7.054685000     28.330751000      1.665850000
| 28> 9        8.706365000     27.856437000      3.007823000
| 29> 9        6.873486000     28.714717000      3.794736000
| 30> 9        7.124661000     26.053773000      4.343072000
| 31> 9        5.454460000     26.523591000      2.932174000
| 32> 9        6.938251000     25.618494000      0.847962000
| 33> 9        8.632090000     25.140529000      2.276703000
| 34> 9        7.090691000     23.283282000      3.489349000
| 35> 9        5.387177000     23.771388000      2.082759000
| 36> 9        6.815749000     22.871504000     -0.002759000
| 37> 9        8.579481000     22.484030000      1.318326000
| 38> 9        7.314704000     20.590745000      2.629644000
| 39> 9        5.380414000     21.050262000      1.666380000
| 40> 9        6.254325000     20.290818000     -0.720906000
| 41> 9        8.326434000     20.103811000     -0.018342000
| 42> 8        7.683677000     17.901724000      1.369258000
| 43> 8        5.566190000     18.089731000      0.624048000
| 44> 8        3.365171000     18.904727000     -0.816130000
| 45> 1        2.732271000     18.255630000     -0.483062000
| 46> 1        4.199904000     18.696448000     -0.334087000
| 47> 1        9.196938000     18.592267000      1.950978000
| 48> 8       10.066233000     18.888142000      2.314280000
| 49> 1       10.068661000     19.842315000      2.166028000
| 50> *
| 51> 
| 52>                          ****END OF INPUT****
================================================================================

                       *****************************
                       * Geometry Optimization Run *
                       *****************************

Geometry optimization settings:
Update method            Update   .... BFGS
Choice of coordinates    CoordSys .... (2022) Redundant Internals
Initial Hessian          InHess   .... Almloef's Model
Max. no of cycles        MaxIter  .... 93

Convergence Tolerances:
Energy Change            TolE     ....  5.0000e-06 Eh
Max. Gradient            TolMAXG  ....  3.0000e-04 Eh/bohr
RMS Gradient             TolRMSG  ....  1.0000e-04 Eh/bohr
Max. Displacement        TolMAXD  ....  4.0000e-03 bohr
RMS Displacement         TolRMSD  ....  2.0000e-03 bohr
Strict Convergence                .... False

------------------------------------------------------------------------------
                        ORCA OPTIMIZATION COORDINATE SETUP
------------------------------------------------------------------------------

The optimization will be done in redundant internal coordinates (2022)
Making redundant internal coordinates   ...  (2022 redundants) done
Evaluating the initial hessian          ...  (Almloef) done
Evaluating the coordinates              ...  done
Calculating the B-matrix                .... done
Calculating the G-matrix                .... done
Diagonalizing the G-matrix              .... done
Small eigenvalue found = 3.667e-03
Small eigenvalue found = 4.888e-03
Small eigenvalue found = 9.097e-03
Small eigenvalue found = 1.342e-02
Small eigenvalue found = 2.183e-02
The first mode is                       ....   43
The number of degrees of freedom        ....   87

    -----------------------------------------------------------------
                    Redundant Internal Coordinates


    -----------------------------------------------------------------
         Definition                    Initial Value    Approx d2E/dq
    -----------------------------------------------------------------
      1. B(C   1,C   0)                  1.5478         0.349944   
      2. B(C   2,C   1)                  1.5631         0.330835   
      3. B(C   3,C   2)                  1.5812         0.309477   
      4. B(C   4,C   3)                  1.5660         0.327313   
      5. B(C   5,C   4)                  1.5622         0.331907   
      6. B(C   6,C   5)                  1.5580         0.337073   
      7. B(C   7,C   6)                  1.5619         0.332259   
      8. B(F   8,C   0)                  1.3436         0.616481   
      9. B(F   9,C   0)                  1.3435         0.616729   
     10. B(F  10,C   0)                  1.3647         0.570656   
     11. B(F  11,C   1)                  1.3773         0.544869   
     12. B(F  12,C   1)                  1.3750         0.549342   
     13. B(F  13,C   2)                  1.3926         0.515031   
     14. B(F  14,C   2)                  1.3878         0.524182   
     15. B(F  15,C   3)                  1.3918         0.516537   
     16. B(F  16,C   3)                  1.3872         0.525298   
     17. B(F  17,C   4)                  1.3792         0.540923   
     18. B(F  18,C   4)                  1.3801         0.539298   
     19. B(F  19,C   5)                  1.3684         0.562938   
     20. B(F  20,C   5)                  1.3711         0.557351   
     21. B(F  21,C   6)                  1.3703         0.559040   
     22. B(F  22,C   6)                  1.3752         0.549070   
     23. B(O  23,C   7)                  1.2507         0.933667   
     24. B(O  24,C   7)                  1.2501         0.935466   
     25. B(H  26,O  25)                  0.9658         0.508942   
     26. B(H  27,O  24)                  1.7756         0.025982   
     27. B(H  27,O  25)                  0.9862         0.472302   
     28. B(H  28,O  23)                  1.7622         0.027301   
     29. B(O  29,H  28)                  0.9875         0.469952   
     30. B(H  30,O  29)                  0.9656         0.509323   
     31. A(C   1,C   0,F   9)          110.8783         0.387635   
     32. A(C   1,C   0,F   8)          110.9129         0.387608   
     33. A(F   8,C   0,F  10)          106.5511         0.417965   
     34. A(F   9,C   0,F  10)          106.6046         0.417995   
     35. A(C   1,C   0,F  10)          113.1783         0.382433   
     36. A(F   8,C   0,F   9)          108.4633         0.423797   
     37. A(C   2,C   1,F  11)          106.9751         0.375711   
     38. A(C   0,C   1,C   2)          123.2805         0.351991   
     39. A(C   2,C   1,F  12)          107.2174         0.376242   
     40. A(C   0,C   1,F  12)          105.1044         0.379916   
     41. A(F  11,C   1,F  12)          108.6844         0.406154   
     42. A(C   0,C   1,F  11)          104.9774         0.379378   
     43. A(C   3,C   2,F  13)          104.5294         0.367835   
     44. A(C   1,C   2,F  14)          104.6246         0.373210   
     45. A(C   1,C   2,C   3)          128.3884         0.344777   
     46. A(C   1,C   2,F  13)          104.2606         0.372079   
     47. A(C   3,C   2,F  14)          104.9797         0.368949   
     48. A(F  13,C   2,F  14)          109.2376         0.398832   
     49. A(F  15,C   3,F  16)          109.0011         0.399186   
     50. A(C   4,C   3,F  16)          105.3144         0.372659   
     51. A(C   2,C   3,C   4)          127.6878         0.344158   
     52. A(C   2,C   3,F  16)          104.6109         0.369084   
     53. A(C   2,C   3,F  15)          104.4115         0.368020   
     54. A(C   4,C   3,F  15)          104.9868         0.371581   
     55. A(C   3,C   4,F  18)          105.8679         0.374353   
     56. A(C   5,C   4,F  17)          106.2621         0.375449   
     57. A(C   3,C   4,F  17)          105.9771         0.374547   
     58. A(C   3,C   4,C   5)          123.9555         0.348231   
     59. A(F  17,C   4,F  18)          108.3629         0.404313   
     60. A(C   5,C   4,F  18)          105.7267         0.375254   
     61. A(C   4,C   5,C   6)          120.4329         0.349961   
     62. A(F  19,C   5,F  20)          107.4967         0.409553   
     63. A(C   6,C   5,F  20)          106.4853         0.378405   
     64. A(C   4,C   5,F  20)          107.5445         0.377395   
     65. A(C   6,C   5,F  19)          107.4057         0.379059   
     66. A(C   4,C   5,F  19)          106.8909         0.378047   
     67. A(C   5,C   6,C   7)          114.1111         0.350024   
     68. A(F  21,C   6,F  22)          106.2322         0.407967   
     69. A(C   7,C   6,F  22)          110.4173         0.376489   
     70. A(C   5,C   6,F  22)          107.5840         0.377426   
     71. A(C   7,C   6,F  21)          110.5487         0.377662   
     72. A(C   5,C   6,F  21)          107.5883         0.378604   
     73. A(O  23,C   7,O  24)          128.5209         0.497696   
     74. A(C   6,C   7,O  24)          115.5692         0.415158   
     75. A(C   6,C   7,O  23)          115.8739         0.415016   
     76. A(C   7,O  23,H  28)          127.6986         0.247294   
     77. A(C   7,O  24,H  27)          133.6711         0.245599   
     78. A(H  26,O  25,H  27)          104.1323         0.315721   
     79. A(O  24,H  27,O  25)          170.8348         0.204629   
     80. A(O  23,H  28,O  29)          174.1538         0.205800   
     81. A(H  28,O  29,H  30)          103.9923         0.315504   
     82. D(C   2,C   1,C   0,F   8)     61.6268         0.009867   
     83. D(F  11,C   1,C   0,F   9)     63.5431         0.009867   
     84. D(F  11,C   1,C   0,F   8)   -175.8857         0.009867   
     85. D(C   2,C   1,C   0,F  10)   -178.6808         0.009867   
     86. D(C   2,C   1,C   0,F   9)    -58.9444         0.009867   
     87. D(F  11,C   1,C   0,F  10)    -56.1934         0.009867   
     88. D(C   3,C   2,C   1,C   0)   -179.7111         0.008909   
     89. D(F  13,C   2,C   1,F  11)   -179.1700         0.008909   
     90. D(F  13,C   2,C   1,C   0)    -57.5968         0.008909   
     91. D(F  13,C   2,C   1,F  12)     64.3903         0.008909   
     92. D(C   3,C   2,C   1,F  11)     58.7158         0.008909   
     93. D(C   3,C   2,C   1,F  12)    -57.7240         0.008909   
     94. D(C   4,C   3,C   2,F  13)     57.2109         0.007915   
     95. D(C   4,C   3,C   2,F  14)    -57.7305         0.007915   
     96. D(C   4,C   3,C   2,C   1)    179.2149         0.007915   
     97. D(F  15,C   3,C   2,F  14)     64.6756         0.007915   
     98. D(F  15,C   3,C   2,F  13)    179.6169         0.007915   
     99. D(F  15,C   3,C   2,C   1)    -58.3790         0.007915   
    100. D(F  17,C   4,C   3,F  16)     61.4877         0.008739   
    101. D(F  17,C   4,C   3,F  15)    176.4971         0.008739   
    102. D(F  17,C   4,C   3,C   2)    -61.3357         0.008739   
    103. D(C   5,C   4,C   3,F  16)    -61.4661         0.008739   
    104. D(C   5,C   4,C   3,F  15)     53.5433         0.008739   
    105. D(C   5,C   4,C   3,C   2)    175.7105         0.008739   
    106. D(F  19,C   5,C   4,F  18)     54.4593         0.008961   
    107. D(F  19,C   5,C   4,F  17)    169.4876         0.008961   
    108. D(F  19,C   5,C   4,C   3)    -67.6859         0.008961   
    109. D(C   6,C   5,C   4,F  18)    -68.2899         0.008961   
    110. D(C   6,C   5,C   4,F  17)     46.7384         0.008961   
    111. D(C   6,C   5,C   4,C   3)    169.5649         0.008961   
    112. D(C   7,C   6,C   5,C   4)    169.3775         0.009214   
    113. D(F  21,C   6,C   5,F  20)     55.0002         0.009214   
    114. D(F  21,C   6,C   5,F  19)    169.9206         0.009214   
    115. D(F  21,C   6,C   5,C   4)    -67.5784         0.009214   
    116. D(C   7,C   6,C   5,F  20)    -68.0438         0.009214   
    117. D(C   7,C   6,C   5,F  19)     46.8765         0.009214   
    118. D(O  24,C   7,C   6,F  21)    -31.7901         0.008430   
    119. D(O  24,C   7,C   6,C   5)     89.6308         0.008430   
    120. D(O  23,C   7,C   6,F  22)     32.9412         0.008430   
    121. D(O  23,C   7,C   6,F  21)    150.2039         0.008430   
    122. D(O  23,C   7,C   6,C   5)    -88.3752         0.008430   
    123. D(H  28,O  23,C   7,O  24)   -165.6772         0.069970   
    124. D(H  28,O  23,C   7,C   6)     12.0236         0.069970   
    125. D(H  27,O  24,C   7,O  23)   -168.9367         0.070278   
    126. D(H  27,O  24,C   7,C   6)     13.3566         0.070278   
    127. D(O  24,H  27,O  25,H  26)      9.0435         0.237973   
    128. D(O  25,H  27,O  24,C   7)    178.5785         0.001820   
    129. D(O  29,H  28,O  23,C   7)    174.0928         0.001855   
    130. D(H  30,O  29,H  28,O  23)   -173.3415         0.234962   
    -----------------------------------------------------------------

Number of atoms                         .... 31
Number of degrees of freedom            .... 130


         *************************************************************
         *                GEOMETRY OPTIMIZATION CYCLE   1            *
         *************************************************************
---------------------------------
CARTESIAN COORDINATES (ANGSTROEM)
---------------------------------
  C      7.369539   27.836887    2.875128
  C      6.819253   26.400301    3.045578
  C      7.252508   25.202707    2.139346
  C      6.767447   23.698968    2.201011
  C      7.200514   22.514484    1.272699
  C      6.737514   21.035786    1.471519
  C      7.014916   19.967369    0.372037
  C      6.730507   18.499223    0.822816
  F      7.054685   28.330751    1.665850
  F      8.706365   27.856437    3.007823
  F      6.873486   28.714717    3.794736
  F      7.124661   26.053773    4.343072
  F      5.454460   26.523591    2.932174
  F      6.938251   25.618494    0.847962
  F      8.632090   25.140529    2.276703
  F      7.090691   23.283282    3.489349
  F      5.387177   23.771388    2.082759
  F      6.815749   22.871504   -0.002759
  F      8.579481   22.484030    1.318326
  F      7.314704   20.590745    2.629644
  F      5.380414   21.050262    1.666380
  F      6.254325   20.290818   -0.720906
  F      8.326434   20.103811   -0.018342
  O      7.683677   17.901724    1.369258
  O      5.566190   18.089731    0.624048
  O      3.365171   18.904727   -0.816130
  H      2.732271   18.255630   -0.483062
  H      4.199904   18.696448   -0.334087
  H      9.196938   18.592267    1.950978
  O     10.066233   18.888142    2.314280
  H     10.068661   19.842315    2.166028

----------------------------
CARTESIAN COORDINATES (A.U.)
----------------------------
  NO LB      ZA    FRAG     MASS         X           Y           Z
   0 C     6.0000    0    12.011   13.926410   52.604093    5.433205
   1 C     6.0000    0    12.011   12.886521   49.889339    5.755308
   2 C     6.0000    0    12.011   13.705254   47.626214    4.042778
   3 C     6.0000    0    12.011   12.788621   44.784559    4.159308
   4 C     6.0000    0    12.011   13.606999   42.546209    2.405053
   5 C     6.0000    0    12.011   12.732056   39.751875    2.780768
   6 C     6.0000    0    12.011   13.256270   37.732859    0.703048
   7 C     6.0000    0    12.011   12.718815   34.958465    1.554897
   8 F     9.0000    0    18.998   13.331423   53.537361    3.148000
   9 F     9.0000    0    18.998   16.452645   52.641037    5.683962
  10 F     9.0000    0    18.998   12.989006   54.262951    7.171012
  11 F     9.0000    0    18.998   13.463658   49.234496    8.207217
  12 F     9.0000    0    18.998   10.307436   50.122323    5.541006
  13 F     9.0000    0    18.998   13.111394   48.411938    1.602416
  14 F     9.0000    0    18.998   16.312286   47.508715    4.302345
  15 F     9.0000    0    18.998   13.399464   43.999026    6.593914
  16 F     9.0000    0    18.998   10.180289   44.921413    3.935844
  17 F     9.0000    0    18.998   12.879899   43.220879   -0.005214
  18 F     9.0000    0    18.998   16.212869   42.488659    2.491275
  19 F     9.0000    0    18.998   13.822787   38.910869    4.969307
  20 F     9.0000    0    18.998   10.167509   39.779230    3.149002
  21 F     9.0000    0    18.998   11.818961   38.344089   -1.362315
  22 F     9.0000    0    18.998   15.734680   37.990697   -0.034661
  23 O     8.0000    0    15.999   14.520045   33.829356    2.587523
  24 O     8.0000    0    15.999   10.518575   34.184637    1.179280
  25 O     8.0000    0    15.999    6.359252   35.724757   -1.542262
  26 H     1.0000    0     1.008    5.163244   34.498141   -0.912855
  27 H     1.0000    0     1.008    7.936668   35.331166   -0.631333
  28 H     1.0000    0     1.008   17.379694   35.134293    3.686814
  29 O     8.0000    0    15.999   19.022424   35.693416    4.373355
  30 H     1.0000    0     1.008   19.027012   37.496541    4.093200

--------------------------------
INTERNAL COORDINATES (ANGSTROEM)
--------------------------------
 C      0   0   0     0.000000000000     0.00000000     0.00000000
 C      1   0   0     1.547787847120     0.00000000     0.00000000
 C      2   1   0     1.563073165813   123.28048954     0.00000000
 C      3   2   1     1.581239300696   128.38836332   180.28894235
 C      4   3   2     1.565986124488   127.68783512   179.21493596
 C      5   4   3     1.562192743423   123.95546512   175.71049247
 C      6   5   4     1.557988261771   120.43290830   169.56489380
 C      7   6   5     1.561903602479   114.11110619   169.37753969
 F      1   2   3     1.343647265132   110.91293482    61.62684851
 F      1   2   3     1.343537837130   110.87827231   301.05564305
 F      1   2   3     1.364673206806   113.17834826   181.31918424
 F      2   1   3     1.377260462398   104.97737883   122.48746007
 F      2   1   3     1.375034844709   105.10441067   237.05049669
 F      3   2   1     1.392590724827   104.26056411   302.40318432
 F      3   2   1     1.387796650759   104.62461146    57.09057384
 F      4   3   2     1.391796082900   104.41150815   301.62102969
 F      4   3   2     1.387217886564   104.61085950    56.10168703
 F      5   4   3     1.379239100152   105.97706324   298.66430005
 F      5   4   3     1.380057700364   105.86785990    53.62893549
 F      6   5   4     1.368379809631   106.89088060   292.31406985
 F      6   5   4     1.371094735566   107.54454268    47.49853854
 F      7   6   5     1.370270895163   107.58829000   292.42158559
 F      7   6   5     1.375169679468   107.58396670    46.50527211
 O      8   7   6     1.250654613898   115.87394242   271.62479392
 O      8   7   6     1.250130590129   115.56916939    89.63075936
 O     25   8   7     2.753691302608   136.94011799    13.47534249
 H     26  25   8     0.965827944322    98.30887534   187.35545044
 H     26  25   8     0.986166708513     5.89511224   358.49407350
 H     24   8   7     1.762159654336   127.69857763    12.02357901
 O     29  24   8     0.987524255831   174.15383119   174.09277984
 H     30  29  24     0.965624494624   103.99226164   186.65854088

---------------------------
INTERNAL COORDINATES (A.U.)
---------------------------
 C      0   0   0     0.000000000000     0.00000000     0.00000000
 C      1   0   0     2.924895144468     0.00000000     0.00000000
 C      2   1   0     2.953780210668   123.28048954     0.00000000
 C      3   2   1     2.988109230509   128.38836332   180.28894235
 C      4   3   2     2.959284904803   127.68783512   179.21493596
 C      5   4   3     2.952116453469   123.95546512   175.71049247
 C      6   5   4     2.944171134612   120.43290830   169.56489380
 C      7   6   5     2.951570056271   114.11110619   169.37753969
 F      1   2   3     2.539125351691   110.91293482    61.62684851
 F      1   2   3     2.538918562737   110.87827231   301.05564305
 F      1   2   3     2.578858623163   113.17834826   181.31918424
 F      2   1   3     2.602645089009   104.97737883   122.48746007
 F      2   1   3     2.598439281100   105.10441067   237.05049669
 F      3   2   1     2.631615086562   104.26056411   302.40318432
 F      3   2   1     2.622555599507   104.62461146    57.09057384
 F      4   3   2     2.630113430946   104.41150815   301.62102969
 F      4   3   2     2.621461893684   104.61085950    56.10168703
 F      5   4   3     2.606384172484   105.97706324   298.66430005
 F      5   4   3     2.607931102697   105.86785990    53.62893549
 F      6   5   4     2.585863087390   106.89088060   292.31406985
 F      6   5   4     2.590993553881   107.54454268    47.49853854
 F      7   6   5     2.589436721141   107.58829000   292.42158559
 F      7   6   5     2.598694081867   107.58396670    46.50527211
 O      8   7   6     2.363394708393   115.87394242   271.62479392
 O      8   7   6     2.362404446982   115.56916939    89.63075936
 O     25   8   7     5.203722419291   136.94011799    13.47534249
 H     26  25   8     1.825150307256    98.30887534   187.35545044
 H     26  25   8     1.863585001480     5.89511224   358.49407350
 H     24   8   7     3.329999150941   127.69857763    12.02357901
 O     29  24   8     1.866150394124   174.15383119   174.09277984
 H     30  29  24     1.824765843045   103.99226164   186.65854088

---------------------
BASIS SET INFORMATION
---------------------
There are 4 groups of distinct atoms

 Group   1 Type C   : 11s6p2d1f contracted to 5s3p2d1f pattern {62111/411/11/1}
 Group   2 Type F   : 11s6p2d1f contracted to 5s3p2d1f pattern {62111/411/11/1}
 Group   3 Type O   : 11s6p2d1f contracted to 5s3p2d1f pattern {62111/411/11/1}
 Group   4 Type H   : 5s1p contracted to 3s1p pattern {311/1}

Atom   0C    basis set group =>   1
Atom   1C    basis set group =>   1
Atom   2C    basis set group =>   1
Atom   3C    basis set group =>   1
Atom   4C    basis set group =>   1
Atom   5C    basis set group =>   1
Atom   6C    basis set group =>   1
Atom   7C    basis set group =>   1
Atom   8F    basis set group =>   2
Atom   9F    basis set group =>   2
Atom  10F    basis set group =>   2
Atom  11F    basis set group =>   2
Atom  12F    basis set group =>   2
Atom  13F    basis set group =>   2
Atom  14F    basis set group =>   2
Atom  15F    basis set group =>   2
Atom  16F    basis set group =>   2
Atom  17F    basis set group =>   2
Atom  18F    basis set group =>   2
Atom  19F    basis set group =>   2
Atom  20F    basis set group =>   2
Atom  21F    basis set group =>   2
Atom  22F    basis set group =>   2
Atom  23O    basis set group =>   3
Atom  24O    basis set group =>   3
Atom  25O    basis set group =>   3
Atom  26H    basis set group =>   4
Atom  27H    basis set group =>   4
Atom  28H    basis set group =>   4
Atom  29O    basis set group =>   3
Atom  30H    basis set group =>   4
---------------------------------
AUXILIARY/J BASIS SET INFORMATION
---------------------------------
There are 4 groups of distinct atoms

 Group   1 Type C   : 12s5p4d2f1g contracted to 6s4p3d1f1g pattern {711111/2111/211/2/1}
 Group   2 Type F   : 12s5p4d2f1g contracted to 6s4p3d1f1g pattern {711111/2111/211/2/1}
 Group   3 Type O   : 12s5p4d2f1g contracted to 6s4p3d1f1g pattern {711111/2111/211/2/1}
 Group   4 Type H   : 5s2p1d contracted to 3s1p1d pattern {311/2/1}

Atom   0C    basis set group =>   1
Atom   1C    basis set group =>   1
Atom   2C    basis set group =>   1
Atom   3C    basis set group =>   1
Atom   4C    basis set group =>   1
Atom   5C    basis set group =>   1
Atom   6C    basis set group =>   1
Atom   7C    basis set group =>   1
Atom   8F    basis set group =>   2
Atom   9F    basis set group =>   2
Atom  10F    basis set group =>   2
Atom  11F    basis set group =>   2
Atom  12F    basis set group =>   2
Atom  13F    basis set group =>   2
Atom  14F    basis set group =>   2
Atom  15F    basis set group =>   2
Atom  16F    basis set group =>   2
Atom  17F    basis set group =>   2
Atom  18F    basis set group =>   2
Atom  19F    basis set group =>   2
Atom  20F    basis set group =>   2
Atom  21F    basis set group =>   2
Atom  22F    basis set group =>   2
Atom  23O    basis set group =>   3
Atom  24O    basis set group =>   3
Atom  25O    basis set group =>   3
Atom  26H    basis set group =>   4
Atom  27H    basis set group =>   4
Atom  28H    basis set group =>   4
Atom  29O    basis set group =>   3
Atom  30H    basis set group =>   4


           ************************************************************
           *        Program running with 20 parallel MPI-processes    *
           *              working on a common directory               *
           ************************************************************
------------------------------------------------------------------------------
                             ORCA STARTUP CALCULATIONS
                           -- RI-GTO INTEGRALS CHOSEN --
------------------------------------------------------------------------------
------------------------------------------------------------------------------
                   ___                                                        
                  /   \      - P O W E R E D   B Y -                         
                 /     \                                                     
                 |  |  |   _    _      __       _____    __    __             
                 |  |  |  | |  | |    /  \     |  _  \  |  |  /  |          
                  \  \/   | |  | |   /    \    | | | |  |  | /  /          
                 / \  \   | |__| |  /  /\  \   | |_| |  |  |/  /          
                |  |  |   |  __  | /  /__\  \  |    /   |      \           
                |  |  |   | |  | | |   __   |  |    \   |  |\   \          
                \     /   | |  | | |  |  |  |  | |\  \  |  | \   \       
                 \___/    |_|  |_| |__|  |__|  |_| \__\ |__|  \__/        
                                                                              
                      - O R C A' S   B I G   F R I E N D -                    
                                      &                                       
                       - I N T E G R A L  F E E D E R -                       
                                                                              
 v1 FN, 2020, v2 2021, v3 2022-2024                                           
------------------------------------------------------------------------------


----------------------
SHARK INTEGRAL PACKAGE
----------------------

Number of atoms                             ...     31
Number of basis functions                   ...    861
Number of shells                            ...    313
Maximum angular momentum                    ...      3
Integral batch strategy                     ... SHARK/LIBINT Hybrid
RI-J (if used) integral strategy            ... SPLIT-RIJ (Revised 2003 algorithm where possible)
Printlevel                                  ...      1
Contraction scheme used                     ... SEGMENTED contraction
Prescreening option                         ... SCHWARTZ
   Thresh                                   ... 2.500e-11
   Tcut                                     ... 2.500e-12
   Tpresel                                  ... 2.500e-12 
Coulomb Range Separation                    ... NOT USED
Exchange Range Separation                   ... NOT USED
Multipole approximations                    ... NOT USED
Finite Nucleus Model                        ... NOT USED
CABS basis                                  ... NOT available
Auxiliary Coulomb fitting basis             ... AVAILABLE
   # of basis functions in Aux-J            ...   1367
   # of shells in Aux-J                     ...    425
   Maximum angular momentum in Aux-J        ...      4
Auxiliary J/K fitting basis                 ... NOT available
Auxiliary Correlation fitting basis         ... NOT available
Auxiliary 'external' fitting basis          ... NOT available

Checking pre-screening integrals            ... done (  0.0 sec) Dimension = 313
Check shell pair data                       ... done (  0.0 sec)
Shell pair information
Shell pair cut-off parameter TPreSel        ...   2.5e-12
Total number of shell pairs                 ...     49141
Shell pairs after pre-screening             ...     27500
Total number of primitive shell pairs       ...    159936
Primitive shell pairs kept                  ...     56937
          la=0 lb=0:   5554 shell pairs
          la=1 lb=0:   7711 shell pairs
          la=1 lb=1:   2576 shell pairs
          la=2 lb=0:   4013 shell pairs
          la=2 lb=1:   2819 shell pairs
          la=2 lb=2:    754 shell pairs
          la=3 lb=0:   1830 shell pairs
          la=3 lb=1:   1367 shell pairs
          la=3 lb=2:    709 shell pairs
          la=3 lb=3:    167 shell pairs

Calculating one electron integrals          ... done (  0.1 sec)
Calculating RI/J V-Matrix + Cholesky decomp.... done (  0.1 sec)
Calculating Nuclear repulsion               ... done (  0.0 sec) ENN=   3209.734340966882 Eh

Diagonalization of the overlap matrix:
Smallest eigenvalue                        ... 9.595e-05
Time for diagonalization                   ...    0.211 sec
Threshold for overlap eigenvalues          ... 1.000e-07
Number of eigenvalues below threshold      ... 0
Time for construction of square roots      ...    0.064 sec
Total time needed                          ...    0.285 sec

-------------------
DFT GRID GENERATION
-------------------

General Integration Accuracy     IntAcc      ... 4.388
Radial Grid Type                 RadialGrid  ... OptM3 with GC (2021)
Angular Grid (max. ang.)         AngularGrid ... 4 (Lebedev-302)
Angular grid pruning method      GridPruning ... 4 (adaptive)
Weight generation scheme         WeightScheme... mBecke (2022)
Basis function cutoff            BFCut       ... 1.0000e-11
Integration weight cutoff        WCut        ... 1.0000e-14
Partially contracted basis set               ... off
Rotationally invariant grid construction     ... off
Angular grids for H and He will be reduced by one unit

Total number of grid points                  ...   176631
Total number of batches                      ...     2776
Average number of points per batch           ...       63
Average number of grid points per atom       ...     5698

--------------------
COSX GRID GENERATION
--------------------

GRIDX 1
-------
General Integration Accuracy     IntAcc      ... 3.816
Radial Grid Type                 RadialGrid  ... OptM3 with GC (2021)
Angular Grid (max. ang.)         AngularGrid ... 1 (Lebedev-50)
Angular grid pruning method      GridPruning ... 4 (adaptive)
Weight generation scheme         WeightScheme... mBecke (2022)
Basis function cutoff            BFCut       ... 1.0000e-11
Integration weight cutoff        WCut        ... 1.0000e-14
Partially contracted basis set               ... on
Rotationally invariant grid construction     ... off
Angular grids for H and He will be reduced by one unit

Total number of grid points                  ...    22252
Total number of batches                      ...      187
Average number of points per batch           ...      118
Average number of grid points per atom       ...      718
UseSFitting                                  ... on

GRIDX 2
-------
General Integration Accuracy     IntAcc      ... 4.020
Radial Grid Type                 RadialGrid  ... OptM3 with GC (2021)
Angular Grid (max. ang.)         AngularGrid ... 2 (Lebedev-110)
Angular grid pruning method      GridPruning ... 4 (adaptive)
Weight generation scheme         WeightScheme... mBecke (2022)
Basis function cutoff            BFCut       ... 1.0000e-11
Integration weight cutoff        WCut        ... 1.0000e-14
Partially contracted basis set               ... on
Rotationally invariant grid construction     ... off
Angular grids for H and He will be reduced by one unit

Total number of grid points                  ...    51624
Total number of batches                      ...      416
Average number of points per batch           ...      124
Average number of grid points per atom       ...     1665
UseSFitting                                  ... on

GRIDX 3
-------
General Integration Accuracy     IntAcc      ... 4.338
Radial Grid Type                 RadialGrid  ... OptM3 with GC (2021)
Angular Grid (max. ang.)         AngularGrid ... 3 (Lebedev-194)
Angular grid pruning method      GridPruning ... 4 (adaptive)
Weight generation scheme         WeightScheme... mBecke (2022)
Basis function cutoff            BFCut       ... 1.0000e-11
Integration weight cutoff        WCut        ... 1.0000e-14
Partially contracted basis set               ... on
Rotationally invariant grid construction     ... off
Angular grids for H and He will be reduced by one unit

Total number of grid points                  ...   114156
Total number of batches                      ...      904
Average number of points per batch           ...      126
Average number of grid points per atom       ...     3682
UseSFitting                                  ... on
Initializing property integral containers    ... done (  0.0 sec)

SHARK setup successfully completed in   3.9 seconds

Maximum memory used throughout the entire STARTUP-calculation: 68.2 MB


           ************************************************************
           *        Program running with 20 parallel MPI-processes    *
           *              working on a common directory               *
           ************************************************************
-------------------------------------------------------------------------------
                                 ORCA GUESS
                   Start orbitals & Density for SCF / CASSCF
-------------------------------------------------------------------------------

------------
SCF SETTINGS
------------
Hamiltonian:
 Density Functional     Method          .... DFT(GTOs)
 Exchange Functional    Exchange        .... TPSS
 Correlation Functional Correlation     .... TPSS
 LDA part of GGA corr.  LDAOpt          .... PW91-LDA
 Gradients option       PostSCFGGA      .... off
 Hybrid DFT is turned on
   Fraction HF Exchange ScalHFX         ....  0.100000
   Scaling of DF-GGA-X  ScalDFX         ....  0.900000
   Scaling of DF-GGA-C  ScalDFC         ....  1.000000
   Scaling of DF-LDA-C  ScalLDAC        ....  1.000000
   Perturbative correction              ....  0.000000
   NL short-range parameter             ....  5.200000
 RI-approximation to the Coulomb term is turned on
   Number of AuxJ basis functions       .... 1367
   RIJ-COSX (HFX calculated with COS-X)).... on


General Settings:
 Integral files         IntName         .... rf_mecn_2H2O_opt_TP_sw_004
 Hartree-Fock type      HFTyp           .... UHF
 Total Charge           Charge          ....   -2
 Multiplicity           Mult            ....    2
 Number of Electrons    NEL             ....  221
 Basis Dimension        Dim             ....  861
 Nuclear Repulsion      ENuc            ....   3209.7343409669 Eh

Convergence Acceleration:
 AO-DIIS                CNVDIIS         .... on
   Start iteration      DIISMaxIt       ....     0
   Startup error        DIISStart       ....  0.200000
   # of expansion vecs  DIISMaxEq       ....     5
   Bias factor          DIISBfac        ....   1.050
   Max. coefficient     DIISMaxC        ....  10.000
 MO-DIIS                CNVKDIIS        .... off
 Trust-Rad. Augm. Hess. CNVTRAH         .... auto
   Auto Start mean grad. ratio tolernc. ....  1.125000
   Auto Start start iteration           ....    50
   Auto Start num. interpolation iter.  ....    10
   Max. Number of Micro iterations      ....    24
   Max. Number of Macro iterations      .... Maxiter - #DIIS iter
   Number of Davidson start vectors     ....     2
   Converg. threshold    (grad. norm)   ....   1.000e-05
   Grad. Scal. Fac. for Micro threshold ....   0.100
   Minimum threshold for Micro iter.    ....   1.000e-02
   NR start threshold (gradient norm)   ....   1.000e-04
   Initial trust radius                 ....   0.400
   Minimum AH scaling param. (alpha)    ....   1.000
   Maximum AH scaling param. (alpha)    .... 1000.000
   Quad. conv. algorithm                .... NR
   White noise on init. David. guess    .... on
   Maximum white noise                  ....   0.010
   Pseudo random numbers                .... off
   Inactive MOs                         .... canonical
   Orbital update algorithm             .... Taylor
   Preconditioner                       .... Diag
   Full preconditioner red. dimension   ....   250
 SOSCF                  CNVSOSCF        .... on
   Start iteration      SOSCFMaxIt      ....   150
   Startup grad/error   SOSCFStart      ....  0.001000
   Hessian update       SOSCFHessUp     .... L-BFGS
 Level Shifting         CNVShift        .... on
   Level shift para.    LevelShift      ....    0.2500
   Turn off err/grad.   ShiftErr        ....    0.0000
 Zerner damping         CNVZerner       .... off
 Static damping         CNVDamp         .... on
   Fraction old density DampFac         ....    0.8500
   Max. Damping (<1)    DampMax         ....    0.9800
   Min. Damping (>=0)   DampMin         ....    0.0000
   Turn off err/grad.   DampErr         ....    0.0300

SCF Procedure:
 Maximum # iterations   MaxIter         ....  1500
 SCF integral mode      SCFMode         .... Direct
   Integral package                     .... SHARK and LIBINT hybrid scheme
 Reset frequency        DirectResetFreq ....    20
 Integral Threshold     Thresh          ....  2.500e-11 Eh
 Primitive CutOff       TCut            ....  2.500e-12 Eh

Convergence Tolerance:
 Convergence Check Mode ConvCheckMode   .... Total+1el-Energy
 Convergence forced     ConvForced      .... 0
 Energy Change          TolE            ....  1.000e-08 Eh
 1-El. energy change                    ....  1.000e-05 Eh
 Orbital Gradient       TolG            ....  1.000e-05
 Orbital Rotation angle TolX            ....  1.000e-05
 DIIS Error             TolErr          ....  5.000e-07

------------------------------
INITIAL GUESS: MODEL POTENTIAL
------------------------------
Loading Hartree-Fock densities                     ... done
Calculating cut-offs                               ... done
Initializing the effective Hamiltonian             ... done
Setting up the integral package (SHARK)            ... done
Starting the Coulomb interaction                   ... done (   0.3 sec)
Making the grid                                    ... done (   0.4 sec)
Mapping shells                                     ... done
Starting the XC term evaluation                    ... done (   0.1 sec)
  promolecular density results
     # of electrons  =    218.991958308
     EX              =   -224.568078468
     EC              =     -7.626397493
     EX+EC           =   -232.194475961
Transforming the Hamiltonian                       ... done (   0.1 sec)
Diagonalizing the Hamiltonian                      ... done (   0.2 sec)
Back transforming the eigenvectors                 ... done (   0.0 sec)
Now organizing SCF variables                       ... done
                      ------------------
                      INITIAL GUESS DONE (   1.3 sec)
                      ------------------
             **** ENERGY FILE WAS UPDATED (rf_mecn_2H2O_opt_TP_sw_004.en.tmp) ****
Finished Guess after   2.1 sec
Maximum memory used throughout the entire GUESS-calculation: 57.2 MB


           ************************************************************
           *        Program running with 20 parallel MPI-processes    *
           *              working on a common directory               *
           ************************************************************

-------------------------------------------------------------------------------------------
                                      ORCA LEAN-SCF
                              memory conserving SCF solver
-------------------------------------------------------------------------------------------

--------------------
CPCM SOLVATION MODEL
--------------------
CPCM parameters:
  Epsilon                                         ...      35.6880
  Refrac                                          ...       1.3442
  Rsolv                                           ...       1.3000
  Surface type                                    ... GAUSSIAN VDW
  Discretization scheme                           ... Constant charge density
    Threshold for H atoms                         ...       5.0000 (charges/Ang^2)
    Threshold for non-H atoms                     ...       5.0000 (charges/Ang^2)
  Epsilon function type                           ...         CPCM
Solvent:                                          ... ACETONITRILE
SMD-CDS solvent descriptors:
  Soln                                            ...       1.3442
  Soln25                                          ...       1.3416
  Sola                                            ...       0.0700
  Solb                                            ...       0.3200
  Solg                                            ...      41.2500
  Solc                                            ...       0.0000
  Solh                                            ...       0.0000
Radii:
  Scheme                                          ... Element-dependent radii
  Radius for C  used is    3.4960 Bohr (=   1.8500 Ang.)
  Radius for F  used is    3.2692 Bohr (=   1.7300 Ang.)
  Radius for O  used is    4.0969 Bohr (=   2.1680 Ang.)
  Radius for H  used is    2.2677 Bohr (=   1.2000 Ang.)
Calculating surface                               ...        done! (  0.0s)
Cavity surface points                             ...         2685
Cavity Volume                                     ...    2645.8729
Cavity Surface-area                               ...    1376.5342
Calculating surface distance matrix               ...        done! (  0.1s)
Performing Cholesky decomposition & store         ...        done! (  0.2s)
Overall time for CPCM initialization              ...                 0.2s

----------------------------------------D-I-I-S--------------------------------------------
Iteration    Energy (Eh)           Delta-E    RMSDP     MaxDP     DIISErr   Damp  Time(sec)
-------------------------------------------------------------------------------------------
               ***  Starting incremental Fock matrix formation  ***
    1    -2106.0586075139804052     0.00e+00  4.99e-04  9.40e-02  1.77e-01  0.850   8.5
Warning: op=0 Small HOMO/LUMO gap (  -0.013) - skipping pre-diagonalization
         Will do a full diagonalization
    2    -2106.3112637755234573    -2.53e-01  6.79e-04  1.58e-01  1.19e-01  0.850   5.9
                               ***Turning on AO-DIIS***
    3    -2106.4479518132379781    -1.37e-01  4.56e-04  1.08e-01  7.19e-02  0.850   5.2
    4    -2106.5279879322520173    -8.00e-02  3.37e-04  8.41e-02  5.22e-02  0.850   5.0
    5    -2106.5844490997310459    -5.65e-02  2.54e-04  5.78e-02  4.08e-02  0.850   5.0
    6    -2106.6286461636459535    -4.42e-02  1.97e-04  3.89e-02  3.34e-02  0.850   4.7
    7    -2106.6648419274447406    -3.62e-02  1.57e-04  2.67e-02  2.81e-02  0.850   4.7
    8    -2106.6950384406122794    -3.02e-02  8.56e-04  1.32e-01  2.38e-02  0.000   4.7
    9    -2106.8580652116984311    -1.63e-01  4.16e-05  9.01e-03  3.05e-03  0.000   5.1
   10    -2106.8583609377687935    -2.96e-04  3.98e-05  8.23e-03  2.02e-03  0.000   4.5
                              *** Initializing SOSCF ***
---------------------------------------S-O-S-C-F--------------------------------------
Iteration    Energy (Eh)           Delta-E    RMSDP     MaxDP     MaxGrad    Time(sec)
--------------------------------------------------------------------------------------
   11    -2106.8584657268106639    -1.05e-04  2.54e-05  4.69e-03  9.70e-04     4.9
               *** Restarting incremental Fock matrix formation ***
   12    -2106.8584998067649394    -3.41e-05  3.41e-05  7.15e-03  8.68e-04     8.0
   13    -2106.8585199635685967    -2.02e-05  2.37e-05  5.37e-03  2.63e-04     5.9
   14    -2106.8585256535038752    -5.69e-06  7.01e-06  1.17e-03  2.35e-04     5.7
   15    -2106.8585273771473112    -1.72e-06  4.73e-06  7.57e-04  1.93e-04     5.2
   16    -2106.8585275063546760    -1.29e-07  2.53e-06  3.69e-04  1.57e-04     5.0
   17    -2106.8585280128295381    -5.06e-07  1.38e-06  2.66e-04  3.21e-05     4.8
   18    -2106.8585280475604122    -3.47e-08  8.84e-07  1.45e-04  3.00e-05     4.5
   19    -2106.8585280977599723    -5.02e-08  2.95e-07  5.61e-05  4.99e-06     4.2
   20    -2106.8585280792690355     1.85e-08  1.72e-07  2.86e-05  6.70e-06     3.8
   21    -2106.8585280931642956    -1.39e-08  1.89e-07  5.71e-05  1.06e-06     3.7
                  *** Gradient check signals convergence ***

               *****************************************************
               *                     SUCCESS                       *
               *           SCF CONVERGED AFTER  21 CYCLES          *
               *****************************************************

Recomputing exchange energy using gridx3       ... done (    9.677 sec)
Old exchange energy                            :    -22.711348511 Eh
New exchange energy                            :    -22.711384047 Eh
Exchange energy change after final integration :     -0.000035536 Eh
Total energy after final integration           :  -2106.858563629 Eh

SMD CDS free energy correction energy :                 2.90047     Kcal/mol
Total Energy after SMD CDS correction =             -2106.853941436 Eh
             **** ENERGY FILE WAS UPDATED (rf_mecn_2H2O_opt_TP_sw_004.en.tmp) ****

----------------
TOTAL SCF ENERGY
----------------

Total Energy       :      -2106.85394143605254 Eh          -57330.41037 eV

Components:
Nuclear Repulsion  :       3209.73434096688152 Eh           87341.31176 eV
Electronic Energy  :      -5316.36956578404352 Eh         -144665.77055 eV
One Electron Energy:      -9376.60161442406024 Eh         -255150.30152 eV
Two Electron Energy:       4060.23204864001718 Eh          110484.53097 eV
CPCM Dielectric    :         -0.22330327600291 Eh              -6.07639 eV
SMD CDS (Gcds)     :          0.00462219337262 Eh               0.12578 eV

Virial components:
Potential Energy   :      -4206.52472518177819 Eh         -114465.35708 eV
Kinetic Energy     :       2099.67078374572611 Eh           57134.94671 eV
Virial Ratio       :          2.00342108760380

DFT components:
N(Alpha)           :      111.000010215368 electrons
N(Beta)            :      110.000002312592 electrons
N(Total)           :      221.000012527960 electrons
E(X)               :     -206.438952853825 Eh       
E(C)               :       -7.738023094093 Eh       
E(XC)              :     -214.176975947918 Eh       

CPCM Solvation Model Properties:
Surface-charge          :          1.98936587077650
Corrected charge        :          2.00000000000000
Outlying charge corr.   :          0.00000560796224 Eh               0.00015 eV
Free-energy (cav+disp)  :          0.00462219337262 Eh               0.12578 eV

---------------
SCF CONVERGENCE
---------------

  Last Energy change         ...    1.3895e-08  Tolerance :   1.0000e-08
  Last MAX-Density change    ...    5.7120e-05  Tolerance :   1.0000e-07
  Last RMS-Density change    ...    1.8869e-07  Tolerance :   5.0000e-09
  Last DIIS Error            ...    9.6967e-04  Tolerance :   5.0000e-07
  Last Orbital Gradient      ...    1.0586e-06  Tolerance :   1.0000e-05
  Last Orbital Rotation      ...    4.7503e-06  Tolerance :   1.0000e-05


----------------------
UHF SPIN CONTAMINATION
----------------------

Warning: in a DFT calculation there is little theoretical justification to 
         calculate <S**2> as in Hartree-Fock theory. We will do it anyways
         but you should keep in mind that the values have only limited relevance

Expectation value of <S**2>     :     0.754395
Ideal value S*(S+1) for S=0.5   :     0.750000
Deviation                       :     0.004395

----------------
ORBITAL ENERGIES
----------------
                 SPIN UP ORBITALS
  NO   OCC          E(Eh)            E(eV) 
   0   1.0000     -24.637292      -670.4148 
   1   1.0000     -24.637281      -670.4145 
   2   1.0000     -24.629629      -670.2063 
   3   1.0000     -24.619850      -669.9402 
   4   1.0000     -24.619113      -669.9201 
   5   1.0000     -24.615563      -669.8235 
   6   1.0000     -24.614233      -669.7873 
   7   1.0000     -24.609673      -669.6633 
   8   1.0000     -24.608559      -669.6329 
   9   1.0000     -24.605540      -669.5508 
  10   1.0000     -24.604755      -669.5294 
  11   1.0000     -24.604610      -669.5255 
  12   1.0000     -24.604173      -669.5136 
  13   1.0000     -24.602189      -669.4596 
  14   1.0000     -24.601536      -669.4418 
  15   1.0000     -19.009521      -517.2754 
  16   1.0000     -19.007560      -517.2220 
  17   1.0000     -18.998279      -516.9694 
  18   1.0000     -18.998253      -516.9687 
  19   1.0000     -10.363113      -281.9947 
  20   1.0000     -10.294995      -280.1411 
  21   1.0000     -10.288174      -279.9555 
  22   1.0000     -10.282959      -279.8135 
  23   1.0000     -10.278625      -279.6956 
  24   1.0000     -10.274862      -279.5932 
  25   1.0000     -10.271630      -279.5053 
  26   1.0000     -10.196724      -277.4670 
  27   1.0000      -1.290309       -35.1111 
  28   1.0000      -1.244316       -33.8596 
  29   1.0000      -1.237926       -33.6857 
  30   1.0000      -1.225696       -33.3529 
  31   1.0000      -1.219510       -33.1846 
  32   1.0000      -1.215475       -33.0748 
  33   1.0000      -1.208784       -32.8927 
  34   1.0000      -1.205971       -32.8161 
  35   1.0000      -1.197485       -32.5852 
  36   1.0000      -1.184547       -32.2332 
  37   1.0000      -1.183226       -32.1972 
  38   1.0000      -1.172951       -31.9176 
  39   1.0000      -1.166996       -31.7556 
  40   1.0000      -1.165503       -31.7150 
  41   1.0000      -1.160117       -31.5684 
  42   1.0000      -1.006033       -27.3756 
  43   1.0000      -0.944840       -25.7104 
  44   1.0000      -0.941897       -25.6303 
  45   1.0000      -0.920418       -25.0458 
  46   1.0000      -0.769528       -20.9399 
  47   1.0000      -0.762612       -20.7517 
  48   1.0000      -0.734236       -19.9796 
  49   1.0000      -0.703209       -19.1353 
  50   1.0000      -0.665157       -18.0998 
  51   1.0000      -0.633044       -17.2260 
  52   1.0000      -0.607644       -16.5348 
  53   1.0000      -0.579324       -15.7642 
  54   1.0000      -0.577896       -15.7254 
  55   1.0000      -0.576585       -15.6897 
  56   1.0000      -0.565947       -15.4002 
  57   1.0000      -0.557545       -15.1716 
  58   1.0000      -0.553674       -15.0662 
  59   1.0000      -0.543948       -14.8016 
  60   1.0000      -0.541706       -14.7406 
  61   1.0000      -0.531097       -14.4519 
  62   1.0000      -0.530865       -14.4456 
  63   1.0000      -0.526777       -14.3343 
  64   1.0000      -0.516466       -14.0537 
  65   1.0000      -0.510881       -13.9018 
  66   1.0000      -0.506472       -13.7818 
  67   1.0000      -0.496879       -13.5208 
  68   1.0000      -0.483200       -13.1485 
  69   1.0000      -0.468239       -12.7414 
  70   1.0000      -0.449842       -12.2408 
  71   1.0000      -0.449573       -12.2335 
  72   1.0000      -0.444370       -12.0919 
  73   1.0000      -0.434620       -11.8266 
  74   1.0000      -0.429671       -11.6920 
  75   1.0000      -0.428516       -11.6605 
  76   1.0000      -0.425318       -11.5735 
  77   1.0000      -0.422414       -11.4945 
  78   1.0000      -0.418939       -11.3999 
  79   1.0000      -0.418390       -11.3850 
  80   1.0000      -0.416018       -11.3204 
  81   1.0000      -0.413409       -11.2494 
  82   1.0000      -0.410030       -11.1575 
  83   1.0000      -0.404166       -10.9979 
  84   1.0000      -0.402893       -10.9633 
  85   1.0000      -0.397049       -10.8042 
  86   1.0000      -0.393731       -10.7140 
  87   1.0000      -0.392038       -10.6679 
  88   1.0000      -0.390698       -10.6314 
  89   1.0000      -0.389566       -10.6006 
  90   1.0000      -0.384100       -10.4519 
  91   1.0000      -0.380845       -10.3633 
  92   1.0000      -0.378045       -10.2871 
  93   1.0000      -0.375758       -10.2249 
  94   1.0000      -0.375128       -10.2077 
  95   1.0000      -0.371264       -10.1026 
  96   1.0000      -0.369066       -10.0428 
  97   1.0000      -0.368105       -10.0167 
  98   1.0000      -0.365346        -9.9416 
  99   1.0000      -0.356019        -9.6878 
 100   1.0000      -0.346576        -9.4308 
 101   1.0000      -0.330915        -9.0047 
 102   1.0000      -0.328997        -8.9525 
 103   1.0000      -0.322350        -8.7716 
 104   1.0000      -0.293030        -7.9737 
 105   1.0000      -0.257553        -7.0084 
 106   1.0000      -0.254600        -6.9280 
 107   1.0000      -0.240200        -6.5362 
 108   1.0000      -0.229441        -6.2434 
 109   1.0000      -0.225506        -6.1363 
 110   1.0000      -0.070698        -1.9238 
 111   0.0000       0.004155         0.1131 
 112   0.0000       0.029385         0.7996 
 113   0.0000       0.045348         1.2340 
 114   0.0000       0.055838         1.5194 
 115   0.0000       0.064864         1.7650 
 116   0.0000       0.076594         2.0842 
 117   0.0000       0.085615         2.3297 
 118   0.0000       0.108852         2.9620 
 119   0.0000       0.116080         3.1587 
 120   0.0000       0.125211         3.4072 
 121   0.0000       0.127324         3.4647 

                 SPIN DOWN ORBITALS
  NO   OCC          E(Eh)            E(eV) 
   0   1.0000     -24.637277      -670.4144 
   1   1.0000     -24.637264      -670.4140 
   2   1.0000     -24.628543      -670.1767 
   3   1.0000     -24.619564      -669.9324 
   4   1.0000     -24.618806      -669.9118 
   5   1.0000     -24.615483      -669.8214 
   6   1.0000     -24.614080      -669.7832 
   7   1.0000     -24.609392      -669.6556 
   8   1.0000     -24.608250      -669.6245 
   9   1.0000     -24.605055      -669.5376 
  10   1.0000     -24.604695      -669.5278 
  11   1.0000     -24.604493      -669.5223 
  12   1.0000     -24.603640      -669.4991 
  13   1.0000     -24.601726      -669.4470 
  14   1.0000     -24.601032      -669.4281 
  15   1.0000     -19.009522      -517.2754 
  16   1.0000     -19.007561      -517.2220 
  17   1.0000     -18.997963      -516.9609 
  18   1.0000     -18.997933      -516.9600 
  19   1.0000     -10.361629      -281.9543 
  20   1.0000     -10.292702      -280.0787 
  21   1.0000     -10.286774      -279.9174 
  22   1.0000     -10.280464      -279.7456 
  23   1.0000     -10.275064      -279.5987 
  24   1.0000     -10.271275      -279.4956 
  25   1.0000     -10.270963      -279.4871 
  26   1.0000     -10.196365      -277.4572 
  27   1.0000      -1.289451       -35.0878 
  28   1.0000      -1.243386       -33.8342 
  29   1.0000      -1.236712       -33.6526 
  30   1.0000      -1.224580       -33.3225 
  31   1.0000      -1.219145       -33.1746 
  32   1.0000      -1.214233       -33.0410 
  33   1.0000      -1.208651       -32.8891 
  34   1.0000      -1.204572       -32.7781 
  35   1.0000      -1.195858       -32.5410 
  36   1.0000      -1.183872       -32.2148 
  37   1.0000      -1.182667       -32.1820 
  38   1.0000      -1.172186       -31.8968 
  39   1.0000      -1.166127       -31.7319 
  40   1.0000      -1.165227       -31.7074 
  41   1.0000      -1.159119       -31.5412 
  42   1.0000      -1.005426       -27.3590 
  43   1.0000      -0.944806       -25.7095 
  44   1.0000      -0.941886       -25.6300 
  45   1.0000      -0.919881       -25.0312 
  46   1.0000      -0.761576       -20.7235 
  47   1.0000      -0.756685       -20.5904 
  48   1.0000      -0.726692       -19.7743 
  49   1.0000      -0.697445       -18.9784 
  50   1.0000      -0.661540       -18.0014 
  51   1.0000      -0.630952       -17.1691 
  52   1.0000      -0.605533       -16.4774 
  53   1.0000      -0.578345       -15.7376 
  54   1.0000      -0.575165       -15.6510 
  55   1.0000      -0.572972       -15.5914 
  56   1.0000      -0.563765       -15.3408 
  57   1.0000      -0.553902       -15.0724 
  58   1.0000      -0.551939       -15.0190 
  59   1.0000      -0.542116       -14.7517 
  60   1.0000      -0.537970       -14.6389 
  61   1.0000      -0.529594       -14.4110 
  62   1.0000      -0.528078       -14.3697 
  63   1.0000      -0.524235       -14.2651 
  64   1.0000      -0.515273       -14.0213 
  65   1.0000      -0.507015       -13.7966 
  66   1.0000      -0.503592       -13.7034 
  67   1.0000      -0.495821       -13.4920 
  68   1.0000      -0.483049       -13.1444 
  69   1.0000      -0.468217       -12.7408 
  70   1.0000      -0.449226       -12.2241 
  71   1.0000      -0.448032       -12.1916 
  72   1.0000      -0.443745       -12.0749 
  73   1.0000      -0.434175       -11.8145 
  74   1.0000      -0.428895       -11.6708 
  75   1.0000      -0.427962       -11.6454 
  76   1.0000      -0.424853       -11.5608 
  77   1.0000      -0.421569       -11.4715 
  78   1.0000      -0.418294       -11.3824 
  79   1.0000      -0.417549       -11.3621 
  80   1.0000      -0.415113       -11.2958 
  81   1.0000      -0.412380       -11.2214 
  82   1.0000      -0.409403       -11.1404 
  83   1.0000      -0.403264       -10.9734 
  84   1.0000      -0.401914       -10.9366 
  85   1.0000      -0.396293       -10.7837 
  86   1.0000      -0.393205       -10.6997 
  87   1.0000      -0.391062       -10.6413 
  88   1.0000      -0.389889       -10.6094 
  89   1.0000      -0.388956       -10.5840 
  90   1.0000      -0.383769       -10.4429 
  91   1.0000      -0.379591       -10.3292 
  92   1.0000      -0.377708       -10.2780 
  93   1.0000      -0.373740       -10.1700 
  94   1.0000      -0.371752       -10.1159 
  95   1.0000      -0.370598       -10.0845 
  96   1.0000      -0.366898        -9.9838 
  97   1.0000      -0.366368        -9.9694 
  98   1.0000      -0.362211        -9.8563 
  99   1.0000      -0.350685        -9.5426 
 100   1.0000      -0.342481        -9.3194 
 101   1.0000      -0.330545        -8.9946 
 102   1.0000      -0.328401        -8.9362 
 103   1.0000      -0.320020        -8.7082 
 104   1.0000      -0.292159        -7.9501 
 105   1.0000      -0.257392        -7.0040 
 106   1.0000      -0.254563        -6.9270 
 107   1.0000      -0.238773        -6.4973 
 108   1.0000      -0.228637        -6.2215 
 109   1.0000      -0.225154        -6.1268 
 110   0.0000      -0.018567        -0.5052 
 111   0.0000       0.016807         0.4573 
 112   0.0000       0.035979         0.9790 
 113   0.0000       0.051140         1.3916 
 114   0.0000       0.064531         1.7560 
 115   0.0000       0.069748         1.8979 
 116   0.0000       0.078292         2.1304 
 117   0.0000       0.091601         2.4926 
 118   0.0000       0.113437         3.0868 
 119   0.0000       0.122003         3.3199 
 120   0.0000       0.126086         3.4310 
*Only the first 10 virtual orbitals were printed.

                    ********************************
                    * MULLIKEN POPULATION ANALYSIS *
                    ********************************

--------------------------------------------
MULLIKEN ATOMIC CHARGES AND SPIN POPULATIONS
--------------------------------------------
   0 C :    0.381602    0.070432
   1 C :    0.261274    0.127196
   2 C :    0.203679    0.236393
   3 C :    0.223320    0.246296
   4 C :    0.241756    0.158679
   5 C :    0.246892    0.079437
   6 C :    0.280803    0.035219
   7 C :    0.279505    0.018483
   8 F :   -0.158305   -0.001259
   9 F :   -0.158059   -0.001278
  10 F :   -0.169387    0.012237
  11 F :   -0.194714    0.000394
  12 F :   -0.193136    0.000267
  13 F :   -0.219414    0.000829
  14 F :   -0.215379    0.000488
  15 F :   -0.220828    0.000113
  16 F :   -0.216382   -0.000341
  17 F :   -0.205349   -0.001151
  18 F :   -0.206455   -0.000712
  19 F :   -0.195438   -0.000989
  20 F :   -0.197908   -0.000081
  21 F :   -0.204023   -0.000145
  22 F :   -0.207757    0.000403
  23 O :   -0.515079    0.009481
  24 O :   -0.523673    0.009491
  25 O :   -0.739516   -0.000011
  26 H :    0.330028   -0.000002
  27 H :    0.350857   -0.000047
  28 H :    0.346775   -0.000149
  29 O :   -0.734263   -0.000051
  30 H :    0.328572    0.000380
Sum of atomic charges         :   -2.0000000
Sum of atomic spin populations:    1.0000000

-----------------------------------------------------
MULLIKEN REDUCED ORBITAL CHARGES AND SPIN POPULATIONS
-----------------------------------------------------
CHARGE
  0 C s       :     3.045205  s :     3.045205
      pz      :     0.655023  p :     2.190240
      px      :     0.680847
      py      :     0.854370
      dz2     :     0.070342  d :     0.344049
      dxz     :     0.082595
      dyz     :     0.062381
      dx2y2   :     0.062951
      dxy     :     0.065780
      f0      :     0.007416  f :     0.038904
      f+1     :     0.005004
      f-1     :     0.005535
      f+2     :     0.007768
      f-2     :     0.003898
      f+3     :     0.002867
      f-3     :     0.006416

  1 C s       :     3.103958  s :     3.103958
      pz      :     0.736835  p :     2.314685
      px      :     0.672466
      py      :     0.905385
      dz2     :     0.055517  d :     0.293400
      dxz     :     0.065913
      dyz     :     0.052018
      dx2y2   :     0.063197
      dxy     :     0.056755
      f0      :     0.005477  f :     0.026684
      f+1     :     0.004523
      f-1     :     0.003688
      f+2     :     0.004317
      f-2     :     0.001468
      f+3     :     0.002447
      f-3     :     0.004764

  2 C s       :     3.146341  s :     3.146341
      pz      :     0.729346  p :     2.321089
      px      :     0.686395
      py      :     0.905348
      dz2     :     0.052444  d :     0.303053
      dxz     :     0.061783
      dyz     :     0.061799
      dx2y2   :     0.073194
      dxy     :     0.053833
      f0      :     0.005205  f :     0.025837
      f+1     :     0.004119
      f-1     :     0.003274
      f+2     :     0.004552
      f-2     :     0.001639
      f+3     :     0.002218
      f-3     :     0.004830

  3 C s       :     3.130646  s :     3.130646
      pz      :     0.749869  p :     2.319495
      px      :     0.687739
      py      :     0.881887
      dz2     :     0.053500  d :     0.300774
      dxz     :     0.061433
      dyz     :     0.059873
      dx2y2   :     0.072719
      dxy     :     0.053249
      f0      :     0.005256  f :     0.025764
      f+1     :     0.004054
      f-1     :     0.003268
      f+2     :     0.004563
      f-2     :     0.001609
      f+3     :     0.002218
      f-3     :     0.004796

  4 C s       :     3.134014  s :     3.134014
      pz      :     0.741403  p :     2.299935
      px      :     0.661270
      py      :     0.897262
      dz2     :     0.053381  d :     0.297805
      dxz     :     0.064905
      dyz     :     0.057054
      dx2y2   :     0.067505
      dxy     :     0.054960
      f0      :     0.005602  f :     0.026490
      f+1     :     0.003970
      f-1     :     0.003473
      f+2     :     0.004714
      f-2     :     0.001569
      f+3     :     0.002197
      f-3     :     0.004964

  5 C s       :     3.142656  s :     3.142656
      pz      :     0.749793  p :     2.291459
      px      :     0.624336
      py      :     0.917330
      dz2     :     0.054802  d :     0.291763
      dxz     :     0.061994
      dyz     :     0.053229
      dx2y2   :     0.063909
      dxy     :     0.057828
      f0      :     0.005314  f :     0.027230
      f+1     :     0.003670
      f-1     :     0.003025
      f+2     :     0.005600
      f-2     :     0.002248
      f+3     :     0.002307
      f-3     :     0.005065

  6 C s       :     3.114785  s :     3.114785
      pz      :     0.741927  p :     2.309989
      px      :     0.587113
      py      :     0.980948
      dz2     :     0.050108  d :     0.267900
      dxz     :     0.056809
      dyz     :     0.048720
      dx2y2   :     0.055449
      dxy     :     0.056815
      f0      :     0.004412  f :     0.026523
      f+1     :     0.004475
      f-1     :     0.002331
      f+2     :     0.004793
      f-2     :     0.003328
      f+3     :     0.002815
      f-3     :     0.004370

  7 C s       :     3.040922  s :     3.040922
      pz      :     0.813188  p :     2.395520
      px      :     0.694386
      py      :     0.887946
      dz2     :     0.028476  d :     0.259666
      dxz     :     0.058117
      dyz     :     0.021688
      dx2y2   :     0.074833
      dxy     :     0.076553
      f0      :     0.001814  f :     0.024387
      f+1     :     0.002879
      f-1     :     0.001739
      f+2     :     0.003512
      f-2     :     0.003016
      f+3     :     0.006955
      f-3     :     0.004472

  8 F s       :     3.909429  s :     3.909429
      pz      :     1.531603  p :     5.232530
      px      :     1.866440
      py      :     1.834486
      dz2     :     0.005911  d :     0.015605
      dxz     :     0.003410
      dyz     :     0.004631
      dx2y2   :     0.000894
      dxy     :     0.000759
      f0      :     0.000201  f :     0.000740
      f+1     :     0.000150
      f-1     :     0.000223
      f+2     :     0.000073
      f-2     :     0.000078
      f+3     :     0.000007
      f-3     :     0.000009

  9 F s       :     3.909457  s :     3.909457
      pz      :     1.884366  p :     5.232249
      px      :     1.449725
      py      :     1.898158
      dz2     :     0.002218  d :     0.015613
      dxz     :     0.003308
      dyz     :     0.000201
      dx2y2   :     0.006409
      dxy     :     0.003477
      f0      :     0.000062  f :     0.000740
      f+1     :     0.000150
      f-1     :     0.000010
      f+2     :     0.000107
      f-2     :     0.000010
      f+3     :     0.000248
      f-3     :     0.000153

 10 F s       :     3.908505  s :     3.908505
      pz      :     1.700598  p :     5.245536
      px      :     1.842447
      py      :     1.702490
      dz2     :     0.002590  d :     0.014667
      dxz     :     0.002524
[...]
      pz      :     0.000574  p :     0.001111
      px      :     0.000954
      py      :    -0.000417
      dz2     :     0.000194  d :     0.000429
      dxz     :     0.000079
      dyz     :     0.000070
      dx2y2   :     0.000023
      dxy     :     0.000063
      f0      :     0.000001  f :     0.000017
      f+1     :     0.000006
      f-1     :    -0.000000
      f+2     :     0.000001
      f-2     :     0.000003
      f+3     :     0.000001
      f-3     :     0.000005

 21 F s       :     0.000367  s :     0.000367
      pz      :    -0.000919  p :     0.000803
      px      :     0.001611
      py      :     0.000111
      dz2     :     0.000129  d :     0.000317
      dxz     :     0.000077
      dyz     :     0.000004
      dx2y2   :     0.000013
      dxy     :     0.000094
      f0      :     0.000009  f :     0.000014
      f+1     :    -0.000000
      f-1     :    -0.000000
      f+2     :    -0.000000
      f-2     :     0.000004
      f+3     :     0.000001
      f-3     :     0.000001

 22 F s       :     0.000767  s :     0.000767
      pz      :    -0.000229  p :     0.000944
      px      :     0.001340
      py      :    -0.000167
      dz2     :     0.000130  d :     0.000246
      dxz     :     0.000015
      dyz     :     0.000025
      dx2y2   :     0.000016
      dxy     :     0.000060
      f0      :    -0.000000  f :     0.000011
      f+1     :     0.000006
      f-1     :     0.000001
      f+2     :     0.000001
      f-2     :    -0.000000
      f+3     :     0.000001
      f-3     :     0.000004

 23 O s       :     0.000227  s :     0.000227
      pz      :     0.009222  p :     0.009399
      px      :     0.001338
      py      :    -0.001162
      dz2     :     0.000330  d :     0.000692
      dxz     :     0.000091
      dyz     :     0.000247
      dx2y2   :     0.000026
      dxy     :    -0.000001
      f0      :    -0.000001  f :     0.000054
      f+1     :     0.000022
      f-1     :     0.000020
      f+2     :     0.000001
      f-2     :     0.000007
      f+3     :    -0.000001
      f-3     :     0.000006

 24 O s       :     0.000207  s :     0.000207
      pz      :     0.008601  p :     0.009411
      px      :     0.001784
      py      :    -0.000974
      dz2     :     0.000054  d :     0.000689
      dxz     :     0.000469
      dyz     :     0.000088
      dx2y2   :     0.000070
      dxy     :     0.000009
      f0      :     0.000017  f :     0.000052
      f+1     :     0.000006
      f-1     :     0.000001
      f+2     :     0.000014
      f-2     :     0.000013
      f+3     :    -0.000003
      f-3     :     0.000004

 25 O s       :    -0.000003  s :    -0.000003
      pz      :    -0.000011  p :    -0.000022
      px      :    -0.000004
      py      :    -0.000007
      dz2     :     0.000000  d :     0.000000
      dxz     :    -0.000000
      dyz     :     0.000000
      dx2y2   :    -0.000000
      dxy     :     0.000000
      f0      :     0.000000  f :     0.000000
      f+1     :    -0.000000
      f-1     :     0.000000
      f+2     :     0.000000
      f-2     :     0.000000
      f+3     :    -0.000000
      f-3     :     0.000000

 26 H s       :    -0.000001  s :    -0.000001
      pz      :     0.000000  p :    -0.000000
      px      :    -0.000001
      py      :     0.000001

 27 H s       :    -0.000028  s :    -0.000028
      pz      :    -0.000007  p :    -0.000010
      px      :    -0.000001
      py      :    -0.000002

 28 H s       :    -0.000024  s :    -0.000024
      pz      :     0.000006  p :    -0.000018
      px      :    -0.000026
      py      :     0.000002

 29 O s       :     0.000002  s :     0.000002
      pz      :    -0.000011  p :    -0.000040
      px      :    -0.000034
      py      :     0.000005
      dz2     :     0.000000  d :     0.000001
      dxz     :    -0.000001
      dyz     :     0.000001
      dx2y2   :     0.000000
      dxy     :     0.000000
      f0      :    -0.000000  f :     0.000000
      f+1     :     0.000000
      f-1     :     0.000000
      f+2     :    -0.000000
      f-2     :    -0.000000
      f+3     :     0.000000
      f-3     :     0.000000

 30 H s       :     0.000127  s :     0.000127
      pz      :     0.000002  p :     0.000009
      px      :    -0.000001
      py      :     0.000008



                      *****************************
                      * MAYER POPULATION ANALYSIS *
                      *****************************

  NA   - Mulliken gross atomic population
  ZA   - Total nuclear charge
  QA   - Mulliken gross atomic charge
  VA   - Mayer's total valence
  BVA  - Mayer's bonded valence
  FA   - Mayer's free valence

  ATOM       NA         ZA         QA         VA         BVA        FA
  0 C      5.6173     6.0000     0.3827     4.5721     4.5667     0.0054
  1 C      5.7375     6.0000     0.2625     4.1836     4.1605     0.0231
  2 C      5.7914     6.0000     0.2086     4.1020     4.0316     0.0704
  3 C      5.7800     6.0000     0.2200     4.0995     4.0130     0.0865
  4 C      5.7594     6.0000     0.2406     4.1201     4.0785     0.0416
  5 C      5.7497     6.0000     0.2503     4.0580     4.0472     0.0108
  6 C      5.7183     6.0000     0.2817     3.9969     3.9950     0.0019
  7 C      5.7238     6.0000     0.2762     4.4098     4.4091     0.0007
  8 F      9.1575     9.0000    -0.1575     1.1504     1.1504     0.0000
  9 F      9.1578     9.0000    -0.1578     1.1501     1.1501     0.0000
 10 F      9.1676     9.0000    -0.1676     1.1231     1.1229     0.0002
 11 F      9.1921     9.0000    -0.1921     1.0978     1.0977     0.0001
 12 F      9.1924     9.0000    -0.1924     1.0972     1.0972     0.0001
 13 F      9.2162     9.0000    -0.2162     1.0608     1.0607     0.0002
 14 F      9.2146     9.0000    -0.2146     1.0636     1.0635     0.0002
 15 F      9.2214     9.0000    -0.2214     1.0493     1.0491     0.0002
 16 F      9.2174     9.0000    -0.2174     1.0556     1.0554     0.0002
 17 F      9.2074     9.0000    -0.2074     1.0753     1.0752     0.0001
 18 F      9.2075     9.0000    -0.2075     1.0747     1.0747     0.0001
 19 F      9.1979     9.0000    -0.1979     1.1015     1.1015     0.0000
 20 F      9.1988     9.0000    -0.1988     1.1014     1.1014     0.0000
 21 F      9.2057     9.0000    -0.2057     1.0838     1.0838     0.0000
 22 F      9.2086     9.0000    -0.2086     1.0760     1.0760     0.0000
 23 O      8.5170     8.0000    -0.5170     1.9402     1.9401     0.0001
 24 O      8.5239     8.0000    -0.5239     1.9339     1.9337     0.0001
 25 O      8.7408     8.0000    -0.7408     1.7121     1.7121     0.0000
 26 H      0.6705     1.0000     0.3295     0.9051     0.9051     0.0000
 27 H      0.6479     1.0000     0.3521     0.9481     0.9481     0.0000
 28 H      0.6524     1.0000     0.3476     0.9568     0.9568     0.0000
 29 O      8.7361     8.0000    -0.7361     1.7299     1.7299     0.0000
 30 H      0.6708     1.0000     0.3292     0.9141     0.9141     0.0000

  Mayer bond orders larger than 0.100000
B(  0-C ,  1-C ) :   0.9639 B(  0-C ,  8-F ) :   1.1519 B(  0-C ,  9-F ) :   1.1517 
B(  0-C , 10-F ) :   1.1072 B(  1-C ,  2-C ) :   0.9181 B(  1-C , 11-F ) :   1.0470 
B(  1-C , 12-F ) :   1.0454 B(  2-C ,  3-C ) :   0.9003 B(  2-C , 13-F ) :   1.0109 
B(  2-C , 14-F ) :   1.0128 B(  3-C ,  4-C ) :   0.9064 B(  3-C , 15-F ) :   0.9988 
B(  3-C , 16-F ) :   1.0056 B(  4-C ,  5-C ) :   0.8928 B(  4-C , 17-F ) :   1.0281 
B(  4-C , 18-F ) :   1.0283 B(  5-C ,  6-C ) :   0.8903 B(  5-C , 19-F ) :   1.0447 
B(  5-C , 20-F ) :   1.0569 B(  6-C ,  7-C ) :   0.9095 B(  6-C , 21-F ) :   1.0461 
B(  6-C , 22-F ) :   1.0430 B(  7-C , 23-O ) :   1.6997 B(  7-C , 24-O ) :   1.7019 
B( 23-O , 28-H ) :   0.1293 B( 24-O , 27-H ) :   0.1220 B( 25-O , 26-H ) :   0.9002 
B( 25-O , 27-H ) :   0.8091 B( 28-H , 29-O ) :   0.8152 B( 29-O , 30-H ) :   0.9001 


-------
TIMINGS
-------

Total SCF time: 0 days 0 hours 0 min 46 sec 

Total time                  ....      46.799 sec
Sum of individual times     ....      46.362 sec  ( 99.1%)

SCF preparation             ....       1.373 sec  (  2.9%)
Fock matrix formation       ....      37.487 sec  ( 80.1%)
  Startup                   ....       0.183 sec  (  0.5% of F)
  Split-RI-J                ....       2.347 sec  (  6.3% of F)
  Chain of spheres X        ....      25.321 sec  ( 67.5% of F)
  XC integration            ....       6.934 sec  ( 18.5% of F)
    XC Preparation          ....       0.000 sec  (  0.0% of XC)
    Basis function eval.    ....       0.450 sec  (  6.5% of XC)
    Density eval.           ....       2.172 sec  ( 31.3% of XC)
    XC-Functional eval.     ....       0.091 sec  (  1.3% of XC)
    XC-Potential eval.      ....       1.959 sec  ( 28.3% of XC)
  CPCM terms                ....       2.233 sec  (  6.0% of F)
Diagonalization             ....       0.000 sec  (  0.0%)
Density matrix formation    ....       0.598 sec  (  1.3%)
Total Energy calculation    ....       0.275 sec  (  0.6%)
Population analysis         ....       0.458 sec  (  1.0%)
Orbital Transformation      ....       1.357 sec  (  2.9%)
Orbital Orthonormalization  ....       0.000 sec  (  0.0%)
DIIS solution               ....       2.373 sec  (  5.1%)
SOSCF solution              ....       2.442 sec  (  5.2%)
Finished LeanSCF after  47.2 sec

Maximum memory used throughout the entire LEANSCF-calculation: 129.4 MB


-------------------------------------------------------------------------------
                          DFT DISPERSION CORRECTION                            
                                                                               
                              DFTD3 V3.1  Rev 1                                
                          USING Becke-Johnson damping                          
-------------------------------------------------------------------------------
The TPSSH functional is recognized
Active option DFTDOPT                   ...         4   

molecular C6(AA) [au] = 8952.808714 


            DFT-D V3
 parameters
 s6 scaling factor         :     1.0000 
 a1 scaling factor         :     0.4529 
 s8 scaling factor         :     2.2382 
 a2 scaling factor         :     4.6550 
 ad hoc parameters k1-k3   :    16.0000     1.3333    -4.0000 

 Edisp/kcal,au: -21.652339067170  -0.034505194985 
 E6   /kcal   : -10.668520567 
 E8   /kcal   : -10.983818501 
 % E8         :  50.728092085 

-------------------------   ----------------
Dispersion correction           -0.034505195
-------------------------   ----------------


-------------------------   --------------------
FINAL SINGLE POINT ENERGY     -2106.888629600957
-------------------------   --------------------

                                *** OPTIMIZATION RUN DONE ***



           ************************************************************
           *        Program running with 20 parallel MPI-processes    *
           *              working on a common directory               *
           ************************************************************

------------------------------------------------------------------------------
                              ORCA PROPERTY CALCULATIONS
------------------------------------------------------------------------------

GBWName                                 ... rf_mecn_2H2O_opt_TP_sw_004.gbw
Number of atoms                         ...     31
Number of basis functions               ...    861
Max core memory                         ...   8000 MB

Electric properties:
Dipole moment                           ... YES
Quadrupole moment                       ...  NO
Static polarizability (Dipole/Dipole)   ...  NO
Static polarizability (Dipole/Quad.)    ...  NO
Static polarizability (Quad./Quad.)     ...  NO
Static polarizability (Velocity)        ...  NO

Atomic electric properties:
Dipole moment                           ...  NO
Quadrupole moment                       ...  NO
Static polarizability                   ...  NO

Choice of electric origin               ... Center of mass
Position of electric origin             ...    13.201829    43.642516     3.300722

General magnetic properties:
Magnetizability                         ...  NO

EPR properties:
g-Tensor (aka g-matrix)                 ...  NO
Zero-Field splitting spin-orbit         ...  NO
Zero-field splitting spin-spin          ...  NO
Hyperfine couplings                     ...  NO (   0 nuclei)
Quadrupole couplings                    ...  NO (   0 nuclei)
Contact density                         ...  NO (   0 nuclei)

NMR properties:
Chemical shifts                         ...  NO (   0 nuclei)
Spin-rotation constants                 ...  NO (   0 nuclei)
Spin-spin couplings                     ...  NO (   0 nuclei,    0 pairs)

Choice of magnetic origin               ... GIAO
Position of magnetic origin             ...     0.000000     0.000000     0.000000

Properties with geometric perturbations:
SCF Hessian                             ...  NO
IR spectrum                             ...  NO
VCD spectrum                            ...  NO
X-ray spectroscopy properties:
SCF XES/XAS/RIXS spectra                ...  NO


-------------
DIPOLE MOMENT
-------------

Method             : SCF
Type of density    : Electron Density
Multiplicity       :   2
Irrep              :   0
Energy             : -2106.8541244059724704 Eh
Relativity type    : 
Basis              : AO
                                X                 Y                 Z
Electronic contribution:      2.867472683      38.228110779       7.322351245
Nuclear contribution   :     -2.780428704     -31.387957808      -6.129409871
                        -----------------------------------------
Total Dipole Moment    :      0.087043979       6.840152971       1.192941373
                        -----------------------------------------
Magnitude (a.u.)       :      6.943945452
Magnitude (Debye)      :     17.650106662



--------------------
Rotational spectrum 
--------------------
 
Rotational constants in cm-1:             0.013468             0.002903             0.002698 
Rotational constants in MHz :           403.755571            87.039102            80.877136 

Dipole components along the rotational axes: 
x,y,z [a.u.] :    -6.906529    -0.537197     0.479225 
x,y,z [Debye]:   -17.555001    -1.365447     1.218093 

 

Dipole moment calculation done in   0.1 sec 

Maximum memory used throughout the entire PROP-calculation: 68.4 MB

--------------------------------
SUGGESTED CITATIONS FOR THIS RUN
--------------------------------

Below you find a list of papers that are relevant to this ORCA run
We neither can nor want to force you to cite these papers, but we appreciate if you do
You receive ORCA, which is the product of decades of hard work by many enthusiastic individuals, for free
The only thing we kindly ask in return is that you cite our papers,
We deeply appreciate it, if you show your appreciation for ORCA by not just citing the generic ORCA reference.

Please note that relegating all ORCA citations to the supporting information does *not* help us.
SI sections are not indexed - citations you put there will not count into any citation statistics
But we need these citations in order to attract the funding resources that allow us to do what we are doing

Therefore, if you are a happy ORCA user, please consider citing a few of the papers listed below in the main body of your paper

In addition to the list printed below, the program has created the file rf_mecn_2H2O_opt_TP_sw_004.bibtex that contains the list in bibtex format
You can import this file easily into all common literature databanks and citation aid programs


List of essential papers. We consider these as the minimum necessary citations

  1. Neese,F.
     Software update: the ORCA program system, version 5.0
     WIRES Comput. Molec. Sci., 2022 12(1)e1606
     doi.org/10.1002/wcms.1606

List of papers to cite with high priority. The work reported in these papers was absolutely
necessary for this run to complete.
Our perspective: the developers of density functionals and basis sets usually get cited in chemistry papers
Good! But without the algorithms to do something with them, the functionals or basis sets would not do anything.
Hence, in our opinion, the algorithm design and method developments papers are equally worthy of getting cited

  1. Neese,F.
     An improvement of the resolution of the identity approximation for the formation of the Coulomb matrix
     J. Comp. Chem., 2003 24(14)1740-1747
     doi.org/10.1002/jcc.10318
  2. Neese,F.; Wennmohs,F.; Hansen,A.; Becker,U.
     Efficient, approximate and parallel Hartree-Fock and hybrid DFT calculations. A 'chain-of-spheres' algorithm for the Hartree-Fock exchange
     Chem. Phys., 2009 356(1-3)98-109
     doi.org/10.1016/j.chemphys.2008.10.036
  3. Garcia-Rates,M.; Neese,F.
     Effect of the Solute Cavity on the Solvation Energy and its Derivatives within the Framework of the Gaussian Charge Scheme
     J. Comput. Chem., 2020 41 922-939
     doi.org/10.1002/jcc.26139
  4. Helmich-Paris,B.; de Souza,B.; Neese,F.; Izsák,R.
     An improved chain of spheres for exchange algorithm
     J. Chem. Phys., 2021 155 104109
     doi.org/doi: 10.1063/5.0058766.
  5. Neese,F.
     The SHARK Integral Generation and Digestion System
     J. Comp. Chem., 2022  1-16
     doi.org/10.1002/jcc.26942
  6. Grimme,S.; Antony,J.; Ehrlich,S.; Krieg,H.
     A consistent and accurate ab initio parametrization of density functional dispersion correction (DFT-D) for the 94 elements H-Pu
     J. Chem. Phys., 2010 132 154104
     doi.org/10.1063/1.3382344
  7. Grimme,S.; Ehrlich,S.; Goerigk,L.
     Effect of the damping function in dispersion corrected density functional theory
     J. Comput. Chem., 2011 32(7)1456-1465
     doi.org/10.1002/jcc.21759

List of suggested additional citations. These are papers that are important in the 'surrounding' of 
of this run, or papers that preceded the highly important papers. If you like your results we are grateful for a citation.

  1. Izsak,R.; Neese,F.
     An overlap fitted chain of spheres exchange method
     J. Chem. Phys., 2011 135 144105
     doi.org/10.1063/1.3646921
  2. Izsak,R.; Hansen,A.; Neese,F.
     The resolution of identity and chain of spheres approximations for the LPNO-CCSD singles Fock term
     Molec. Phys., 2012 110 2413-2417
     doi.org/10.1080/00268976.2012.687466
  3. Neese,F.
     The ORCA program system
     WIRES Comput. Molec. Sci., 2012 2(1)73-78
     doi.org/10.1002/wcms.81
  4. Izsak,R.; Neese,F.; Klopper,W.
     Robust fitting techniques in the chain of spheres approximation to the Fock exchange: The role of the complementary space
     J. Chem. Phys., 2013 139 
     doi.org/10.1063/1.4819264
  5. Neese,F.
     Software update: the ORCA program system, version 4.0
     WIRES Comput. Molec. Sci., 2018 8(1)1-6
     doi.org/10.1002/wcms.1327
  6. Neese,F.; Wennmohs,F.; Becker,U.; Riplinger,C.
     The ORCA quantum chemistry program package
     J. Chem. Phys., 2020 152 Art. No. L224108
     doi.org/10.1063/5.0004608

List of optional additional citations

  1. Neese,F.
     Approximate second-order SCF convergence for spin unrestricted wavefunctions
     Chem. Phys. Lett., 2000 325(1-3)93-98
     doi.org/10.1016/s0009-2614(00)00662-x

Timings for individual modules:

Sum of individual times          ...     1943.900 sec (=  32.398 min)
Startup calculation              ...       81.967 sec (=   1.366 min)   4.2 %
SCF iterations                   ...     1412.246 sec (=  23.537 min)  72.7 %
Property calculations            ...        0.865 sec (=   0.014 min)   0.0 %
SCF Gradient evaluation          ...      448.383 sec (=   7.473 min)  23.1 %
Geometry relaxation              ...        0.440 sec (=   0.007 min)   0.0 %
                             ****ORCA TERMINATED NORMALLY****
TOTAL RUN TIME: 0 days 0 hours 32 minutes 36 seconds 722 msec
