
                                 *****************
                                 * O   R   C   A *
                                 *****************

                                            #,                                       
                                            ###                                      
                                            ####                                     
                                            #####                                    
                                            ######                                   
                                           ########,                                 
                                     ,,################,,,,,                         
                               ,,#################################,,                 
                          ,,##########################################,,             
                       ,#########################################, ''#####,          
                    ,#############################################,,   '####,        
                  ,##################################################,,,,####,       
                ,###########''''           ''''###############################       
              ,#####''   ,,,,##########,,,,          '''####'''          '####       
            ,##' ,,,,###########################,,,                        '##       
           ' ,,###''''                  '''############,,,                           
         ,,##''                                '''############,,,,        ,,,,,,###''
      ,#''                                            '''#######################'''  
     '                                                          ''''####''''         
             ,#######,   #######,   ,#######,      ##                                
            ,#'     '#,  ##    ##  ,#'     '#,    #''#        ,####,   ,####,        
            ##       ##  ##   ,#'  ##            #'  '#       #'       #'  '#        
            ##       ##  #######   ##           ,######,      #####,   #    #        
            '#,     ,#'  ##    ##  '#,     ,#' ,#      #,     #,   #   #,  ,#        
             '#######'   ##     ##  '#######'  #'      '#     '####' # '####'        



                #########################################################
                #                        -***-                          #
                #          Department of theory and spectroscopy        #
                #                                                       #
                #                      Frank Neese                      #
                #                                                       #
                #     Directorship, Architecture, Infrastructure        #
                #                    SHARK, DRIVERS                     #
                #        Core code/Algorithms in most modules           #
                #                                                       #
                #        Max Planck Institute fuer Kohlenforschung      #
                #                Kaiser Wilhelm Platz 1                 #
                #                 D-45470 Muelheim/Ruhr                 #
                #                      Germany                          #
                #                                                       #
                #                  All rights reserved                  #
                #                        -***-                          #
                #########################################################


                         Program Version 6.0.1  -  RELEASE   -


 With contributions from (in alphabetic order):
[Max-Planck-Institut fuer Kohlenforschung]                               
  Daniel Aravena         : Magnetic Suceptibility                        
  Michael Atanasov       : Ab Initio Ligand Field Theory (pilot matlab implementation)
  Alexander A. Auer      : GIAO ZORA, VPT2 properties, NMR spectrum      
  Ute Becker             : All parallelization in ORCA, NUMFREQ, NUMCALC 
  Giovanni Bistoni       : ED, misc. LED, open-shell LED, HFLD           
  Martin Brehm           : Molecular dynamics                            
  Dmytro Bykov           : pre 5.0 version of the SCF Hessian            
  Marcos Casanova-Páez   : Triplet and SCS-CIS(D). UHF-(DLPNO)-IP/EA/STEOM-CCSD. UHF-CVS-IP/STEOM-CCSD   
  Vijay G. Chilkuri      : MRCI spin determinant printing, contributions to CSF-ICE 
  Pauline Colinet        : FMM embedding                                 
  Dipayan Datta          : RHF DLPNO-CCSD density                        
  Achintya Kumar Dutta   : EOM-CC, STEOM-CC                              
  Nicolas Foglia         : Exact transition moments, OPA infrastructure, MCD improvements    
  Dmitry Ganyushin       : Spin-Orbit,Spin-Spin,Magnetic field MRCI      
  Miquel Garcia-Rates    : C-PCM and meta-GGA Hessian, CCSD/C-PCM, Gaussian charge scheme 
  Tiago L. C. Gouveia    : GS-ROHF, GS-ROCIS                             
  Yang Guo               : DLPNO-NEVPT2, F12-NEVPT2, CIM, IAO-localization        
  Andreas Hansen         : Spin unrestricted coupled pair/coupled cluster methods 
  Ingolf Harden          : AUTO-CI MPn and infrastructure                
  Benjamin Helmich-Paris : MC-RPA, TRAH-(SCF,CASSCF), AVAS, COSX integrals, SCF dyn. polar. 
  Lee Huntington         : MR-EOM, pCC                                   
  Robert Izsak           : Overlap fitted RIJCOSX, COSX-SCS-MP3, EOM     
  Riya Kayal             : Wick's Theorem for AUTO-CI, AUTO-CI UHF-CCSDT 
  Emily Kempfer          : AUTO-CI, RHF CISDT and CCSDT                  
  Christian Kollmar      : KDIIS, OOCD, Brueckner-CCSD(T), CCSD density, CASPT2, CASPT2-K, improved NEVPT2 
  Axel Koslowski         : Symmetry handling                             
  Simone Kossmann        : meta-GGA functionals, TD-DFT gradient, OOMP2, (MP2 Hessian; deprecated post 5.0) 
  Lucas Lang             : DCDCAS                                        
  Marvin Lechner         : AUTO-CI (C++ implementation), FIC-MRCC        
  Spencer Leger          : CASSCF response                               
  Dagmar Lenk            : GEPOL surface, SMD, ORCA-2-JSON               
  Dimitrios Liakos       : Extrapolation schemes; Compound Job, initial MDCI parallelization 
  Dimitrios Manganas     : Further ROCIS development; embedding schemes. LFT, Crystal Embedding 
  Dimitrios Pantazis     : SARC Basis sets                               
  Anastasios Papadopoulos: AUTO-CI, single reference methods and gradients 
  Taras Petrenko         : pre 6.0 DFT Hessian and TD-DFT gradient, (ASA, deprecated), ECA, 1-Electron XAS/XES, NRVS 
  Peter Pinski           : DLPNO-MP2, DLPNO-MP2 Gradient                 
  Christoph Reimann      : Effective Core Potentials                     
  Marius Retegan         : Local ZFS, SOC                                
  Christoph Riplinger    : Optimizer, TS searches, QM/MM, DLPNO-CCSD(T), (RO)-DLPNO pert. Triples 
  Michael Roemelt        : Original ROCIS implementation                 
  Masaaki Saitow         : Open-shell DLPNO-CCSD energy and density      
  Barbara Sandhoefer     : DKH picture change effects                    
  Kantharuban Sivalingam : CASSCF convergence/infrastructure, NEVPT2 and variants, FIC-MRCI 
  Bernardo de Souza      : ESD, SOC TD-DFT                               
  Georgi L. Stoychev     : AutoAux, RI-MP2 NMR, DLPNO-MP2 response, X2C  
  Van Anh Tran           : RI-MP2 g-tensors                              
  Willem Van den Heuvel  : Paramagnetic NMR                              
  Zikuan Wang            : NOTCH, Electric field optimization            
  Frank Wennmohs         : Technical directorship and infrastructure     
  Hang Xu                : AUTO-CI-Response properties                   
                                                                         
[FACCTs GmbH]                                                            
  Markus Bursch, Miquel Garcia-Rates, Christoph Riplinger, Bernardo de Souza, Georgi L. Stoychev 
                                                                 
  APM, Basis sets (HGBS, AHGBS, def-TZVP (Ac-Lr), def2-XVPD (La-Lu)), CI-OPT, improved COSX, DLPNO-Multilevel,           
  DOCKER, DRACO, updates on ESD, GOAT, IRC, LR-CPCM, MBIS, meta-GGA TD-DFT gradient, ML-optimized integration grids, 
  MM, NACMEs, nearIR, NEB, NEB-TS, NL-DFT gradient (VV10), 2- and 3-layer-ONIOM, interface openCOSMO-RS, QMMM,   
  Crystal-QMMM, SF, symmetry and pop. for TD-DFT, r2SCAN hybrids, SOLVATOR                                   
                                                                         
[Other institutions]                                                     
  V. Asgeirsson          : NEB                                           
  Christoph Bannwarth    : sTDA-DFT, sTD-DFT, PBEh-3c, B97-3c, D3        
  Sebastian Ehlert       : rSCAN, r2SCAN, r2SCAN-3c, D4, dhf basis sets  
  Marvin Friede          : D4 for Fr, Ra, Ac-Lr                          
  Lars Goerigk           : TD-DFT with DH, B97 family of functionals     
  Stefan Grimme          : VdW corrections, initial TS optimization, DFT functionals, gCP, sTDA/sTD-DF 
  Waldemar Hujo          : DFT-NL                                        
  H. Jonsson             : NEB                                           
  Holger Kruse           : gCP                                           
  Marcel Mueller         : wB97X-3c, vDZP basis set                      
  Hagen Neugebauer       : wr2SCAN                                       
  Tobias Risthaus        : range-separated hybrid DFT                    
  Lukas Wittmann         : regularized MP2, r2SCAN double-hybrids, wr2SCAN        
                                                                         
We gratefully acknowledge several colleagues who have allowed us to      
interface, adapt or use parts of their codes:                            
  Ed Valeev, F. Pavosevic, A. Kumar             : LibInt (2-el integral package), F12 methods 
  Garnet Chan, S. Sharma, J. Yang, R. Olivares  : DMRG                   
  Ulf Ekstrom                                   : XCFun DFT Library      
  Mihaly Kallay                                 : mrcc  (arbitrary order and MRCC methods)
  Frank Weinhold                                : gennbo (NPA and NBO analysis)           
  Simon Mueller                                 : openCOSMO-RS                            
  Christopher J. Cramer and Donald G. Truhlar   : smd solvation model                     
  S Lehtola, MJT Oliveira, MAL Marques          : LibXC Library                           
  Liviu Ungur et al                             : ANISO software                          


 Your calculation uses the libint2 library for the computation of 2-el integrals
 For citations please refer to: http://libint.valeyev.net

 Your ORCA version has been built with support for libXC version: 6.2.2
 For citations please refer to: https://libxc.gitlab.io

 This ORCA versions uses:
   CBLAS   interface :  Fast vector & matrix operations
   LAPACKE interface :  Fast linear algebra routines
   SCALAPACK package :  Parallel linear algebra routines
   Shared memory     :  Shared parallel matrices
   BLAS/LAPACK       :  OpenBLAS 0.3.27  USE64BITINT DYNAMIC_ARCH NO_AFFINITY SkylakeX SINGLE_THREADED
        Core in use  :  SkylakeX
   Copyright (c) 2011-2014, The OpenBLAS Project


NOTE: MaxCore=8000 MB was set to SCF,MP2,MDCI,CIPSI,MRCI and CIS
      => If you want to overwrite this, your respective input block should be placed after the MaxCore statement
Your calculation utilizes the atom-pairwise dispersion correction
with the Becke-Johnson damping scheme (D3BJ)


Your calculation utilizes the SMD solvation module
Please cite in your paper:
A.V. Marenich, C.J. Cramer, D.G. Truhlar J. Phys. Chem. B, 113, (2009), 6378 

Warning: RI is on but no J-basis has been assigned. Assigning Def2/J (nothing to worry about!)
================================================================================

----- Orbital basis set information -----
Your calculation utilizes the basis: def2-TZVP
   F. Weigend and R. Ahlrichs, Phys. Chem. Chem. Phys. 7, 3297 (2005).

----- AuxJ basis set information -----
Your calculation utilizes the auxiliary basis: def2/J
   F. Weigend, Phys. Chem. Chem. Phys. 8, 1057 (2006).

================================================================================
                                        WARNINGS
                       Please study these warnings very carefully!
================================================================================



WARNING: SCAN, rSCAN, or r2SCAN functional requested.
  ===> : libXC variant has now been activated.



WARNING: your system is open-shell and RHF/RKS was chosen
  ===> : WILL SWITCH to UHF/UKS


WARNING: Geometry Optimization
  ===> : Switching off AutoStart
         For restart on a previous wavefunction, please use MOREAD

================================================================================
                                       INPUT FILE
================================================================================
NAME = rf_mecn_opt_r2s_C3_D_B.inp
|  1> !r2scanh def2-TZVP opt d3 TightSCF SlowConv defgrid2
|  2> 
|  3> %pal
|  4> nprocs 20
|  5> end
|  6>  
|  7> %scf
|  8> MaxIter 1500
|  9> end
| 10>  
| 11> %maxcore 8000 #verificar
| 12>  
| 13> !CPCM
| 14> %cpcm smd true
| 15> SMDsolvent "ACETONITRILE"
| 16> end
| 17>  
| 18> * xyz -1 2
| 19> 6        4.790427000     -0.033865800     -0.529943200
| 20> 8        5.449345000     -1.206924000     -0.894594600
| 21> 8        4.978223000      1.323071000     -0.737377200
| 22> 6        3.506687600     -0.338741600      0.376153800
| 23> 6        2.222300000      0.400524800     -0.110681600
| 24> 6        0.900506800     -0.386389800      0.175703000
| 25> 6       -0.395261200      0.487294000      0.065549000
| 26> 6       -1.705693600     -0.364773800     -0.068373600
| 27> 6       -3.005136200      0.445344800      0.258164000
| 28> 6       -4.319880200     -0.214526000     -0.270540800
| 29> 9        3.211587400     -1.692050400      0.412735200
| 30> 9        3.741061800      0.055285800      1.689948800
| 31> 9        2.125696800      1.616867800      0.483236600
| 32> 9        0.794028800     -1.413561400     -0.700839000
| 33> 9        0.958350600     -0.884509000      1.435093400
| 34> 9       -0.498373400      1.260265600      1.173340200
| 35> 9       -0.299075000      1.289512600     -1.020910800
| 36> 9       -1.641790400     -1.418189000      0.779523800
| 37> 9       -1.792381400     -0.831391600     -1.336863600
| 38> 9       -2.918792200      1.679227200     -0.295171200
| 39> 9       -3.119771000      0.573779800      1.598579800
| 40> 9       -4.383115600     -1.504377600      0.089127600
| 41> 9       -5.365669800      0.430528600      0.260394200
| 42> 9       -4.396020400     -0.128550600     -1.602941800
| 43> **                         ****END OF INPUT****
================================================================================

                       *****************************
                       * Geometry Optimization Run *
                       *****************************

Geometry optimization settings:
Update method            Update   .... BFGS
Choice of coordinates    CoordSys .... (2022) Redundant Internals
Initial Hessian          InHess   .... Almloef's Model
Max. no of cycles        MaxIter  .... 72

Convergence Tolerances:
Energy Change            TolE     ....  5.0000e-06 Eh
Max. Gradient            TolMAXG  ....  3.0000e-04 Eh/bohr
RMS Gradient             TolRMSG  ....  1.0000e-04 Eh/bohr
Max. Displacement        TolMAXD  ....  4.0000e-03 bohr
RMS Displacement         TolRMSD  ....  2.0000e-03 bohr
Strict Convergence                .... False

------------------------------------------------------------------------------
                        ORCA OPTIMIZATION COORDINATE SETUP
------------------------------------------------------------------------------

The optimization will be done in redundant internal coordinates (2022)
Making redundant internal coordinates   ...  (2022 redundants) done
Evaluating the initial hessian          ...  (Almloef) done
Evaluating the coordinates              ...  done
Calculating the B-matrix                .... done
Calculating the G-matrix                .... done
Diagonalizing the G-matrix              .... done
Small eigenvalue found = 5.511e-03
Small eigenvalue found = 1.467e-02
The first mode is                       ....   38
The number of degrees of freedom        ....   66

    -----------------------------------------------------------------
                    Redundant Internal Coordinates


    -----------------------------------------------------------------
         Definition                    Initial Value    Approx d2E/dq
    -----------------------------------------------------------------
      1. B(O   1,C   0)                  1.3940         0.551454   
      2. B(O   2,C   0)                  1.3855         0.568952   
      3. B(C   3,C   0)                  1.6006         0.288221   
      4. B(C   4,C   3)                  1.5599         0.334759   
      5. B(C   5,C   4)                  1.5647         0.328824   
      6. B(C   6,C   5)                  1.5667         0.326486   
      7. B(C   7,C   6)                  1.5688         0.323927   
      8. B(C   8,C   7)                  1.5657         0.327637   
      9. B(C   9,C   8)                  1.5632         0.330714   
     10. B(F  10,C   3)                  1.3856         0.528443   
     11. B(F  11,C   3)                  1.3915         0.517117   
     12. B(F  12,C   4)                  1.3570         0.586881   
     13. B(F  13,C   5)                  1.3545         0.592326   
     14. B(F  14,C   5)                  1.3556         0.590092   
     15. B(F  15,C   6)                  1.3547         0.591865   
     16. B(F  16,C   6)                  1.3540         0.593567   
     17. B(F  17,C   7)                  1.3538         0.593973   
     18. B(F  18,C   7)                  1.3544         0.592672   
     19. B(F  19,C   8)                  1.3550         0.591238   
     20. B(F  20,C   8)                  1.3514         0.599114   
     21. B(F  21,C   9)                  1.3406         0.623533   
     22. B(F  22,C   9)                  1.3385         0.628179   
     23. B(F  23,C   9)                  1.3373         0.630929   
     24. A(O   2,C   0,C   3)          112.3347         0.371210   
     25. A(O   1,C   0,C   3)          111.5249         0.369222   
     26. A(O   1,C   0,O   2)          136.1318         0.413163   
     27. A(C   4,C   3,F  11)          107.4072         0.373095   
     28. A(C   4,C   3,F  10)          107.2033         0.374492   
     29. A(C   0,C   3,F  10)          111.8265         0.364982   
     30. A(C   0,C   3,C   4)          113.1687         0.341363   
     31. A(C   0,C   3,F  11)          110.2099         0.363632   
     32. A(F  10,C   3,F  11)          106.7094         0.399684   
     33. A(C   3,C   4,F  12)          110.2926         0.381351   
     34. A(C   3,C   4,C   5)          113.5839         0.349005   
     35. A(C   5,C   4,F  12)          108.0911         0.380169   
     36. A(C   4,C   5,C   6)          113.9128         0.347536   
     37. A(C   6,C   5,F  14)          107.7906         0.380059   
     38. A(C   4,C   5,F  13)          109.2282         0.380779   
     39. A(C   6,C   5,F  13)          108.2026         0.380308   
     40. A(F  13,C   5,F  14)          109.0206         0.417483   
     41. A(C   4,C   5,F  14)          108.5900         0.380529   
     42. A(C   5,C   6,C   7)          113.2023         0.346660   
     43. A(F  15,C   6,F  16)          108.8752         0.417862   
     44. A(C   7,C   6,F  16)          108.2186         0.379927   
     45. A(C   5,C   6,F  16)          109.1523         0.380446   
     46. A(C   7,C   6,F  15)          108.4284         0.379738   
     47. A(C   5,C   6,F  15)          108.8835         0.380256   
     48. A(C   8,C   7,F  18)          108.6915         0.380579   
     49. A(C   6,C   7,F  18)          108.6955         0.379828   
     50. A(C   8,C   7,F  17)          108.1296         0.380723   
     51. A(C   6,C   7,F  17)          109.2524         0.379972   
     52. A(C   6,C   7,C   8)          113.2298         0.346865   
     53. A(F  17,C   7,F  18)          108.7561         0.418014   
     54. A(F  19,C   8,F  20)          108.8987         0.418476   
     55. A(C   7,C   8,C   9)          114.1471         0.348078   
     56. A(C   9,C   8,F  20)          107.7127         0.381912   
     57. A(C   7,C   8,F  20)          109.0521         0.381293   
     58. A(C   9,C   8,F  19)          107.4499         0.381036   
     59. A(C   7,C   8,F  19)          109.4572         0.380419   
     60. A(F  22,C   9,F  23)          108.6464         0.426961   
     61. A(F  21,C   9,F  23)          109.0552         0.426394   
     62. A(C   8,C   9,F  23)          110.9604         0.385362   
     63. A(F  21,C   9,F  22)          108.6877         0.426061   
     64. A(C   8,C   9,F  22)          108.6349         0.385069   
     65. A(C   8,C   9,F  21)          110.7995         0.384572   
     66. D(F  10,C   3,C   0,O   1)     -9.8890         0.006601   
     67. D(F  11,C   3,C   0,O   1)    108.6317         0.006601   
     68. D(C   4,C   3,C   0,O   2)     49.8076         0.006601   
     69. D(F  10,C   3,C   0,O   2)    171.0025         0.006601   
     70. D(C   4,C   3,C   0,O   1)   -131.0839         0.006601   
     71. D(C   5,C   4,C   3,C   0)    148.6429         0.008543   
     72. D(F  12,C   4,C   3,C   0)    -89.8453         0.008543   
     73. D(C   5,C   4,C   3,F  11)    -89.4885         0.008543   
     74. D(F  12,C   4,C   3,F  10)    146.3851         0.008543   
     75. D(C   5,C   4,C   3,F  10)     24.8733         0.008543   
     76. D(F  13,C   5,C   4,F  12)    162.3014         0.008276   
     77. D(C   6,C   5,C   4,F  12)     41.2001         0.008276   
     78. D(C   6,C   5,C   4,C   3)    163.9326         0.008276   
     79. D(F  14,C   5,C   4,C   3)     43.8158         0.008276   
     80. D(F  13,C   5,C   4,C   3)    -74.9661         0.008276   
     81. D(F  15,C   6,C   5,F  14)     44.2190         0.008700   
     82. D(F  15,C   6,C   5,F  13)    161.9826         0.008700   
     83. D(F  15,C   6,C   5,C   4)    -76.3465         0.008700   
     84. D(C   7,C   6,C   5,F  14)    -76.4529         0.008700   
     85. D(C   7,C   6,C   5,F  13)     41.3107         0.008700   
     86. D(C   7,C   6,C   5,C   4)    162.9815         0.008700   
     87. D(F  17,C   7,C   6,F  15)    -79.1358         0.008578   
     88. D(F  17,C   7,C   6,C   5)     41.7939         0.008578   
     89. D(C   8,C   7,C   6,F  16)    -76.5134         0.008578   
     90. D(C   8,C   7,C   6,F  15)     41.4341         0.008578   
     91. D(F  17,C   7,C   6,F  16)    162.9167         0.008578   
     92. D(C   8,C   7,C   6,C   5)    162.3638         0.008578   
     93. D(F  19,C   8,C   7,C   6)     41.9584         0.008755   
     94. D(C   9,C   8,C   7,F  18)     41.5227         0.008755   
     95. D(C   9,C   8,C   7,F  17)    -76.3785         0.008755   
     96. D(C   9,C   8,C   7,C   6)    162.4166         0.008755   
     97. D(F  19,C   8,C   7,F  18)    -78.9355         0.008755   
     98. D(F  19,C   8,C   7,F  17)    163.1633         0.008755   
     99. D(F  22,C   9,C   8,F  19)    -69.0724         0.008903   
    100. D(F  22,C   9,C   8,C   7)    169.3552         0.008903   
    101. D(F  21,C   9,C   8,F  20)    -71.2185         0.008903   
    102. D(F  21,C   9,C   8,F  19)    171.5999         0.008903   
    103. D(F  22,C   9,C   8,F  20)     48.1091         0.008903   
    104. D(F  21,C   9,C   8,C   7)     50.0276         0.008903   
    -----------------------------------------------------------------

Number of atoms                         .... 24
Number of degrees of freedom            .... 104


         *************************************************************
         *                GEOMETRY OPTIMIZATION CYCLE   1            *
         *************************************************************
---------------------------------
CARTESIAN COORDINATES (ANGSTROEM)
---------------------------------
  C      4.790427   -0.033866   -0.529943
  O      5.449345   -1.206924   -0.894595
  O      4.978223    1.323071   -0.737377
  C      3.506688   -0.338742    0.376154
  C      2.222300    0.400525   -0.110682
  C      0.900507   -0.386390    0.175703
  C     -0.395261    0.487294    0.065549
  C     -1.705694   -0.364774   -0.068374
  C     -3.005136    0.445345    0.258164
  C     -4.319880   -0.214526   -0.270541
  F      3.211587   -1.692050    0.412735
  F      3.741062    0.055286    1.689949
  F      2.125697    1.616868    0.483237
  F      0.794029   -1.413561   -0.700839
  F      0.958351   -0.884509    1.435093
  F     -0.498373    1.260266    1.173340
  F     -0.299075    1.289513   -1.020911
  F     -1.641790   -1.418189    0.779524
  F     -1.792381   -0.831392   -1.336864
  F     -2.918792    1.679227   -0.295171
  F     -3.119771    0.573780    1.598580
  F     -4.383116   -1.504378    0.089128
  F     -5.365670    0.430529    0.260394
  F     -4.396020   -0.128551   -1.602942

----------------------------
CARTESIAN COORDINATES (A.U.)
----------------------------
  NO LB      ZA    FRAG     MASS         X           Y           Z
   0 C     6.0000    0    12.011    9.052595   -0.063997   -1.001448
   1 O     8.0000    0    15.999   10.297770   -2.280756   -1.690539
   2 O     8.0000    0    15.999    9.407478    2.500242   -1.393441
   3 C     6.0000    0    12.011    6.626679   -0.640129    0.710828
   4 C     6.0000    0    12.011    4.199538    0.756882   -0.209158
   5 C     6.0000    0    12.011    1.701711   -0.730171    0.332031
   6 C     6.0000    0    12.011   -0.746935    0.920852    0.123870
   7 C     6.0000    0    12.011   -3.223294   -0.689323   -0.129207
   8 C     6.0000    0    12.011   -5.678884    0.841580    0.487859
   9 C     6.0000    0    12.011   -8.163391   -0.405395   -0.511248
  10 F     9.0000    0    18.998    6.069021   -3.197512    0.779956
  11 F     9.0000    0    18.998    7.069582    0.104475    3.193540
  12 F     9.0000    0    18.998    4.016985    3.055437    0.913185
  13 F     9.0000    0    18.998    1.500497   -2.671244   -1.324394
  14 F     9.0000    0    18.998    1.811020   -1.671480    2.711934
  15 F     9.0000    0    18.998   -0.941789    2.381557    2.217292
  16 F     9.0000    0    18.998   -0.565170    2.436826   -1.929242
  17 F     9.0000    0    18.998   -3.102534   -2.679989    1.473086
  18 F     9.0000    0    18.998   -3.387110   -1.571102   -2.526306
  19 F     9.0000    0    18.998   -5.515718    3.173280   -0.557793
  20 F     9.0000    0    18.998   -5.895513    1.084287    3.020878
  21 F     9.0000    0    18.998   -8.282888   -2.842862    0.168427
  22 F     9.0000    0    18.998  -10.139646    0.813581    0.492074
  23 F     9.0000    0    18.998   -8.307275   -0.242925   -3.029121

--------------------------------
INTERNAL COORDINATES (ANGSTROEM)
--------------------------------
 C      0   0   0     0.000000000000     0.00000000     0.00000000
 O      1   0   0     1.393990356793     0.00000000     0.00000000
 O      1   2   0     1.385486802956   136.13177198     0.00000000
 C      1   2   3     1.600608594862   111.52489317   181.18992567
 C      4   1   2     1.559863783763   113.16872737   228.91614990
 C      5   4   1     1.564732561934   113.58394786   148.64287440
 C      6   5   4     1.566675459667   113.91280616   163.93256239
 C      7   6   5     1.568817348692   113.20226571   162.98152714
 C      8   7   6     1.565717094808   113.22984595   162.36375422
 C      9   8   7     1.563173062643   114.14707705   162.41661495
 F      4   1   2     1.385592665621   111.82651119   350.11101305
 F      4   1   2     1.391490625050   110.20991618   108.63170802
 F      5   4   1     1.357041377479   110.29260564   270.15468021
 F      6   5   4     1.354527570075   109.22822656   285.03385927
 F      6   5   4     1.355556277776   108.59004089    43.81583148
 F      7   6   5     1.354739297058   108.88346185   283.65347401
 F      7   6   5     1.353957667090   109.15230848    42.38718856
 F      8   7   6     1.353771473879   109.25240264    41.79387651
 F      8   7   6     1.354368423305   108.69554158   283.25540020
 F      9   8   7     1.355028009646   109.45719767    41.95842364
 F      9   8   7     1.351425618925   109.05210362   282.91820052
 F     10   9   8     1.340551089588   110.79953142    50.02756898
 F     10   9   8     1.338530275591   108.63493714   169.35523750
 F     10   9   8     1.337341214598   110.96044107   288.72891896

---------------------------
INTERNAL COORDINATES (A.U.)
---------------------------
 C      0   0   0     0.000000000000     0.00000000     0.00000000
 O      1   0   0     2.634260007667     0.00000000     0.00000000
 O      1   2   0     2.618190619750   136.13177198     0.00000000
 C      1   2   3     3.024711891890   111.52489317   181.18992567
 C      4   1   2     2.947715357535   113.16872737   228.91614990
 C      5   4   1     2.956916014884   113.58394786   148.64287440
 C      6   5   4     2.960587559506   113.91280616   163.93256239
 C      7   6   5     2.964635143173   113.20226571   162.98152714
 C      8   7   6     2.958776512386   113.22984595   162.36375422
 C      9   8   7     2.953968988318   114.14707705   162.41661495
 F      4   1   2     2.618390671194   111.82651119   350.11101305
 F      4   1   2     2.629536199263   110.20991618   108.63170802
 F      5   4   1     2.564436555835   110.29260564   270.15468021
 F      6   5   4     2.559686148288   109.22822656   285.03385927
 F      6   5   4     2.561630124115   108.59004089    43.81583148
 F      7   6   5     2.560086254300   108.88346185   283.65347401
 F      7   6   5     2.558609187723   109.15230848    42.38718856
 F      8   7   6     2.558257333546   109.25240264    41.79387651
 F      8   7   6     2.559385404477   108.69554158   283.25540020
 F      9   8   7     2.560631842023   109.45719767    41.95842364
 F      9   8   7     2.553824310132   109.05210362   282.91820052
 F     10   9   8     2.533274427850   110.79953142    50.02756898
 F     10   9   8     2.529455642830   108.63493714   169.35523750
 F     10   9   8     2.527208643196   110.96044107   288.72891896

---------------------
BASIS SET INFORMATION
---------------------
There are 3 groups of distinct atoms

 Group   1 Type C   : 11s6p2d1f contracted to 5s3p2d1f pattern {62111/411/11/1}
 Group   2 Type O   : 11s6p2d1f contracted to 5s3p2d1f pattern {62111/411/11/1}
 Group   3 Type F   : 11s6p2d1f contracted to 5s3p2d1f pattern {62111/411/11/1}

Atom   0C    basis set group =>   1
Atom   1O    basis set group =>   2
Atom   2O    basis set group =>   2
Atom   3C    basis set group =>   1
Atom   4C    basis set group =>   1
Atom   5C    basis set group =>   1
Atom   6C    basis set group =>   1
Atom   7C    basis set group =>   1
Atom   8C    basis set group =>   1
Atom   9C    basis set group =>   1
Atom  10F    basis set group =>   3
Atom  11F    basis set group =>   3
Atom  12F    basis set group =>   3
Atom  13F    basis set group =>   3
Atom  14F    basis set group =>   3
Atom  15F    basis set group =>   3
Atom  16F    basis set group =>   3
Atom  17F    basis set group =>   3
Atom  18F    basis set group =>   3
Atom  19F    basis set group =>   3
Atom  20F    basis set group =>   3
Atom  21F    basis set group =>   3
Atom  22F    basis set group =>   3
Atom  23F    basis set group =>   3
---------------------------------
AUXILIARY/J BASIS SET INFORMATION
---------------------------------
There are 3 groups of distinct atoms

 Group   1 Type C   : 12s5p4d2f1g contracted to 6s4p3d1f1g pattern {711111/2111/211/2/1}
 Group   2 Type O   : 12s5p4d2f1g contracted to 6s4p3d1f1g pattern {711111/2111/211/2/1}
 Group   3 Type F   : 12s5p4d2f1g contracted to 6s4p3d1f1g pattern {711111/2111/211/2/1}

Atom   0C    basis set group =>   1
Atom   1O    basis set group =>   2
Atom   2O    basis set group =>   2
Atom   3C    basis set group =>   1
Atom   4C    basis set group =>   1
Atom   5C    basis set group =>   1
Atom   6C    basis set group =>   1
Atom   7C    basis set group =>   1
Atom   8C    basis set group =>   1
Atom   9C    basis set group =>   1
Atom  10F    basis set group =>   3
Atom  11F    basis set group =>   3
Atom  12F    basis set group =>   3
Atom  13F    basis set group =>   3
Atom  14F    basis set group =>   3
Atom  15F    basis set group =>   3
Atom  16F    basis set group =>   3
Atom  17F    basis set group =>   3
Atom  18F    basis set group =>   3
Atom  19F    basis set group =>   3
Atom  20F    basis set group =>   3
Atom  21F    basis set group =>   3
Atom  22F    basis set group =>   3
Atom  23F    basis set group =>   3


           ************************************************************
           *        Program running with 20 parallel MPI-processes    *
           *              working on a common directory               *
           ************************************************************
------------------------------------------------------------------------------
                             ORCA STARTUP CALCULATIONS
                           -- RI-GTO INTEGRALS CHOSEN --
------------------------------------------------------------------------------
------------------------------------------------------------------------------
                   ___                                                        
                  /   \      - P O W E R E D   B Y -                         
                 /     \                                                     
                 |  |  |   _    _      __       _____    __    __             
                 |  |  |  | |  | |    /  \     |  _  \  |  |  /  |          
                  \  \/   | |  | |   /    \    | | | |  |  | /  /          
                 / \  \   | |__| |  /  /\  \   | |_| |  |  |/  /          
                |  |  |   |  __  | /  /__\  \  |    /   |      \           
                |  |  |   | |  | | |   __   |  |    \   |  |\   \          
                \     /   | |  | | |  |  |  |  | |\  \  |  | \   \       
                 \___/    |_|  |_| |__|  |__|  |_| \__\ |__|  \__/        
                                                                              
                      - O R C A' S   B I G   F R I E N D -                    
                                      &                                       
                       - I N T E G R A L  F E E D E R -                       
                                                                              
 v1 FN, 2020, v2 2021, v3 2022-2024                                           
------------------------------------------------------------------------------


----------------------
SHARK INTEGRAL PACKAGE
----------------------

Number of atoms                             ...     24
Number of basis functions                   ...    744
Number of shells                            ...    264
Maximum angular momentum                    ...      3
Integral batch strategy                     ... SHARK/LIBINT Hybrid
RI-J (if used) integral strategy            ... SPLIT-RIJ (Revised 2003 algorithm where possible)
Printlevel                                  ...      1
Contraction scheme used                     ... SEGMENTED contraction
Prescreening option                         ... SCHWARTZ
   Thresh                                   ... 2.500e-11
   Tcut                                     ... 2.500e-12
   Tpresel                                  ... 2.500e-12 
Coulomb Range Separation                    ... NOT USED
Exchange Range Separation                   ... NOT USED
Multipole approximations                    ... NOT USED
Finite Nucleus Model                        ... NOT USED
CABS basis                                  ... NOT available
Auxiliary Coulomb fitting basis             ... AVAILABLE
   # of basis functions in Aux-J            ...   1176
   # of shells in Aux-J                     ...    360
   Maximum angular momentum in Aux-J        ...      4
Auxiliary J/K fitting basis                 ... NOT available
Auxiliary Correlation fitting basis         ... NOT available
Auxiliary 'external' fitting basis          ... NOT available

Checking pre-screening integrals            ... done (  0.0 sec) Dimension = 264
Check shell pair data                       ... done (  0.0 sec)
Shell pair information
Shell pair cut-off parameter TPreSel        ...   2.5e-12
Total number of shell pairs                 ...     34980
Shell pairs after pre-screening             ...     21558
Total number of primitive shell pairs       ...    115968
Primitive shell pairs kept                  ...     45891
          la=0 lb=0:   4029 shell pairs
          la=1 lb=0:   5862 shell pairs
          la=1 lb=1:   2053 shell pairs
          la=2 lb=0:   3201 shell pairs
          la=2 lb=1:   2374 shell pairs
          la=2 lb=2:    673 shell pairs
          la=3 lb=0:   1456 shell pairs
          la=3 lb=1:   1146 shell pairs
          la=3 lb=2:    615 shell pairs
          la=3 lb=3:    149 shell pairs

Calculating one electron integrals          ... done (  0.0 sec)
Calculating RI/J V-Matrix + Cholesky decomp.... done (  0.1 sec)
Calculating Nuclear repulsion               ... done (  0.0 sec) ENN=   2604.820551691798 Eh

Diagonalization of the overlap matrix:
Smallest eigenvalue                        ... 6.216e-05
Time for diagonalization                   ...    0.096 sec
Threshold for overlap eigenvalues          ... 1.000e-07
Number of eigenvalues below threshold      ... 0
Time for construction of square roots      ...    0.041 sec
Total time needed                          ...    0.142 sec

-------------------
DFT GRID GENERATION
-------------------

General Integration Accuracy     IntAcc      ... 4.388
Radial Grid Type                 RadialGrid  ... OptM3 with GC (2021)
Angular Grid (max. ang.)         AngularGrid ... 4 (Lebedev-302)
Angular grid pruning method      GridPruning ... 4 (adaptive)
Weight generation scheme         WeightScheme... mBecke (2022)
Basis function cutoff            BFCut       ... 1.0000e-11
Integration weight cutoff        WCut        ... 1.0000e-14
Partially contracted basis set               ... off
Rotationally invariant grid construction     ... off
Angular grids for H and He will be reduced by one unit

Total number of grid points                  ...   145519
Total number of batches                      ...     2285
Average number of points per batch           ...       63
Average number of grid points per atom       ...     6063

--------------------
COSX GRID GENERATION
--------------------

GRIDX 1
-------
General Integration Accuracy     IntAcc      ... 3.816
Radial Grid Type                 RadialGrid  ... OptM3 with GC (2021)
Angular Grid (max. ang.)         AngularGrid ... 1 (Lebedev-50)
Angular grid pruning method      GridPruning ... 4 (adaptive)
Weight generation scheme         WeightScheme... mBecke (2022)
Basis function cutoff            BFCut       ... 1.0000e-11
Integration weight cutoff        WCut        ... 1.0000e-14
Partially contracted basis set               ... on
Rotationally invariant grid construction     ... off
Angular grids for H and He will be reduced by one unit

Total number of grid points                  ...    18285
Total number of batches                      ...      154
Average number of points per batch           ...      118
Average number of grid points per atom       ...      762
UseSFitting                                  ... on

GRIDX 2
-------
General Integration Accuracy     IntAcc      ... 4.020
Radial Grid Type                 RadialGrid  ... OptM3 with GC (2021)
Angular Grid (max. ang.)         AngularGrid ... 2 (Lebedev-110)
Angular grid pruning method      GridPruning ... 4 (adaptive)
Weight generation scheme         WeightScheme... mBecke (2022)
Basis function cutoff            BFCut       ... 1.0000e-11
Integration weight cutoff        WCut        ... 1.0000e-14
Partially contracted basis set               ... on
Rotationally invariant grid construction     ... off
Angular grids for H and He will be reduced by one unit

Total number of grid points                  ...    43374
Total number of batches                      ...      353
Average number of points per batch           ...      122
Average number of grid points per atom       ...     1807
UseSFitting                                  ... on

GRIDX 3
-------
General Integration Accuracy     IntAcc      ... 4.338
Radial Grid Type                 RadialGrid  ... OptM3 with GC (2021)
Angular Grid (max. ang.)         AngularGrid ... 3 (Lebedev-194)
Angular grid pruning method      GridPruning ... 4 (adaptive)
Weight generation scheme         WeightScheme... mBecke (2022)
Basis function cutoff            BFCut       ... 1.0000e-11
Integration weight cutoff        WCut        ... 1.0000e-14
Partially contracted basis set               ... on
Rotationally invariant grid construction     ... off
Angular grids for H and He will be reduced by one unit

Total number of grid points                  ...    96109
Total number of batches                      ...      761
Average number of points per batch           ...      126
Average number of grid points per atom       ...     4005
UseSFitting                                  ... on
Initializing property integral containers    ... done (  0.0 sec)

SHARK setup successfully completed in   2.9 seconds

Maximum memory used throughout the entire STARTUP-calculation: 56.5 MB


           ************************************************************
           *        Program running with 20 parallel MPI-processes    *
           *              working on a common directory               *
           ************************************************************
-------------------------------------------------------------------------------
                                 ORCA GUESS
                   Start orbitals & Density for SCF / CASSCF
-------------------------------------------------------------------------------

------------
SCF SETTINGS
------------
Hamiltonian:
 Density Functional     Method          .... DFT(GTOs)
  Functional kind                       .... Exchange
  Functional name                       .... Re-regularized SCAN exchange by Furness et al
  Functional family                     .... MGGA
  Functional refs                              
    [ 0] J. W. Furness, A. D. Kaplan, J. Ning, J. P. Perdew, and J. Sun.,  J. Phys. Chem. Lett. 11, 8208-8215 (2020), doi: 10.1021/acs.jpclett.0c02405
    [ 1] J. W. Furness, A. D. Kaplan, J. Ning, J. P. Perdew, and J. Sun.,  J. Phys. Chem. Lett. 11, 9248-9248 (2020), doi: 10.1021/acs.jpclett.0c03077
  Functional external parameters        .... 6
    Parameter  0 _c1        =  6.670000e-01 : c1 parameter        
    Parameter  1 _c2        =  8.000000e-01 : c2 parameter        
    Parameter  2 _d         =  1.240000e+00 : d parameter         
    Parameter  3 _k1        =  6.500000e-02 : k1 parameter        
    Parameter  4 _eta       =  1.000000e-03 : eta parameter       
    Parameter  5 _dp2       =  3.610000e-01 : dp2 parameter       
  Functional kind                       .... Correlation
  Functional name                       .... Re-regularized SCAN correlation by Furness et al
  Functional family                     .... MGGA
  Functional refs                              
    [ 0] J. W. Furness, A. D. Kaplan, J. Ning, J. P. Perdew, and J. Sun.,  J. Phys. Chem. Lett. 11, 8208-8215 (2020), doi: 10.1021/acs.jpclett.0c02405
    [ 1] J. W. Furness, A. D. Kaplan, J. Ning, J. P. Perdew, and J. Sun.,  J. Phys. Chem. Lett. 11, 9248-9248 (2020), doi: 10.1021/acs.jpclett.0c03077
  Functional external parameters        .... 1
    Parameter  0 _eta       =  1.000000e-03 : Regularization parameter
 Gradients option       PostSCFGGA      .... off
 Hybrid DFT is turned on
   Fraction HF Exchange ScalHFX         ....  0.100000
   Scaling of DF-GGA-X  ScalDFX         ....  0.900000
   Scaling of DF-GGA-C  ScalDFC         ....  1.000000
   Scaling of DF-LDA-C  ScalLDAC        ....  1.000000
   Perturbative correction              ....  0.000000
   NL short-range parameter             .... 11.900000
 RI-approximation to the Coulomb term is turned on
   Number of AuxJ basis functions       .... 1176
   RIJ-COSX (HFX calculated with COS-X)).... on


General Settings:
 Integral files         IntName         .... rf_mecn_opt_r2s_C3_D_B
 Hartree-Fock type      HFTyp           .... UHF
 Total Charge           Charge          ....   -1
 Multiplicity           Mult            ....    2
 Number of Electrons    NEL             ....  191
 Basis Dimension        Dim             ....  744
 Nuclear Repulsion      ENuc            ....   2604.8205516918 Eh

Convergence Acceleration:
 AO-DIIS                CNVDIIS         .... on
   Start iteration      DIISMaxIt       ....     0
   Startup error        DIISStart       ....  0.200000
   # of expansion vecs  DIISMaxEq       ....     5
   Bias factor          DIISBfac        ....   1.050
   Max. coefficient     DIISMaxC        ....  10.000
 MO-DIIS                CNVKDIIS        .... off
 Trust-Rad. Augm. Hess. CNVTRAH         .... auto
   Auto Start mean grad. ratio tolernc. ....  1.125000
   Auto Start start iteration           ....    50
   Auto Start num. interpolation iter.  ....    10
   Max. Number of Micro iterations      ....    24
   Max. Number of Macro iterations      .... Maxiter - #DIIS iter
   Number of Davidson start vectors     ....     2
   Converg. threshold    (grad. norm)   ....   1.000e-05
   Grad. Scal. Fac. for Micro threshold ....   0.100
   Minimum threshold for Micro iter.    ....   1.000e-02
   NR start threshold (gradient norm)   ....   1.000e-04
   Initial trust radius                 ....   0.400
   Minimum AH scaling param. (alpha)    ....   1.000
   Maximum AH scaling param. (alpha)    .... 1000.000
   Quad. conv. algorithm                .... NR
   White noise on init. David. guess    .... on
   Maximum white noise                  ....   0.010
   Pseudo random numbers                .... off
   Inactive MOs                         .... canonical
   Orbital update algorithm             .... Taylor
   Preconditioner                       .... Diag
   Full preconditioner red. dimension   ....   250
 SOSCF                  CNVSOSCF        .... on
   Start iteration      SOSCFMaxIt      ....   150
   Startup grad/error   SOSCFStart      ....  0.001000
   Hessian update       SOSCFHessUp     .... L-BFGS
 Level Shifting         CNVShift        .... on
   Level shift para.    LevelShift      ....    0.2500
   Turn off err/grad.   ShiftErr        ....    0.0000
 Zerner damping         CNVZerner       .... off
 Static damping         CNVDamp         .... on
   Fraction old density DampFac         ....    0.8500
   Max. Damping (<1)    DampMax         ....    0.9800
   Min. Damping (>=0)   DampMin         ....    0.0000
   Turn off err/grad.   DampErr         ....    0.0300

SCF Procedure:
 Maximum # iterations   MaxIter         ....  1500
 SCF integral mode      SCFMode         .... Direct
   Integral package                     .... SHARK and LIBINT hybrid scheme
 Reset frequency        DirectResetFreq ....    20
 Integral Threshold     Thresh          ....  2.500e-11 Eh
 Primitive CutOff       TCut            ....  2.500e-12 Eh

Convergence Tolerance:
 Convergence Check Mode ConvCheckMode   .... Total+1el-Energy
 Convergence forced     ConvForced      .... 0
 Energy Change          TolE            ....  1.000e-08 Eh
 1-El. energy change                    ....  1.000e-05 Eh
 Orbital Gradient       TolG            ....  1.000e-05
 Orbital Rotation angle TolX            ....  1.000e-05
 DIIS Error             TolErr          ....  5.000e-07

------------------------------
INITIAL GUESS: MODEL POTENTIAL
------------------------------
Loading Hartree-Fock densities                     ... done
Calculating cut-offs                               ... done
Initializing the effective Hamiltonian             ... done
Setting up the integral package (SHARK)            ... done
Starting the Coulomb interaction                   ... done (   0.1 sec)
Making the grid                                    ... done (   0.4 sec)
Mapping shells                                     ... done
Starting the XC term evaluation                    ... done (   0.1 sec)
  promolecular density results
     # of electrons  =    190.000886876
     EX              =   -197.020090180
     EC              =     -6.648035697
     EX+EC           =   -203.668125877
Transforming the Hamiltonian                       ... done (   0.0 sec)
Diagonalizing the Hamiltonian                      ... done (   0.1 sec)
Back transforming the eigenvectors                 ... done (   0.0 sec)
Now organizing SCF variables                       ... done
                      ------------------
                      INITIAL GUESS DONE (   1.0 sec)
                      ------------------
             **** ENERGY FILE WAS UPDATED (rf_mecn_opt_r2s_C3_D_B.en.tmp) ****
Finished Guess after   1.9 sec
Maximum memory used throughout the entire GUESS-calculation: 45.0 MB


           ************************************************************
           *        Program running with 20 parallel MPI-processes    *
           *              working on a common directory               *
           ************************************************************

-------------------------------------------------------------------------------------------
                                      ORCA LEAN-SCF
                              memory conserving SCF solver
-------------------------------------------------------------------------------------------

--------------------
CPCM SOLVATION MODEL
--------------------
CPCM parameters:
  Epsilon                                         ...      35.6880
  Refrac                                          ...       1.3442
  Rsolv                                           ...       1.3000
  Surface type                                    ... GAUSSIAN VDW
  Discretization scheme                           ... Constant charge density
    Threshold for H atoms                         ...       5.0000 (charges/Ang^2)
    Threshold for non-H atoms                     ...       5.0000 (charges/Ang^2)
  Epsilon function type                           ...         CPCM
Solvent:                                          ... ACETONITRILE
SMD-CDS solvent descriptors:
  Soln                                            ...       1.3442
  Soln25                                          ...       1.3416
  Sola                                            ...       0.0700
  Solb                                            ...       0.3200
  Solg                                            ...      41.2500
  Solc                                            ...       0.0000
  Solh                                            ...       0.0000
Radii:
  Scheme                                          ... Element-dependent radii
  Radius for C  used is    3.4960 Bohr (=   1.8500 Ang.)
  Radius for O  used is    4.0969 Bohr (=   2.1680 Ang.)
  Radius for F  used is    3.2692 Bohr (=   1.7300 Ang.)
Calculating surface                               ...        done! (  0.0s)
Cavity surface points                             ...         2135
Cavity Volume                                     ...    2137.8528
Cavity Surface-area                               ...    1119.4121
Calculating surface distance matrix               ...        done! (  0.0s)
Performing Cholesky decomposition & store         ...        done! (  0.1s)
Overall time for CPCM initialization              ...                 0.1s

----------------------------------------D-I-I-S--------------------------------------------
Iteration    Energy (Eh)           Delta-E    RMSDP     MaxDP     DIISErr   Damp  Time(sec)
-------------------------------------------------------------------------------------------
               ***  Starting incremental Fock matrix formation  ***
    1    -1852.5803486442459871     0.00e+00  2.65e-04  3.58e-02  1.58e-01  0.850   6.4
Warning: op=0 Small HOMO/LUMO gap (   0.045) - skipping pre-diagonalization
         Will do a full diagonalization
    2    -1852.7279734387270764    -1.48e-01  3.30e-04  6.70e-02  1.06e-01  0.850   4.3
                               ***Turning on AO-DIIS***
    3    -1852.8050439660032680    -7.71e-02  1.52e-04  2.68e-02  6.09e-02  0.850   3.8
    4    -1852.8504828425434425    -4.54e-02  7.95e-05  7.82e-03  4.45e-02  0.850   3.7
    5    -1852.8827032441308802    -3.22e-02  5.47e-05  3.49e-03  3.69e-02  0.850   3.7
    6    -1852.9082846389924271    -2.56e-02  4.56e-05  3.41e-03  3.22e-02  0.850   3.5
    7    -1852.9297058124934665    -2.14e-02  4.10e-05  3.12e-03  2.79e-02  0.850   3.5
    8    -1852.9480119981749340    -1.83e-02  2.43e-04  1.82e-02  2.34e-02  0.000   3.5
    9    -1853.0449985575501159    -9.70e-02  2.77e-05  2.28e-03  4.71e-03  0.000   3.8
   10    -1853.0452722886252559    -2.74e-04  1.20e-05  1.65e-03  3.15e-03  0.000   3.2
                              *** Initializing SOSCF ***
---------------------------------------S-O-S-C-F--------------------------------------
Iteration    Energy (Eh)           Delta-E    RMSDP     MaxDP     MaxGrad    Time(sec)
--------------------------------------------------------------------------------------
   11    -1853.0454029212010028    -1.31e-04  7.97e-06  1.29e-03  8.82e-04     3.6
               *** Restarting incremental Fock matrix formation ***
   12    -1853.0454405864306864    -3.77e-05  1.35e-05  1.52e-03  1.11e-03     6.1
   13    -1853.0454606989792410    -2.01e-05  9.47e-06  9.62e-04  4.77e-04     4.3
   14    -1853.0454568570426090     3.84e-06  5.38e-06  5.87e-04  7.71e-04     4.2
   15    -1853.0454650549504549    -8.20e-06  2.61e-06  2.37e-04  1.95e-04     3.9
   16    -1853.0454636947347353     1.36e-06  1.81e-06  1.76e-04  4.31e-04     3.8
   17    -1853.0454654087475319    -1.71e-06  9.85e-07  7.25e-05  4.73e-05     3.7
   18    -1853.0454652601324597     1.49e-07  5.21e-07  3.37e-05  5.32e-05     3.6
   19    -1853.0454654872733045    -2.27e-07  2.62e-07  2.67e-05  3.87e-06     3.3
   20    -1853.0454654746677079     1.26e-08  1.07e-07  1.56e-05  3.60e-06     3.0
   21    -1853.0454654885957098    -1.39e-08  7.70e-08  4.90e-06  1.72e-06     2.8
                  *** Gradient check signals convergence ***

               *****************************************************
               *                     SUCCESS                       *
               *           SCF CONVERGED AFTER  21 CYCLES          *
               *****************************************************

Recomputing exchange energy using gridx3       ... done (    6.813 sec)
Old exchange energy                            :    -19.873686573 Eh
New exchange energy                            :    -19.873699762 Eh
Exchange energy change after final integration :     -0.000013189 Eh
Total energy after final integration           :  -1853.045478678 Eh

SMD CDS free energy correction energy :                 3.62328     Kcal/mol
Total Energy after SMD CDS correction =             -1853.039704618 Eh
             **** ENERGY FILE WAS UPDATED (rf_mecn_opt_r2s_C3_D_B.en.tmp) ****

----------------
TOTAL SCF ENERGY
----------------

Total Energy       :      -1853.03970461817676 Eh          -50423.77386 eV

Components:
Nuclear Repulsion  :       2604.82055169179830 Eh           70880.77072 eV
Electronic Energy  :      -4457.78379220280203 Eh         -121302.46388 eV
One Electron Energy:      -7783.60321299152110 Eh         -211802.61126 eV
Two Electron Energy:       3325.81942078871907 Eh           90500.14738 eV
CPCM Dielectric    :         -0.08222497759232 Eh              -2.23746 eV
SMD CDS (Gcds)     :          0.00577405966273 Eh               0.15712 eV

Virial components:
Potential Energy   :      -3698.52132198014624 Eh         -100641.88171 eV
Kinetic Energy     :       1845.48161736196926 Eh           50218.10785 eV
Virial Ratio       :          2.00409545518368

DFT components:
N(Alpha)           :       95.999978848307 electrons
N(Beta)            :       94.999977228511 electrons
N(Total)           :      190.999956076818 electrons
E(X)               :     -179.875853446339 Eh       
E(C)               :       -6.627751336627 Eh       
E(XC)              :     -186.503604782965 Eh       

CPCM Solvation Model Properties:
Surface-charge          :          0.99033823610840
Corrected charge        :          1.00000000000000
Outlying charge corr.   :          0.00000507123336 Eh               0.00014 eV
Free-energy (cav+disp)  :          0.00577405966273 Eh               0.15712 eV

---------------
SCF CONVERGENCE
---------------

  Last Energy change         ...    1.3928e-08  Tolerance :   1.0000e-08
  Last MAX-Density change    ...    4.9029e-06  Tolerance :   1.0000e-07
  Last RMS-Density change    ...    7.6969e-08  Tolerance :   5.0000e-09
  Last DIIS Error            ...    8.8176e-04  Tolerance :   5.0000e-07
  Last Orbital Gradient      ...    1.7204e-06  Tolerance :   1.0000e-05
  Last Orbital Rotation      ...    6.3765e-06  Tolerance :   1.0000e-05


----------------------
UHF SPIN CONTAMINATION
----------------------

Warning: in a DFT calculation there is little theoretical justification to 
         calculate <S**2> as in Hartree-Fock theory. We will do it anyways
         but you should keep in mind that the values have only limited relevance

Expectation value of <S**2>     :     0.755353
Ideal value S*(S+1) for S=0.5   :     0.750000
Deviation                       :     0.005353

----------------
ORBITAL ENERGIES
----------------
                 SPIN UP ORBITALS
  NO   OCC          E(Eh)            E(eV) 
   0   1.0000     -24.732865      -673.0155 
   1   1.0000     -24.731868      -672.9883 
   2   1.0000     -24.731791      -672.9862 
   3   1.0000     -24.731266      -672.9719 
   4   1.0000     -24.731250      -672.9715 
   5   1.0000     -24.730977      -672.9641 
   6   1.0000     -24.730700      -672.9566 
   7   1.0000     -24.727456      -672.8683 
   8   1.0000     -24.727130      -672.8594 
   9   1.0000     -24.718558      -672.6262 
  10   1.0000     -24.717650      -672.6014 
  11   1.0000     -24.716493      -672.5700 
  12   1.0000     -24.689617      -671.8386 
  13   1.0000     -24.685783      -671.7343 
  14   1.0000     -19.076046      -519.0856 
  15   1.0000     -19.072448      -518.9877 
  16   1.0000     -10.444561      -284.2110 
  17   1.0000     -10.391048      -282.7548 
  18   1.0000     -10.390626      -282.7433 
  19   1.0000     -10.385326      -282.5991 
  20   1.0000     -10.377920      -282.3976 
  21   1.0000     -10.342414      -281.4314 
  22   1.0000     -10.303216      -280.3647 
  23   1.0000     -10.275881      -279.6209 
  24   1.0000      -1.354726       -36.8640 
  25   1.0000      -1.329337       -36.1731 
  26   1.0000      -1.313254       -35.7355 
  27   1.0000      -1.307597       -35.5815 
  28   1.0000      -1.300310       -35.3832 
  29   1.0000      -1.269614       -34.5480 
  30   1.0000      -1.269150       -34.5353 
  31   1.0000      -1.263439       -34.3799 
  32   1.0000      -1.261926       -34.3387 
  33   1.0000      -1.255127       -34.1537 
  34   1.0000      -1.254893       -34.1474 
  35   1.0000      -1.251949       -34.0673 
  36   1.0000      -1.244341       -33.8602 
  37   1.0000      -1.206323       -32.8257 
  38   1.0000      -0.962772       -26.1984 
  39   1.0000      -0.903112       -24.5749 
  40   1.0000      -0.843082       -22.9414 
  41   1.0000      -0.819874       -22.3099 
  42   1.0000      -0.789952       -21.4957 
  43   1.0000      -0.746865       -20.3232 
  44   1.0000      -0.703988       -19.1565 
  45   1.0000      -0.677612       -18.4388 
  46   1.0000      -0.653454       -17.7814 
  47   1.0000      -0.635791       -17.3008 
  48   1.0000      -0.631016       -17.1708 
  49   1.0000      -0.625461       -17.0197 
  50   1.0000      -0.613168       -16.6851 
  51   1.0000      -0.608110       -16.5475 
  52   1.0000      -0.604737       -16.4557 
  53   1.0000      -0.593228       -16.1425 
  54   1.0000      -0.590644       -16.0722 
  55   1.0000      -0.576929       -15.6990 
  56   1.0000      -0.575699       -15.6656 
  57   1.0000      -0.565887       -15.3986 
  58   1.0000      -0.560434       -15.2502 
  59   1.0000      -0.545970       -14.8566 
  60   1.0000      -0.538393       -14.6504 
  61   1.0000      -0.500755       -13.6262 
  62   1.0000      -0.497384       -13.5345 
  63   1.0000      -0.493293       -13.4232 
  64   1.0000      -0.490653       -13.3513 
  65   1.0000      -0.486007       -13.2249 
  66   1.0000      -0.483564       -13.1584 
  67   1.0000      -0.478772       -13.0281 
  68   1.0000      -0.471827       -12.8391 
  69   1.0000      -0.469652       -12.7799 
  70   1.0000      -0.462026       -12.5724 
  71   1.0000      -0.460440       -12.5292 
  72   1.0000      -0.455136       -12.3849 
  73   1.0000      -0.452351       -12.3091 
  74   1.0000      -0.448428       -12.2024 
  75   1.0000      -0.441830       -12.0228 
  76   1.0000      -0.438162       -11.9230 
  77   1.0000      -0.437355       -11.9010 
  78   1.0000      -0.433174       -11.7873 
  79   1.0000      -0.428885       -11.6706 
  80   1.0000      -0.428157       -11.6507 
  81   1.0000      -0.426877       -11.6159 
  82   1.0000      -0.424439       -11.5496 
  83   1.0000      -0.420212       -11.4345 
  84   1.0000      -0.415780       -11.3140 
  85   1.0000      -0.404867       -11.0170 
  86   1.0000      -0.398900       -10.8546 
  87   1.0000      -0.387558       -10.5460 
  88   1.0000      -0.376501       -10.2451 
  89   1.0000      -0.358322        -9.7504 
  90   1.0000      -0.340330        -9.2608 
  91   1.0000      -0.326540        -8.8856 
  92   1.0000      -0.277385        -7.5480 
  93   1.0000      -0.240844        -6.5537 
  94   1.0000      -0.232702        -6.3321 
  95   1.0000      -0.227165        -6.1815 
  96   0.0000      -0.025112        -0.6833 
  97   0.0000      -0.019497        -0.5306 
  98   0.0000      -0.000782        -0.0213 
  99   0.0000       0.037577         1.0225 
 100   0.0000       0.045690         1.2433 
 101   0.0000       0.089851         2.4450 
 102   0.0000       0.091866         2.4998 
 103   0.0000       0.109778         2.9872 
 104   0.0000       0.114732         3.1220 
 105   0.0000       0.122851         3.3429 
 106   0.0000       0.127358         3.4656 

                 SPIN DOWN ORBITALS
  NO   OCC          E(Eh)            E(eV) 
   0   1.0000     -24.732865      -673.0155 
   1   1.0000     -24.731868      -672.9883 
   2   1.0000     -24.731789      -672.9862 
   3   1.0000     -24.731261      -672.9718 
   4   1.0000     -24.731251      -672.9716 
   5   1.0000     -24.730980      -672.9642 
   6   1.0000     -24.730700      -672.9566 
   7   1.0000     -24.727355      -672.8655 
   8   1.0000     -24.727127      -672.8593 
   9   1.0000     -24.717648      -672.6014 
  10   1.0000     -24.716874      -672.5803 
  11   1.0000     -24.712020      -672.4483 
  12   1.0000     -24.688512      -671.8086 
  13   1.0000     -24.685576      -671.7287 
  14   1.0000     -19.075535      -519.0717 
  15   1.0000     -19.072414      -518.9868 
  16   1.0000     -10.444563      -284.2110 
  17   1.0000     -10.391056      -282.7550 
  18   1.0000     -10.390631      -282.7434 
  19   1.0000     -10.385387      -282.6008 
  20   1.0000     -10.377708      -282.3918 
  21   1.0000     -10.342478      -281.4331 
  22   1.0000     -10.285650      -279.8868 
  23   1.0000     -10.275798      -279.6187 
  24   1.0000      -1.354726       -36.8640 
  25   1.0000      -1.329174       -36.1687 
  26   1.0000      -1.312849       -35.7244 
  27   1.0000      -1.307485       -35.5785 
  28   1.0000      -1.299133       -35.3512 
  29   1.0000      -1.269167       -34.5358 
  30   1.0000      -1.264165       -34.3997 
  31   1.0000      -1.263439       -34.3799 
  32   1.0000      -1.261844       -34.3365 
  33   1.0000      -1.254795       -34.1447 
  34   1.0000      -1.251878       -34.0653 
  35   1.0000      -1.251190       -34.0466 
  36   1.0000      -1.242790       -33.8180 
  37   1.0000      -1.204834       -32.7852 
  38   1.0000      -0.962247       -26.1841 
  39   1.0000      -0.902594       -24.5608 
  40   1.0000      -0.842476       -22.9249 
  41   1.0000      -0.813870       -22.1465 
  42   1.0000      -0.779086       -21.2000 
  43   1.0000      -0.743460       -20.2306 
  44   1.0000      -0.702730       -19.1223 
  45   1.0000      -0.676473       -18.4078 
  46   1.0000      -0.647845       -17.6288 
  47   1.0000      -0.635218       -17.2852 
  48   1.0000      -0.629846       -17.1390 
  49   1.0000      -0.625380       -17.0174 
  50   1.0000      -0.612943       -16.6790 
  51   1.0000      -0.606834       -16.5128 
  52   1.0000      -0.603559       -16.4237 
  53   1.0000      -0.592412       -16.1204 
  54   1.0000      -0.589147       -16.0315 
  55   1.0000      -0.576066       -15.6755 
  56   1.0000      -0.570656       -15.5283 
  57   1.0000      -0.564906       -15.3719 
  58   1.0000      -0.557122       -15.1601 
  59   1.0000      -0.542068       -14.7504 
  60   1.0000      -0.534790       -14.5524 
  61   1.0000      -0.500635       -13.6230 
  62   1.0000      -0.496001       -13.4969 
  63   1.0000      -0.490513       -13.3475 
  64   1.0000      -0.487145       -13.2559 
  65   1.0000      -0.484032       -13.1712 
  66   1.0000      -0.479359       -13.0440 
  67   1.0000      -0.471689       -12.8353 
  68   1.0000      -0.469694       -12.7810 
  69   1.0000      -0.467244       -12.7144 
  70   1.0000      -0.461654       -12.5622 
  71   1.0000      -0.457240       -12.4421 
  72   1.0000      -0.452476       -12.3125 
  73   1.0000      -0.449784       -12.2393 
  74   1.0000      -0.448330       -12.1997 
  75   1.0000      -0.439962       -11.9720 
  76   1.0000      -0.437969       -11.9178 
  77   1.0000      -0.437155       -11.8956 
  78   1.0000      -0.432598       -11.7716 
  79   1.0000      -0.428442       -11.6585 
  80   1.0000      -0.426860       -11.6155 
  81   1.0000      -0.424340       -11.5469 
  82   1.0000      -0.420954       -11.4547 
  83   1.0000      -0.418461       -11.3869 
  84   1.0000      -0.415073       -11.2947 
  85   1.0000      -0.402419       -10.9504 
  86   1.0000      -0.397915       -10.8278 
  87   1.0000      -0.385065       -10.4782 
  88   1.0000      -0.376003       -10.2316 
  89   1.0000      -0.355864        -9.6836 
  90   1.0000      -0.339525        -9.2389 
  91   1.0000      -0.322623        -8.7790 
  92   1.0000      -0.240275        -6.5382 
  93   1.0000      -0.232266        -6.3203 
  94   1.0000      -0.227194        -6.1823 
  95   0.0000      -0.115194        -3.1346 
  96   0.0000      -0.021446        -0.5836 
  97   0.0000      -0.016464        -0.4480 
  98   0.0000       0.000289         0.0079 
  99   0.0000       0.041345         1.1251 
 100   0.0000       0.052200         1.4204 
 101   0.0000       0.091079         2.4784 
 102   0.0000       0.096798         2.6340 
 103   0.0000       0.111175         3.0252 
 104   0.0000       0.116959         3.1826 
 105   0.0000       0.127590         3.4719 
*Only the first 10 virtual orbitals were printed.

                    ********************************
                    * MULLIKEN POPULATION ANALYSIS *
                    ********************************

--------------------------------------------
MULLIKEN ATOMIC CHARGES AND SPIN POPULATIONS
--------------------------------------------
   0 C :    0.243125    0.000146
   1 O :   -0.562150    0.000908
   2 O :   -0.567848    0.015257
   3 C :    0.412152   -0.013124
   4 C :    0.082122    0.866167
   5 C :    0.366330    0.005243
   6 C :    0.328262   -0.005400
   7 C :    0.300008   -0.000311
   8 C :    0.332360   -0.000174
   9 C :    0.470643   -0.000047
  10 F :   -0.204576    0.003822
  11 F :   -0.213719    0.021554
  12 F :   -0.173673    0.075244
  13 F :   -0.180117   -0.000624
  14 F :   -0.171644    0.030458
  15 F :   -0.169752    0.000180
  16 F :   -0.169554    0.000673
  17 F :   -0.165872    0.000068
  18 F :   -0.165675   -0.000024
  19 F :   -0.164453    0.000008
  20 F :   -0.161110   -0.000006
  21 F :   -0.156717    0.000002
  22 F :   -0.153613   -0.000017
  23 F :   -0.154528   -0.000001
Sum of atomic charges         :   -1.0000000
Sum of atomic spin populations:    1.0000000

-----------------------------------------------------
MULLIKEN REDUCED ORBITAL CHARGES AND SPIN POPULATIONS
-----------------------------------------------------
CHARGE
  0 C s       :     3.147652  s :     3.147652
      pz      :     0.830906  p :     2.400879
      px      :     0.859058
      py      :     0.710914
      dz2     :     0.013053  d :     0.192042
      dxz     :     0.014647
      dyz     :     0.056510
      dx2y2   :     0.050086
      dxy     :     0.057745
      f0      :     0.001654  f :     0.016302
      f+1     :     0.001032
      f-1     :     0.002052
      f+2     :     0.002412
      f-2     :     0.001616
      f+3     :     0.003621
      f-3     :     0.003914

  1 O s       :     3.875742  s :     3.875742
      pz      :     1.599568  p :     4.662178
      px      :     1.635088
      py      :     1.427522
      dz2     :     0.003062  d :     0.022998
      dxz     :     0.001643
      dyz     :     0.005258
      dx2y2   :     0.005468
      dxy     :     0.007567
      f0      :     0.000110  f :     0.001231
      f+1     :     0.000055
      f-1     :     0.000171
      f+2     :     0.000115
      f-2     :     0.000186
      f+3     :     0.000355
      f-3     :     0.000240

  2 O s       :     3.875703  s :     3.875703
      pz      :     1.622870  p :     4.667346
      px      :     1.738671
      py      :     1.305805
      dz2     :     0.003088  d :     0.023547
      dxz     :     0.000294
      dyz     :     0.006048
      dx2y2   :     0.008753
      dxy     :     0.005364
      f0      :     0.000116  f :     0.001252
      f+1     :     0.000015
      f-1     :     0.000222
      f+2     :     0.000208
      f-2     :     0.000032
      f+3     :     0.000285
      f-3     :     0.000374

  3 C s       :     3.087658  s :     3.087658
      pz      :     0.656610  p :     2.225681
      px      :     0.938073
      py      :     0.630999
      dz2     :     0.044722  d :     0.250238
      dxz     :     0.051655
      dyz     :     0.061098
      dx2y2   :     0.043104
      dxy     :     0.049659
      f0      :     0.005160  f :     0.024271
      f+1     :     0.003567
      f-1     :     0.003691
      f+2     :     0.003315
      f-2     :     0.002017
      f+3     :     0.003542
      f-3     :     0.002979

  4 C s       :     3.300767  s :     3.300767
      pz      :     0.897153  p :     2.460581
      px      :     0.925967
      py      :     0.637461
      dz2     :     0.026152  d :     0.141510
      dxz     :     0.015592
      dyz     :     0.025226
      dx2y2   :     0.028935
      dxy     :     0.045605
      f0      :     0.000878  f :     0.015020
      f+1     :     0.000925
      f-1     :     0.003614
      f+2     :     0.001642
      f-2     :     0.002479
      f+3     :     0.003239
      f-3     :     0.002243

  5 C s       :     3.139072  s :     3.139072
      pz      :     0.577908  p :     2.181070
      px      :     0.898103
      py      :     0.705059
      dz2     :     0.071566  d :     0.286442
      dxz     :     0.064051
      dyz     :     0.060994
      dx2y2   :     0.032704
      dxy     :     0.057127
      f0      :     0.004902  f :     0.027086
      f+1     :     0.004156
      f-1     :     0.005886
      f+2     :     0.003096
      f-2     :     0.004381
      f+3     :     0.002507
      f-3     :     0.002157

  6 C s       :     3.141912  s :     3.141912
      pz      :     0.574929  p :     2.218820
      px      :     0.922544
      py      :     0.721346
      dz2     :     0.080360  d :     0.283974
      dxz     :     0.060660
      dyz     :     0.054057
      dx2y2   :     0.031915
      dxy     :     0.056982
      f0      :     0.005920  f :     0.027032
      f+1     :     0.003813
      f-1     :     0.004196
      f+2     :     0.003941
      f-2     :     0.005133
      f+3     :     0.002106
      f-3     :     0.001922

  7 C s       :     3.147801  s :     3.147801
      pz      :     0.588097  p :     2.239452
      px      :     0.940978
      py      :     0.710377
      dz2     :     0.074453  d :     0.285688
      dxz     :     0.060979
      dyz     :     0.060727
      dx2y2   :     0.032126
      dxy     :     0.057402
      f0      :     0.004572  f :     0.027051
      f+1     :     0.004273
      f-1     :     0.006315
      f+2     :     0.002928
      f-2     :     0.004204
      f+3     :     0.002625
      f-3     :     0.002134

  8 C s       :     3.110351  s :     3.110351
      pz      :     0.616946  p :     2.247940
      px      :     0.941452
      py      :     0.689542
      dz2     :     0.058923  d :     0.282233
      dxz     :     0.059827
      dyz     :     0.071972
      dx2y2   :     0.033223
      dxy     :     0.058288
      f0      :     0.003467  f :     0.027117
      f+1     :     0.004904
      f-1     :     0.008105
      f+2     :     0.002099
      f-2     :     0.002373
      f+3     :     0.003744
      f-3     :     0.002424

  9 C s       :     3.030846  s :     3.030846
      pz      :     0.646634  p :     2.107974
      px      :     0.802547
      py      :     0.658793
      dz2     :     0.066656  d :     0.351234
      dxz     :     0.068472
      dyz     :     0.085443
      dx2y2   :     0.063448
      dxy     :     0.067215
      f0      :     0.004505  f :     0.039303
      f+1     :     0.007836
      f-1     :     0.008787
      f+2     :     0.004346
      f-2     :     0.003044
      f+3     :     0.007308
      f-3     :     0.003477

 10 F s       :     3.922711  s :     3.922711
      pz      :     1.902283  p :     5.266353
      px      :     1.888009
      py      :     1.476062
      dz2     :     0.002090  d :     0.014898
      dxz     :     0.000320
      dyz     :     0.002790
      dx2y2   :     0.005662
      dxy     :     0.004036
      f0      :     0.000047  f :     0.000614
      f+1     :     0.000015
      f-1     :     0.000119
      f+2     :     0.000070
      f-2     :     0.000018
      f+3     :     0.000168
      f-3     :     0.000176

 11 F s       :     3.926925  s :     3.926925
      pz      :     1.495536  p :     5.271953
      px      :     1.903652
      py      :     1.872765
      dz2     :     0.006340  d :     0.014252
      dxz     :     0.003489
      dyz     :     0.003484
      dx2y2   :     0.000479
      dxy     :     0.000460
      f0      :     0.000206  f :     0.000590
      f+1     :     0.000136
      f-1     :     0.000166
      f+2     :     0.000038
      f-2     :     0.000038
      f+3     :     0.000003
      f-3     :     0.000003

 12 F s       :     3.930523  s :     3.930523
      pz      :     1.773339  p :     5.225956
      px      :     1.908292
      py      :     1.544326
      dz2     :     0.002383  d :     0.016527
      dxz     :     0.000756
      dyz     :     0.005401
      dx2y2   :     0.004735
      dxy     :     0.003251
      f0      :     0.000068  f :     0.000668
      f+1     :     0.000002
      f-1     :     0.000137
      f+2     :     0.000169
      f-2     :     0.000059
      f+3     :     0.000105
      f-3     :     0.000130

 13 F s       :     3.927965  s :     3.927965
      pz      :     1.706435  p :     5.235012
      px      :     1.902130
      py      :     1.626447
      dz2     :     0.002700  d :     0.016457
      dxz     :     0.001609
      dyz     :     0.006501
      dx2y2   :     0.003065
      dxy     :     0.002583
      f0      :     0.000076  f :     0.000684
      f+1     :     0.000014
      f-1     :     0.000184
      f+2     :     0.000188
      f-2     :     0.000103
      f+3     :     0.000060
      f-3     :     0.000060

 14 F s       :     3.926893  s :     3.926893
      pz      :     1.503529  p :     5.227630
      px      :     1.899777
      py      :     1.824325
      dz2     :     0.006742  d :     0.016435
      dxz     :     0.003340
      dyz     :     0.004902
      dx2y2   :     0.000621
      dxy     :     0.000829
      f0      :     0.000227  f :     0.000685
      f+1     :     0.000109
      f-1     :     0.000231
      f+2     :     0.000050
      f-2     :     0.000060
      f+3     :     0.000005
      f-3     :     0.000004

 15 F s       :     3.929108  s :     3.929108
      pz      :     1.590175  p :     5.223313
      px      :     1.898909
      py      :     1.734228
      dz2     :     0.004552  d :     0.016644
      dxz     :     0.002657
      dyz     :     0.006300
      dx2y2   :     0.001546
      dxy     :     0.001589
      f0      :     0.000118  f :     0.000688
      f+1     :     0.000056
      f-1     :     0.000251
      f+2     :     0.000122
      f-2     :     0.000102
      f+3     :     0.000021
      f-3     :     0.000018

 16 F s       :     3.930284  s :     3.930284
      pz      :     1.600849  p :     5.221935
      px      :     1.899334
      py      :     1.721752
      dz2     :     0.004321  d :     0.016642
      dxz     :     0.002546
      dyz     :     0.006405
      dx2y2   :     0.001695
      dxy     :     0.001675
      f0      :     0.000111  f :     0.000692
      f+1     :     0.000050
      f-1     :     0.000249
      f+2     :     0.000132
      f-2     :     0.000105
      f+3     :     0.000024
      f-3     :     0.000022

 17 F s       :     3.929998  s :     3.929998
      pz      :     1.715297  p :     5.218406
      px      :     1.899599
      py      :     1.603510
      dz2     :     0.002621  d :     0.016776
      dxz     :     0.001548
      dyz     :     0.006556
      dx2y2   :     0.003366
      dxy     :     0.002684
      f0      :     0.000078  f :     0.000692
      f+1     :     0.000010
      f-1     :     0.000176
      f+2     :     0.000195
      f-2     :     0.000100
      f+3     :     0.000065
      f-3     :     0.000068

 18 F s       :     3.929799  s :     3.929799
      pz      :     1.490624  p :     5.218439
      px      :     1.898741
      py      :     1.829074
      dz2     :     0.007068  d :     0.016747
      dxz     :     0.003524
      dyz     :     0.004854
      dx2y2   :     0.000587
      dxy     :     0.000714
      f0      :     0.000239  f :     0.000690
      f+1     :     0.000117
      f-1     :     0.000227
      f+2     :     0.000045
      f-2     :     0.000056
      f+3     :     0.000004
      f-3     :     0.000003

 19 F s       :     3.929945  s :     3.929945
      pz      :     1.817805  p :     5.217167
[...]
      f+1     :     0.000000
      f-1     :     0.000000
      f+2     :    -0.000000
      f-2     :     0.000003
      f+3     :     0.000001
      f-3     :    -0.000000

 16 F s       :     0.000096  s :     0.000096
      pz      :    -0.000164  p :     0.000210
      px      :     0.000138
      py      :     0.000236
      dz2     :     0.000022  d :     0.000093
      dxz     :     0.000003
      dyz     :     0.000001
      dx2y2   :     0.000069
      dxy     :    -0.000001
      f0      :     0.000000  f :     0.000005
      f+1     :     0.000001
      f-1     :     0.000000
      f+2     :     0.000001
      f-2     :     0.000000
      f+3     :     0.000000
      f-3     :     0.000002

 17 F s       :     0.000037  s :     0.000037
      pz      :     0.000001  p :    -0.000011
      px      :     0.000001
      py      :    -0.000013
      dz2     :    -0.000000  d :     0.000012
      dxz     :     0.000009
      dyz     :     0.000004
      dx2y2   :     0.000004
      dxy     :    -0.000004
      f0      :    -0.000000  f :     0.000000
      f+1     :    -0.000000
      f-1     :     0.000000
      f+2     :     0.000000
      f-2     :     0.000000
      f+3     :     0.000000
      f-3     :     0.000000

 18 F s       :     0.000004  s :     0.000004
      pz      :    -0.000037  p :     0.000115
      px      :     0.000069
      py      :     0.000084
      dz2     :     0.000001  d :     0.000018
      dxz     :     0.000004
      dyz     :     0.000006
      dx2y2   :     0.000007
      dxy     :    -0.000000
      f0      :    -0.000000  f :     0.000001
      f+1     :     0.000000
      f-1     :     0.000000
      f+2     :     0.000000
      f-2     :     0.000000
      f+3     :    -0.000000
      f-3     :     0.000000

 19 F s       :     0.000003  s :     0.000003
      pz      :    -0.000006  p :    -0.000013
      px      :    -0.000002
      py      :    -0.000004
      dz2     :     0.000001  d :     0.000004
      dxz     :     0.000000
      dyz     :    -0.000000
      dx2y2   :     0.000002
      dxy     :     0.000001
      f0      :    -0.000000  f :     0.000000
      f+1     :    -0.000000
      f-1     :    -0.000000
      f+2     :    -0.000000
      f-2     :     0.000000
      f+3     :     0.000000
      f-3     :     0.000000

 20 F s       :     0.000002  s :     0.000002
      pz      :    -0.000008  p :     0.000052
      px      :     0.000035
      py      :     0.000025
      dz2     :     0.000001  d :     0.000006
      dxz     :     0.000003
      dyz     :     0.000002
      dx2y2   :    -0.000000
      dxy     :     0.000000
      f0      :     0.000000  f :     0.000000
      f+1     :     0.000000
      f-1     :     0.000000
      f+2     :    -0.000000
      f-2     :     0.000000
      f+3     :    -0.000000
      f-3     :    -0.000000

 21 F s       :    -0.000000  s :    -0.000000
      pz      :     0.000000  p :    -0.000006
      px      :     0.000001
      py      :    -0.000007
      dz2     :     0.000000  d :     0.000001
      dxz     :     0.000000
      dyz     :     0.000000
      dx2y2   :     0.000001
      dxy     :    -0.000000
      f0      :     0.000000  f :     0.000000
      f+1     :    -0.000000
      f-1     :     0.000000
      f+2     :     0.000000
      f-2     :     0.000000
      f+3     :     0.000000
      f-3     :     0.000000

 22 F s       :     0.000005  s :     0.000005
      pz      :     0.000006  p :     0.000078
      px      :     0.000070
      py      :     0.000002
      dz2     :     0.000001  d :     0.000004
      dxz     :     0.000000
      dyz     :     0.000000
      dx2y2   :     0.000003
      dxy     :     0.000000
      f0      :     0.000000  f :     0.000000
      f+1     :     0.000000
      f-1     :     0.000000
      f+2     :    -0.000000
      f-2     :     0.000000
      f+3     :     0.000000
      f-3     :     0.000000

 23 F s       :     0.000000  s :     0.000000
      pz      :    -0.000000  p :     0.000005
      px      :    -0.000001
      py      :     0.000006
      dz2     :     0.000001  d :     0.000002
      dxz     :     0.000000
      dyz     :     0.000000
      dx2y2   :     0.000000
      dxy     :     0.000000
      f0      :     0.000000  f :     0.000000
      f+1     :     0.000000
      f-1     :     0.000000
      f+2     :     0.000000
      f-2     :     0.000000
      f+3     :    -0.000000
      f-3     :    -0.000000



                      *****************************
                      * MAYER POPULATION ANALYSIS *
                      *****************************

  NA   - Mulliken gross atomic population
  ZA   - Total nuclear charge
  QA   - Mulliken gross atomic charge
  VA   - Mayer's total valence
  BVA  - Mayer's bonded valence
  FA   - Mayer's free valence

  ATOM       NA         ZA         QA         VA         BVA        FA
  0 C      5.7914     6.0000     0.2086     4.5746     4.5738     0.0009
  1 O      8.5013     8.0000    -0.5013     1.9796     1.9781     0.0015
  2 O      8.5191     8.0000    -0.5191     1.9442     1.9440     0.0002
  3 C      5.6201     6.0000     0.3799     3.9328     3.9296     0.0033
  4 C      5.9223     6.0000     0.0777     3.8987     3.3034     0.5953
  5 C      5.6327     6.0000     0.3673     4.1670     4.1644     0.0026
  6 C      5.6794     6.0000     0.3206     4.1410     4.1409     0.0002
  7 C      5.6992     6.0000     0.3008     4.1840     4.1840     0.0000
  8 C      5.6715     6.0000     0.3285     4.2077     4.2077     0.0000
  9 C      5.5293     6.0000     0.4707     4.4689     4.4689     0.0000
 10 F      9.2143     9.0000    -0.2143     1.0557     1.0555     0.0003
 11 F      9.2173     9.0000    -0.2173     1.0500     1.0500     0.0000
 12 F      9.1742     9.0000    -0.1742     1.1430     1.1345     0.0085
 13 F      9.1854     9.0000    -0.1854     1.1162     1.1161     0.0001
 14 F      9.1878     9.0000    -0.1878     1.1041     1.1030     0.0010
 15 F      9.1721     9.0000    -0.1721     1.1445     1.1445     0.0000
 16 F      9.1624     9.0000    -0.1624     1.1605     1.1605     0.0000
 17 F      9.1647     9.0000    -0.1647     1.1577     1.1577     0.0000
 18 F      9.1656     9.0000    -0.1656     1.1541     1.1541     0.0000
 19 F      9.1637     9.0000    -0.1637     1.1580     1.1580     0.0000
 20 F      9.1612     9.0000    -0.1612     1.1586     1.1586     0.0000
 21 F      9.1564     9.0000    -0.1564     1.1643     1.1643     0.0000
 22 F      9.1542     9.0000    -0.1542     1.1630     1.1630     0.0000
 23 F      9.1543     9.0000    -0.1543     1.1657     1.1657     0.0000

  Mayer bond orders larger than 0.100000
B(  0-C ,  1-O ) :   1.8361 B(  0-C ,  2-O ) :   1.8100 B(  0-C ,  3-C ) :   0.8624 
B(  3-C ,  4-C ) :   0.9927 B(  3-C , 10-F ) :   1.0340 B(  3-C , 11-F ) :   1.0017 
B(  4-C ,  5-C ) :   1.0561 B(  4-C , 12-F ) :   1.0715 B(  5-C ,  6-C ) :   0.9133 
B(  5-C , 13-F ) :   1.0400 B(  5-C , 14-F ) :   1.0438 B(  6-C ,  7-C ) :   0.9205 
B(  6-C , 15-F ) :   1.0644 B(  6-C , 16-F ) :   1.0926 B(  7-C ,  8-C ) :   0.9323 
B(  7-C , 17-F ) :   1.0851 B(  7-C , 18-F ) :   1.0902 B(  8-C ,  9-C ) :   0.9539 
B(  8-C , 19-F ) :   1.0831 B(  8-C , 20-F ) :   1.0965 B(  9-C , 21-F ) :   1.1291 
B(  9-C , 22-F ) :   1.1327 B(  9-C , 23-F ) :   1.1426 

-------
TIMINGS
-------

Total SCF time: 0 days 0 hours 0 min 43 sec 

Total time                  ....      43.381 sec
Sum of individual times     ....      42.696 sec  ( 98.4%)

SCF preparation             ....       1.328 sec  (  3.1%)
Fock matrix formation       ....      35.088 sec  ( 80.9%)
  Startup                   ....       0.208 sec  (  0.6% of F)
  Split-RI-J                ....       2.348 sec  (  6.7% of F)
  Chain of spheres X        ....      22.257 sec  ( 63.4% of F)
  XC integration            ....       7.877 sec  ( 22.4% of F)
    Basis function eval.    ....       0.529 sec  (  6.7% of XC)
    Density eval.           ....       2.476 sec  ( 31.4% of XC)
    XC-Functional eval.     ....       0.158 sec  (  2.0% of XC)
    XC-Potential eval.      ....       2.382 sec  ( 30.2% of XC)
  CPCM terms                ....       2.026 sec  (  5.8% of F)
Diagonalization             ....       0.000 sec  (  0.0%)
Density matrix formation    ....       0.381 sec  (  0.9%)
Total Energy calculation    ....       0.266 sec  (  0.6%)
Population analysis         ....       0.557 sec  (  1.3%)
Orbital Transformation      ....       0.974 sec  (  2.2%)
Orbital Orthonormalization  ....       0.000 sec  (  0.0%)
DIIS solution               ....       2.412 sec  (  5.6%)
SOSCF solution              ....       1.689 sec  (  3.9%)
Finished LeanSCF after  43.8 sec

Maximum memory used throughout the entire LEANSCF-calculation: 106.4 MB


-------------------------------------------------------------------------------
                          DFT DISPERSION CORRECTION                            
                                                                               
                              DFTD3 V3.1  Rev 1                                
                          USING Becke-Johnson damping                          
-------------------------------------------------------------------------------
The R2SCANh functional is recognized
Active option DFTDOPT                   ...         4   

molecular C6(AA) [au] = 6297.679255 


            DFT-D V3
 parameters
 s6 scaling factor         :     1.0000 
 a1 scaling factor         :     0.4709 
 s8 scaling factor         :     1.1236 
 a2 scaling factor         :     5.9157 
 ad hoc parameters k1-k3   :    16.0000     1.3333    -4.0000 

 Edisp/kcal,au: -5.207957304081  -0.008299407362 
 E6   /kcal   :  -3.792610527 
 E8   /kcal   :  -1.415346777 
 % E8         :  27.176620200 

-------------------------   ----------------
Dispersion correction           -0.008299407
-------------------------   ----------------


-------------------------   --------------------
FINAL SINGLE POINT ENERGY     -1853.114513581626
-------------------------   --------------------

                                *** OPTIMIZATION RUN DONE ***



           ************************************************************
           *        Program running with 20 parallel MPI-processes    *
           *              working on a common directory               *
           ************************************************************

------------------------------------------------------------------------------
                              ORCA PROPERTY CALCULATIONS
------------------------------------------------------------------------------

GBWName                                 ... rf_mecn_opt_r2s_C3_D_B.gbw
Number of atoms                         ...     24
Number of basis functions               ...    744
Max core memory                         ...   8000 MB

Electric properties:
Dipole moment                           ... YES
Quadrupole moment                       ...  NO
Static polarizability (Dipole/Dipole)   ...  NO
Static polarizability (Dipole/Quad.)    ...  NO
Static polarizability (Quad./Quad.)     ...  NO
Static polarizability (Velocity)        ...  NO

Atomic electric properties:
Dipole moment                           ...  NO
Quadrupole moment                       ...  NO
Static polarizability                   ...  NO

Choice of electric origin               ... Center of mass
Position of electric origin             ...    -0.266764    -0.066492     0.130687

General magnetic properties:
Magnetizability                         ...  NO

EPR properties:
g-Tensor (aka g-matrix)                 ...  NO
Zero-Field splitting spin-orbit         ...  NO
Zero-field splitting spin-spin          ...  NO
Hyperfine couplings                     ...  NO (   0 nuclei)
Quadrupole couplings                    ...  NO (   0 nuclei)
Contact density                         ...  NO (   0 nuclei)

NMR properties:
Chemical shifts                         ...  NO (   0 nuclei)
Spin-rotation constants                 ...  NO (   0 nuclei)
Spin-spin couplings                     ...  NO (   0 nuclei,    0 pairs)

Choice of magnetic origin               ... GIAO
Position of magnetic origin             ...     0.000000     0.000000     0.000000

Properties with geometric perturbations:
SCF Hessian                             ...  NO
IR spectrum                             ...  NO
VCD spectrum                            ...  NO
X-ray spectroscopy properties:
SCF XES/XAS/RIXS spectra                ...  NO


-------------
DIPOLE MOMENT
-------------

Method             : SCF
Type of density    : Electron Density
Multiplicity       :   2
Irrep              :   0
Energy             : -1853.1062141742643234 Eh
Relativity type    : 
Basis              : AO
                                X                 Y                 Z
Electronic contribution:    -14.170906171       0.454161459       4.940033065
Nuclear contribution   :      7.585640122      -0.127228182      -2.606788910
                        -----------------------------------------
Total Dipole Moment    :     -6.585266049       0.326933277       2.333244155
                        -----------------------------------------
Magnitude (a.u.)       :      6.994043365
Magnitude (Debye)      :     17.777445437



--------------------
Rotational spectrum 
--------------------
 
Rotational constants in cm-1:             0.018839             0.004455             0.004330 
Rotational constants in MHz :           564.790015           133.566575           129.798513 

Dipole components along the rotational axes: 
x,y,z [a.u.] :    -6.409087     2.691485    -0.772115 
x,y,z [Debye]:   -16.290604     6.841210    -1.962560 

 

Dipole moment calculation done in   0.1 sec 

Maximum memory used throughout the entire PROP-calculation: 55.0 MB

--------------------------------
SUGGESTED CITATIONS FOR THIS RUN
--------------------------------

Below you find a list of papers that are relevant to this ORCA run
We neither can nor want to force you to cite these papers, but we appreciate if you do
You receive ORCA, which is the product of decades of hard work by many enthusiastic individuals, for free
The only thing we kindly ask in return is that you cite our papers,
We deeply appreciate it, if you show your appreciation for ORCA by not just citing the generic ORCA reference.

Please note that relegating all ORCA citations to the supporting information does *not* help us.
SI sections are not indexed - citations you put there will not count into any citation statistics
But we need these citations in order to attract the funding resources that allow us to do what we are doing

Therefore, if you are a happy ORCA user, please consider citing a few of the papers listed below in the main body of your paper

In addition to the list printed below, the program has created the file rf_mecn_opt_r2s_C3_D_B.bibtex that contains the list in bibtex format
You can import this file easily into all common literature databanks and citation aid programs


List of essential papers. We consider these as the minimum necessary citations

  1. Neese,F.
     Software update: the ORCA program system, version 5.0
     WIRES Comput. Molec. Sci., 2022 12(1)e1606
     doi.org/10.1002/wcms.1606

List of papers to cite with high priority. The work reported in these papers was absolutely
necessary for this run to complete.
Our perspective: the developers of density functionals and basis sets usually get cited in chemistry papers
Good! But without the algorithms to do something with them, the functionals or basis sets would not do anything.
Hence, in our opinion, the algorithm design and method developments papers are equally worthy of getting cited

  1. Neese,F.
     An improvement of the resolution of the identity approximation for the formation of the Coulomb matrix
     J. Comp. Chem., 2003 24(14)1740-1747
     doi.org/10.1002/jcc.10318
  2. Neese,F.; Wennmohs,F.; Hansen,A.; Becker,U.
     Efficient, approximate and parallel Hartree-Fock and hybrid DFT calculations. A 'chain-of-spheres' algorithm for the Hartree-Fock exchange
     Chem. Phys., 2009 356(1-3)98-109
     doi.org/10.1016/j.chemphys.2008.10.036
  3. Garcia-Rates,M.; Neese,F.
     Effect of the Solute Cavity on the Solvation Energy and its Derivatives within the Framework of the Gaussian Charge Scheme
     J. Comput. Chem., 2020 41 922-939
     doi.org/10.1002/jcc.26139
  4. Helmich-Paris,B.; de Souza,B.; Neese,F.; Izsák,R.
     An improved chain of spheres for exchange algorithm
     J. Chem. Phys., 2021 155 104109
     doi.org/doi: 10.1063/5.0058766.
  5. Neese,F.
     The SHARK Integral Generation and Digestion System
     J. Comp. Chem., 2022  1-16
     doi.org/10.1002/jcc.26942
  6. Lehtola,S.; Steigemann,C.; Oliveira,M.; Marques,M.
     Recent developments in Libxc - A comprehensive library of functionals for density functional theory
     Software X, 2018 7 
     doi.org/10.1016/j.softx.2017.11.002
  7. Grimme,S.; Antony,J.; Ehrlich,S.; Krieg,H.
     A consistent and accurate ab initio parametrization of density functional dispersion correction (DFT-D) for the 94 elements H-Pu
     J. Chem. Phys., 2010 132 154104
     doi.org/10.1063/1.3382344
  8. Grimme,S.; Ehrlich,S.; Goerigk,L.
     Effect of the damping function in dispersion corrected density functional theory
     J. Comput. Chem., 2011 32(7)1456-1465
     doi.org/10.1002/jcc.21759
  9. Bursch,M.; Neugebauer,H.; Ehlert,S.; Grimme,S.
     Dispersion corrected r2SCAN based global hybrid functionals: r2SCANh, r2SCAN0, and r2SCAN50
     J. Phys. Chem., 2022 156(13)134105
     doi.org/10.1063/5.0086040

List of suggested additional citations. These are papers that are important in the 'surrounding' of 
of this run, or papers that preceded the highly important papers. If you like your results we are grateful for a citation.

  1. Izsak,R.; Neese,F.
     An overlap fitted chain of spheres exchange method
     J. Chem. Phys., 2011 135 144105
     doi.org/10.1063/1.3646921
  2. Izsak,R.; Hansen,A.; Neese,F.
     The resolution of identity and chain of spheres approximations for the LPNO-CCSD singles Fock term
     Molec. Phys., 2012 110 2413-2417
     doi.org/10.1080/00268976.2012.687466
  3. Neese,F.
     The ORCA program system
     WIRES Comput. Molec. Sci., 2012 2(1)73-78
     doi.org/10.1002/wcms.81
  4. Izsak,R.; Neese,F.; Klopper,W.
     Robust fitting techniques in the chain of spheres approximation to the Fock exchange: The role of the complementary space
     J. Chem. Phys., 2013 139 
     doi.org/10.1063/1.4819264
  5. Neese,F.
     Software update: the ORCA program system, version 4.0
     WIRES Comput. Molec. Sci., 2018 8(1)1-6
     doi.org/10.1002/wcms.1327
  6. Neese,F.; Wennmohs,F.; Becker,U.; Riplinger,C.
     The ORCA quantum chemistry program package
     J. Chem. Phys., 2020 152 Art. No. L224108
     doi.org/10.1063/5.0004608
  7. Wittmann,L.; Neugebauer,H.; Grimme,S.; Bursch,M.
     Dispersion-corrected r2SCAN based double-hybrid functionals
     J. Chem. Phys., 2023 159(22)224103
     doi.org/10.1063/5.0174988

List of optional additional citations

  1. Neese,F.
     Approximate second-order SCF convergence for spin unrestricted wavefunctions
     Chem. Phys. Lett., 2000 325(1-3)93-98
     doi.org/10.1016/s0009-2614(00)00662-x

Timings for individual modules:

Sum of individual times          ...     2272.921 sec (=  37.882 min)
Startup calculation              ...      103.628 sec (=   1.727 min)   4.6 %
SCF iterations                   ...     1662.759 sec (=  27.713 min)  73.2 %
Property calculations            ...        1.003 sec (=   0.017 min)   0.0 %
SCF Gradient evaluation          ...      505.118 sec (=   8.419 min)  22.2 %
Geometry relaxation              ...        0.412 sec (=   0.007 min)   0.0 %
                             ****ORCA TERMINATED NORMALLY****
TOTAL RUN TIME: 0 days 0 hours 38 minutes 10 seconds 341 msec
