
                                 *****************
                                 * O   R   C   A *
                                 *****************

                                            #,                                       
                                            ###                                      
                                            ####                                     
                                            #####                                    
                                            ######                                   
                                           ########,                                 
                                     ,,################,,,,,                         
                               ,,#################################,,                 
                          ,,##########################################,,             
                       ,#########################################, ''#####,          
                    ,#############################################,,   '####,        
                  ,##################################################,,,,####,       
                ,###########''''           ''''###############################       
              ,#####''   ,,,,##########,,,,          '''####'''          '####       
            ,##' ,,,,###########################,,,                        '##       
           ' ,,###''''                  '''############,,,                           
         ,,##''                                '''############,,,,        ,,,,,,###''
      ,#''                                            '''#######################'''  
     '                                                          ''''####''''         
             ,#######,   #######,   ,#######,      ##                                
            ,#'     '#,  ##    ##  ,#'     '#,    #''#        ,####,   ,####,        
            ##       ##  ##   ,#'  ##            #'  '#       #'       #'  '#        
            ##       ##  #######   ##           ,######,      #####,   #    #        
            '#,     ,#'  ##    ##  '#,     ,#' ,#      #,     #,   #   #,  ,#        
             '#######'   ##     ##  '#######'  #'      '#     '####' # '####'        



                #########################################################
                #                        -***-                          #
                #          Department of theory and spectroscopy        #
                #                                                       #
                #                      Frank Neese                      #
                #                                                       #
                #     Directorship, Architecture, Infrastructure        #
                #                    SHARK, DRIVERS                     #
                #        Core code/Algorithms in most modules           #
                #                                                       #
                #        Max Planck Institute fuer Kohlenforschung      #
                #                Kaiser Wilhelm Platz 1                 #
                #                 D-45470 Muelheim/Ruhr                 #
                #                      Germany                          #
                #                                                       #
                #                  All rights reserved                  #
                #                        -***-                          #
                #########################################################


                         Program Version 6.0.1  -  RELEASE   -


 With contributions from (in alphabetic order):
[Max-Planck-Institut fuer Kohlenforschung]                               
  Daniel Aravena         : Magnetic Suceptibility                        
  Michael Atanasov       : Ab Initio Ligand Field Theory (pilot matlab implementation)
  Alexander A. Auer      : GIAO ZORA, VPT2 properties, NMR spectrum      
  Ute Becker             : All parallelization in ORCA, NUMFREQ, NUMCALC 
  Giovanni Bistoni       : ED, misc. LED, open-shell LED, HFLD           
  Martin Brehm           : Molecular dynamics                            
  Dmytro Bykov           : pre 5.0 version of the SCF Hessian            
  Marcos Casanova-Páez   : Triplet and SCS-CIS(D). UHF-(DLPNO)-IP/EA/STEOM-CCSD. UHF-CVS-IP/STEOM-CCSD   
  Vijay G. Chilkuri      : MRCI spin determinant printing, contributions to CSF-ICE 
  Pauline Colinet        : FMM embedding                                 
  Dipayan Datta          : RHF DLPNO-CCSD density                        
  Achintya Kumar Dutta   : EOM-CC, STEOM-CC                              
  Nicolas Foglia         : Exact transition moments, OPA infrastructure, MCD improvements    
  Dmitry Ganyushin       : Spin-Orbit,Spin-Spin,Magnetic field MRCI      
  Miquel Garcia-Rates    : C-PCM and meta-GGA Hessian, CCSD/C-PCM, Gaussian charge scheme 
  Tiago L. C. Gouveia    : GS-ROHF, GS-ROCIS                             
  Yang Guo               : DLPNO-NEVPT2, F12-NEVPT2, CIM, IAO-localization        
  Andreas Hansen         : Spin unrestricted coupled pair/coupled cluster methods 
  Ingolf Harden          : AUTO-CI MPn and infrastructure                
  Benjamin Helmich-Paris : MC-RPA, TRAH-(SCF,CASSCF), AVAS, COSX integrals, SCF dyn. polar. 
  Lee Huntington         : MR-EOM, pCC                                   
  Robert Izsak           : Overlap fitted RIJCOSX, COSX-SCS-MP3, EOM     
  Riya Kayal             : Wick's Theorem for AUTO-CI, AUTO-CI UHF-CCSDT 
  Emily Kempfer          : AUTO-CI, RHF CISDT and CCSDT                  
  Christian Kollmar      : KDIIS, OOCD, Brueckner-CCSD(T), CCSD density, CASPT2, CASPT2-K, improved NEVPT2 
  Axel Koslowski         : Symmetry handling                             
  Simone Kossmann        : meta-GGA functionals, TD-DFT gradient, OOMP2, (MP2 Hessian; deprecated post 5.0) 
  Lucas Lang             : DCDCAS                                        
  Marvin Lechner         : AUTO-CI (C++ implementation), FIC-MRCC        
  Spencer Leger          : CASSCF response                               
  Dagmar Lenk            : GEPOL surface, SMD, ORCA-2-JSON               
  Dimitrios Liakos       : Extrapolation schemes; Compound Job, initial MDCI parallelization 
  Dimitrios Manganas     : Further ROCIS development; embedding schemes. LFT, Crystal Embedding 
  Dimitrios Pantazis     : SARC Basis sets                               
  Anastasios Papadopoulos: AUTO-CI, single reference methods and gradients 
  Taras Petrenko         : pre 6.0 DFT Hessian and TD-DFT gradient, (ASA, deprecated), ECA, 1-Electron XAS/XES, NRVS 
  Peter Pinski           : DLPNO-MP2, DLPNO-MP2 Gradient                 
  Christoph Reimann      : Effective Core Potentials                     
  Marius Retegan         : Local ZFS, SOC                                
  Christoph Riplinger    : Optimizer, TS searches, QM/MM, DLPNO-CCSD(T), (RO)-DLPNO pert. Triples 
  Michael Roemelt        : Original ROCIS implementation                 
  Masaaki Saitow         : Open-shell DLPNO-CCSD energy and density      
  Barbara Sandhoefer     : DKH picture change effects                    
  Kantharuban Sivalingam : CASSCF convergence/infrastructure, NEVPT2 and variants, FIC-MRCI 
  Bernardo de Souza      : ESD, SOC TD-DFT                               
  Georgi L. Stoychev     : AutoAux, RI-MP2 NMR, DLPNO-MP2 response, X2C  
  Van Anh Tran           : RI-MP2 g-tensors                              
  Willem Van den Heuvel  : Paramagnetic NMR                              
  Zikuan Wang            : NOTCH, Electric field optimization            
  Frank Wennmohs         : Technical directorship and infrastructure     
  Hang Xu                : AUTO-CI-Response properties                   
                                                                         
[FACCTs GmbH]                                                            
  Markus Bursch, Miquel Garcia-Rates, Christoph Riplinger, Bernardo de Souza, Georgi L. Stoychev 
                                                                 
  APM, Basis sets (HGBS, AHGBS, def-TZVP (Ac-Lr), def2-XVPD (La-Lu)), CI-OPT, improved COSX, DLPNO-Multilevel,           
  DOCKER, DRACO, updates on ESD, GOAT, IRC, LR-CPCM, MBIS, meta-GGA TD-DFT gradient, ML-optimized integration grids, 
  MM, NACMEs, nearIR, NEB, NEB-TS, NL-DFT gradient (VV10), 2- and 3-layer-ONIOM, interface openCOSMO-RS, QMMM,   
  Crystal-QMMM, SF, symmetry and pop. for TD-DFT, r2SCAN hybrids, SOLVATOR                                   
                                                                         
[Other institutions]                                                     
  V. Asgeirsson          : NEB                                           
  Christoph Bannwarth    : sTDA-DFT, sTD-DFT, PBEh-3c, B97-3c, D3        
  Sebastian Ehlert       : rSCAN, r2SCAN, r2SCAN-3c, D4, dhf basis sets  
  Marvin Friede          : D4 for Fr, Ra, Ac-Lr                          
  Lars Goerigk           : TD-DFT with DH, B97 family of functionals     
  Stefan Grimme          : VdW corrections, initial TS optimization, DFT functionals, gCP, sTDA/sTD-DF 
  Waldemar Hujo          : DFT-NL                                        
  H. Jonsson             : NEB                                           
  Holger Kruse           : gCP                                           
  Marcel Mueller         : wB97X-3c, vDZP basis set                      
  Hagen Neugebauer       : wr2SCAN                                       
  Tobias Risthaus        : range-separated hybrid DFT                    
  Lukas Wittmann         : regularized MP2, r2SCAN double-hybrids, wr2SCAN        
                                                                         
We gratefully acknowledge several colleagues who have allowed us to      
interface, adapt or use parts of their codes:                            
  Ed Valeev, F. Pavosevic, A. Kumar             : LibInt (2-el integral package), F12 methods 
  Garnet Chan, S. Sharma, J. Yang, R. Olivares  : DMRG                   
  Ulf Ekstrom                                   : XCFun DFT Library      
  Mihaly Kallay                                 : mrcc  (arbitrary order and MRCC methods)
  Frank Weinhold                                : gennbo (NPA and NBO analysis)           
  Simon Mueller                                 : openCOSMO-RS                            
  Christopher J. Cramer and Donald G. Truhlar   : smd solvation model                     
  S Lehtola, MJT Oliveira, MAL Marques          : LibXC Library                           
  Liviu Ungur et al                             : ANISO software                          


 Your calculation uses the libint2 library for the computation of 2-el integrals
 For citations please refer to: http://libint.valeyev.net

 Your ORCA version has been built with support for libXC version: 6.2.2
 For citations please refer to: https://libxc.gitlab.io

 This ORCA versions uses:
   CBLAS   interface :  Fast vector & matrix operations
   LAPACKE interface :  Fast linear algebra routines
   SCALAPACK package :  Parallel linear algebra routines
   Shared memory     :  Shared parallel matrices
   BLAS/LAPACK       :  OpenBLAS 0.3.27  USE64BITINT DYNAMIC_ARCH NO_AFFINITY SkylakeX SINGLE_THREADED
        Core in use  :  SkylakeX
   Copyright (c) 2011-2014, The OpenBLAS Project


NOTE: MaxCore=8000 MB was set to SCF,MP2,MDCI,CIPSI,MRCI and CIS
      => If you want to overwrite this, your respective input block should be placed after the MaxCore statement
Your calculation utilizes the atom-pairwise dispersion correction
with the Becke-Johnson damping scheme (D3BJ)


Your calculation utilizes the SMD solvation module
Please cite in your paper:
A.V. Marenich, C.J. Cramer, D.G. Truhlar J. Phys. Chem. B, 113, (2009), 6378 

Warning: RI is on but no J-basis has been assigned. Assigning Def2/J (nothing to worry about!)
================================================================================

----- Orbital basis set information -----
Your calculation utilizes the basis: def2-TZVP
   F. Weigend and R. Ahlrichs, Phys. Chem. Chem. Phys. 7, 3297 (2005).

----- AuxJ basis set information -----
Your calculation utilizes the auxiliary basis: def2/J
   F. Weigend, Phys. Chem. Chem. Phys. 8, 1057 (2006).

================================================================================
                                        WARNINGS
                       Please study these warnings very carefully!
================================================================================


WARNING: your system is open-shell and RHF/RKS was chosen
  ===> : WILL SWITCH to UHF/UKS


WARNING: Geometry Optimization
  ===> : Switching off AutoStart
         For restart on a previous wavefunction, please use MOREAD

================================================================================
                                       INPUT FILE
================================================================================
NAME = rf_mecn_opt_TP_P_A.inp
|  1> !TPSSh def2-TZVP opt d3 TightSCF SlowConv defgrid2
|  2>  
|  3> %pal
|  4> nprocs 20
|  5> end
|  6>  
|  7> %scf
|  8> MaxIter 1500
|  9> end
| 10>  
| 11> %maxcore 8000
| 12>  
| 13> !CPCM
| 14> %cpcm smd true
| 15> SMDsolvent "ACETONITRILE"
| 16> end
| 17>  
| 18> * xyz -1 2
| 19> 6        4.870906397      0.061888661     -0.237292510
| 20> 8        5.271940174     -0.267476354     -1.399541711
| 21> 8        5.203187478      1.337876105      0.278273556
| 22> 1        5.668158999      1.786076840     -0.446718784
| 23> 6        3.577190606     -0.417061850      0.325730837
| 24> 6        2.245024540      0.218842756     -0.204004451
| 25> 6        0.891320286     -0.467997151      0.173792354
| 26> 6       -0.382269188      0.419918005     -0.023365189
| 27> 6       -1.728626502     -0.380951428     -0.034067234
| 28> 6       -2.989669377      0.508649937      0.220799218
| 29> 6       -4.341700350     -0.148256685     -0.200457220
| 30> 9        3.454956342     -1.770907039      0.081229207
| 31> 9        3.545488518     -0.229037896      1.697273539
| 32> 9        2.190934323      1.506680122      0.238734203
| 33> 9        2.305906375      0.246046282     -1.564120563
| 34> 9        0.746279290     -1.583774915     -0.584187158
| 35> 9        0.928008200     -0.837544543      1.477151553
| 36> 9       -0.436766777      1.327546928      0.978944699
| 37> 9       -0.285373169      1.079994905     -1.200191876
| 38> 9       -1.690728565     -1.332385248      0.925305417
| 39> 9       -1.863434049     -0.985412705     -1.235071462
| 40> 9       -2.875331257      1.665488073     -0.468927793
| 41> 9       -3.065592445      0.790736220      1.537304067
| 42> 9       -4.452300700     -1.378234719      0.311637220
| 43> 9       -5.347318642      0.600905856      0.263788886
| 44> 9       -4.445219507     -0.217868155     -1.529143803
| 45> *
| 46> 
| 47>                          ****END OF INPUT****
================================================================================

                       *****************************
                       * Geometry Optimization Run *
                       *****************************

Geometry optimization settings:
Update method            Update   .... BFGS
Choice of coordinates    CoordSys .... (2022) Redundant Internals
Initial Hessian          InHess   .... Almloef's Model
Max. no of cycles        MaxIter  .... 78

Convergence Tolerances:
Energy Change            TolE     ....  5.0000e-06 Eh
Max. Gradient            TolMAXG  ....  3.0000e-04 Eh/bohr
RMS Gradient             TolRMSG  ....  1.0000e-04 Eh/bohr
Max. Displacement        TolMAXD  ....  4.0000e-03 bohr
RMS Displacement         TolRMSD  ....  2.0000e-03 bohr
Strict Convergence                .... False

------------------------------------------------------------------------------
                        ORCA OPTIMIZATION COORDINATE SETUP
------------------------------------------------------------------------------

The optimization will be done in redundant internal coordinates (2022)
Making redundant internal coordinates   ...  (2022 redundants) done
Evaluating the initial hessian          ...  (Almloef) done
Evaluating the coordinates              ...  done
Calculating the B-matrix                .... done
Calculating the G-matrix                .... done
Diagonalizing the G-matrix              .... done
Small eigenvalue found = 4.715e-03
Small eigenvalue found = 1.362e-02
Small eigenvalue found = 2.480e-02
The first mode is                       ....   42
The number of degrees of freedom        ....   72

    -----------------------------------------------------------------
                    Redundant Internal Coordinates


    -----------------------------------------------------------------
         Definition                    Initial Value    Approx d2E/dq
    -----------------------------------------------------------------
      1. B(O   1,C   0)                  1.2728         0.860577   
      2. B(O   2,C   0)                  1.4158         0.509078   
      3. B(H   3,O   2)                  0.9709         0.499500   
      4. B(C   4,C   0)                  1.4900         0.432714   
      5. B(C   5,C   4)                  1.5683         0.324507   
      6. B(C   6,C   5)                  1.5643         0.329363   
      7. B(C   7,C   6)                  1.5650         0.328475   
      8. B(C   8,C   7)                  1.5666         0.326596   
      9. B(C   9,C   8)                  1.5642         0.329524   
     10. B(C  10,C   9)                  1.5611         0.333266   
     11. B(F  11,C   4)                  1.3812         0.537107   
     12. B(F  12,C   4)                  1.3847         0.530113   
     13. B(F  13,C   5)                  1.3629         0.574407   
     14. B(F  14,C   5)                  1.3617         0.576817   
     15. B(F  15,C   6)                  1.3567         0.587701   
     16. B(F  16,C   6)                  1.3552         0.590793   
     17. B(F  17,C   7)                  1.3533         0.595032   
     18. B(F  18,C   7)                  1.3528         0.596143   
     19. B(F  19,C   8)                  1.3517         0.598539   
     20. B(F  20,C   8)                  1.3513         0.599435   
     21. B(F  21,C   9)                  1.3517         0.598529   
     22. B(F  22,C   9)                  1.3485         0.605531   
     23. B(F  23,C  10)                  1.3369         0.631937   
     24. B(F  24,C  10)                  1.3372         0.631314   
     25. B(F  25,C  10)                  1.3345         0.637479   
     26. A(O   2,C   0,C   4)          110.8479         0.390707   
     27. A(O   1,C   0,O   2)          119.4584         0.438606   
     28. A(O   1,C   0,C   4)          122.3726         0.428775   
     29. A(C   0,O   2,H   3)          104.8640         0.355418   
     30. A(C   5,C   4,F  11)          105.2171         0.373535   
     31. A(C   0,C   4,F  12)          110.5179         0.391785   
     32. A(F  11,C   4,F  12)          107.8431         0.402587   
     33. A(C   5,C   4,F  12)          105.0731         0.372692   
     34. A(C   0,C   4,C   5)          118.6562         0.363733   
     35. A(C   0,C   4,F  11)          108.9677         0.392684   
     36. A(C   4,C   5,C   6)          118.3895         0.347276   
     37. A(C   6,C   5,F  14)          106.7793         0.379139   
     38. A(F  13,C   5,F  14)          107.9002         0.413531   
     39. A(C   4,C   5,F  14)          107.9080         0.378165   
     40. A(C   6,C   5,F  13)          107.5834         0.378864   
     41. A(C   4,C   5,F  13)          107.8860         0.377891   
     42. A(C   5,C   6,C   7)          115.1316         0.347988   
     43. A(F  15,C   6,F  16)          108.4183         0.416989   
     44. A(C   7,C   6,F  16)          107.3310         0.380537   
     45. A(C   5,C   6,F  16)          109.1820         0.380716   
     46. A(C   7,C   6,F  15)          108.0126         0.380191   
     47. A(C   5,C   6,F  15)          108.5841         0.380369   
     48. A(F  17,C   7,F  18)          108.6595         0.418582   
     49. A(C   8,C   7,F  18)          107.7618         0.380754   
     50. A(C   6,C   7,F  18)          109.1557         0.381133   
     51. A(C   8,C   7,F  17)          108.2593         0.380631   
     52. A(C   6,C   7,F  17)          108.6617         0.381010   
     53. A(C   6,C   7,C   8)          114.2176         0.347494   
     54. A(C   7,C   8,F  19)          109.3232         0.381019   
     55. A(C   7,C   8,C   9)          113.6415         0.347680   
     56. A(F  19,C   8,F  20)          108.5879         0.419432   
     57. A(C   9,C   8,F  20)          108.5906         0.381709   
     58. A(C   7,C   8,F  20)          108.6927         0.381118   
     59. A(C   9,C   8,F  19)          107.8957         0.381609   
     60. A(F  21,C   9,F  22)          108.8983         0.420189   
     61. A(C   8,C   9,C  10)          114.5164         0.348867   
     62. A(C  10,C   9,F  22)          107.6201         0.383130   
     63. A(C   8,C   9,F  22)          108.8707         0.382380   
     64. A(C  10,C   9,F  21)          107.1999         0.382357   
     65. A(C   8,C   9,F  21)          109.5977         0.381608   
     66. A(F  24,C  10,F  25)          108.4545         0.428134   
     67. A(F  23,C  10,F  25)          109.0844         0.428210   
     68. A(C   9,C  10,F  25)          110.9651         0.386573   
     69. A(F  23,C  10,F  24)          108.6777         0.427465   
     70. A(C   9,C  10,F  24)          108.7774         0.385919   
     71. A(C   9,C  10,F  23)          110.8199         0.385986   
     72. D(H   3,O   2,C   0,O   1)      4.1084         0.018637   
     73. D(H   3,O   2,C   0,C   4)   -146.7124         0.018637   
     74. D(C   5,C   4,C   0,O   2)     74.8919         0.013825   
     75. D(F  11,C   4,C   0,O   2)   -164.8353         0.013825   
     76. D(C   5,C   4,C   0,O   1)    -74.9342         0.013825   
     77. D(F  11,C   4,C   0,O   1)     45.3386         0.013825   
     78. D(F  12,C   4,C   0,O   1)    163.6703         0.013825   
     79. D(F  13,C   5,C   4,F  12)     54.7129         0.008606   
     80. D(F  13,C   5,C   4,F  11)    168.4235         0.008606   
     81. D(F  13,C   5,C   4,C   0)    -69.4008         0.008606   
     82. D(C   6,C   5,C   4,F  12)    -67.6479         0.008606   
     83. D(C   6,C   5,C   4,F  11)     46.0626         0.008606   
     84. D(C   6,C   5,C   4,C   0)    168.2384         0.008606   
     85. D(C   7,C   6,C   5,F  13)     40.5489         0.008837   
     86. D(C   7,C   6,C   5,C   4)    163.0620         0.008837   
     87. D(F  15,C   6,C   5,F  14)     46.1377         0.008837   
     88. D(F  15,C   6,C   5,F  13)    161.7523         0.008837   
     89. D(F  15,C   6,C   5,C   4)    -75.7347         0.008837   
     90. D(C   7,C   6,C   5,F  14)    -75.0657         0.008837   
     91. D(F  17,C   7,C   6,F  16)     46.4048         0.008795   
     92. D(F  17,C   7,C   6,F  15)    163.1169         0.008795   
     93. D(F  17,C   7,C   6,C   5)    -75.3696         0.008795   
     94. D(C   8,C   7,C   6,F  16)    -74.5610         0.008795   
     95. D(C   8,C   7,C   6,F  15)     42.1511         0.008795   
     96. D(C   8,C   7,C   6,C   5)    163.6646         0.008795   
     97. D(F  19,C   8,C   7,F  17)    -79.9657         0.008705   
     98. D(F  19,C   8,C   7,C   6)     41.2230         0.008705   
     99. D(C   9,C   8,C   7,F  18)    -76.7233         0.008705   
    100. D(C   9,C   8,C   7,F  17)     40.6288         0.008705   
    101. D(F  19,C   8,C   7,F  18)    162.6822         0.008705   
    102. D(C   9,C   8,C   7,C   6)    161.8175         0.008705   
    103. D(F  21,C   9,C   8,F  20)    -79.0785         0.008845   
    104. D(F  21,C   9,C   8,F  19)    163.4041         0.008845   
    105. D(F  21,C   9,C   8,C   7)     42.0095         0.008845   
    106. D(C  10,C   9,C   8,F  20)     41.4105         0.008845   
    107. D(C  10,C   9,C   8,F  19)    -76.1068         0.008845   
    108. D(C  10,C   9,C   8,C   7)    162.4985         0.008845   
    109. D(F  24,C  10,C   9,F  21)    -68.3344         0.009027   
    110. D(F  24,C  10,C   9,C   8)    169.8568         0.009027   
    111. D(F  23,C  10,C   9,F  22)    -70.7471         0.009027   
    112. D(F  23,C  10,C   9,F  21)    172.2486         0.009027   
    113. D(F  24,C  10,C   9,F  22)     48.6698         0.009027   
    114. D(F  23,C  10,C   9,C   8)     50.4398         0.009027   
    -----------------------------------------------------------------

Number of atoms                         .... 26
Number of degrees of freedom            .... 114


         *************************************************************
         *                GEOMETRY OPTIMIZATION CYCLE   1            *
         *************************************************************
---------------------------------
CARTESIAN COORDINATES (ANGSTROEM)
---------------------------------
  C      4.870906    0.061889   -0.237293
  O      5.271940   -0.267476   -1.399542
  O      5.203187    1.337876    0.278274
  H      5.668159    1.786077   -0.446719
  C      3.577191   -0.417062    0.325731
  C      2.245025    0.218843   -0.204004
  C      0.891320   -0.467997    0.173792
  C     -0.382269    0.419918   -0.023365
  C     -1.728627   -0.380951   -0.034067
  C     -2.989669    0.508650    0.220799
  C     -4.341700   -0.148257   -0.200457
  F      3.454956   -1.770907    0.081229
  F      3.545489   -0.229038    1.697274
  F      2.190934    1.506680    0.238734
  F      2.305906    0.246046   -1.564121
  F      0.746279   -1.583775   -0.584187
  F      0.928008   -0.837545    1.477152
  F     -0.436767    1.327547    0.978945
  F     -0.285373    1.079995   -1.200192
  F     -1.690729   -1.332385    0.925305
  F     -1.863434   -0.985413   -1.235071
  F     -2.875331    1.665488   -0.468928
  F     -3.065592    0.790736    1.537304
  F     -4.452301   -1.378235    0.311637
  F     -5.347319    0.600906    0.263789
  F     -4.445220   -0.217868   -1.529144

----------------------------
CARTESIAN COORDINATES (A.U.)
----------------------------
  NO LB      ZA    FRAG     MASS         X           Y           Z
   0 C     6.0000    0    12.011    9.204679    0.116953   -0.448418
   1 O     8.0000    0    15.999    9.962523   -0.505457   -2.644751
   2 O     8.0000    0    15.999    9.832599    2.528219    0.525861
   3 H     1.0000    0     1.008   10.711268    3.375196   -0.844176
   4 C     6.0000    0    12.011    6.759911   -0.788133    0.615542
   5 C     6.0000    0    12.011    4.242482    0.413553   -0.385513
   6 C     6.0000    0    12.011    1.684351   -0.884386    0.328420
   7 C     6.0000    0    12.011   -0.722384    0.793530   -0.044154
   8 C     6.0000    0    12.011   -3.266631   -0.719894   -0.064378
   9 C     6.0000    0    12.011   -5.649656    0.961209    0.417250
  10 C     6.0000    0    12.011   -8.204625   -0.280165   -0.378809
  11 F     9.0000    0    18.998    6.528921   -3.346529    0.153501
  12 F     9.0000    0    18.998    6.700002   -0.432819    3.207382
  13 F     9.0000    0    18.998    4.140266    2.847213    0.451142
  14 F     9.0000    0    18.998    4.357532    0.464960   -2.955760
  15 F     9.0000    0    18.998    1.410263   -2.992901   -1.103954
  16 F     9.0000    0    18.998    1.753681   -1.582730    2.791412
  17 F     9.0000    0    18.998   -0.825370    2.508700    1.849937
  18 F     9.0000    0    18.998   -0.539277    2.040895   -2.268034
  19 F     9.0000    0    18.998   -3.195014   -2.517843    1.748574
  20 F     9.0000    0    18.998   -3.521380   -1.862160   -2.333947
  21 F     9.0000    0    18.998   -5.433589    3.147316   -0.886145
  22 F     9.0000    0    18.998   -5.793130    1.494275    2.905084
  23 F     9.0000    0    18.998   -8.413629   -2.604486    0.588909
  24 F     9.0000    0    18.998  -10.104968    1.135548    0.498489
  25 F     9.0000    0    18.998   -8.400247   -0.411711   -2.889663

--------------------------------
INTERNAL COORDINATES (ANGSTROEM)
--------------------------------
 C      0   0   0     0.000000000000     0.00000000     0.00000000
 O      1   0   0     1.272844298658     0.00000000     0.00000000
 O      1   2   0     1.415755290453   119.45839702     0.00000000
 H      3   1   2     0.970925490063   104.86400436     4.10837617
 C      1   2   3     1.489996452726   122.37260179   147.35283953
 C      5   1   2     1.568330504290   118.65624957   285.06581125
 C      6   5   1     1.564287278927   118.38948113   168.23841826
 C      7   6   5     1.565022226456   115.13156022   163.06195834
 C      8   7   6     1.566583671382   114.21763865   163.66456105
 C      9   8   7     1.564153646402   113.64149341   161.81749991
 C     10   9   8     1.561080090365   114.51636816   162.49853055
 F      5   1   2     1.381165832964   108.96772863    45.33858690
 F      5   1   2     1.384733697528   110.51794064   163.67030744
 F      6   5   1     1.362889705217   107.88596219   290.59923255
 F      6   5   1     1.361749781635   107.90795562    46.93939246
 F      7   6   5     1.356661287783   108.58413614   284.26534576
 F      7   6   5     1.355232998265   109.18201704    42.29299117
 F      8   7   6     1.353286873008   108.66167954   284.63041459
 F      8   7   6     1.352779140750   109.15568906    42.97753383
 F      9   8   7     1.351687260780   109.32317519    41.22300646
 F      9   8   7     1.351280010137   108.69266879   282.84835274
 F     10   9   8     1.351691913230   109.59774096    42.00947727
 F     10   9   8     1.348525862100   108.87071593   282.99501307
 F     11  10   9     1.336906547602   110.81991369    50.43981205
 F     11  10   9     1.337175047994   108.77741850   169.85676687
 F     11  10   9     1.334529882942   110.96513327   289.08716228

---------------------------
INTERNAL COORDINATES (A.U.)
---------------------------
 C      0   0   0     0.000000000000     0.00000000     0.00000000
 O      1   0   0     2.405327135587     0.00000000     0.00000000
 O      1   2   0     2.675389771607   119.45839702     0.00000000
 H      3   1   2     1.834783272663   104.86400436     4.10837617
 C      1   2   3     2.815685236167   122.37260179   147.35283953
 C      5   1   2     2.963715140583   118.65624957   285.06581125
 C      6   5   1     2.956074551949   118.38948113   168.23841826
 C      7   6   5     2.957463401501   115.13156022   163.06195834
 C      8   7   6     2.960414104786   114.21763865   163.66456105
 C      9   8   7     2.955822023074   113.64149341   161.81749991
 C     10   9   8     2.950013843908   114.51636816   162.49853055
 F      5   1   2     2.610025169831   108.96772863    45.33858690
 F      5   1   2     2.616767456741   110.51794064   163.67030744
 F      6   5   1     2.575488293601   107.88596219   290.59923255
 F      6   5   1     2.573334150216   107.90795562    46.93939246
 F      7   6   5     2.563718290403   108.58413614   284.26534576
 F      7   6   5     2.561019214373   109.18201704    42.29299117
 F      8   7   6     2.557341570616   108.66167954   284.63041459
 F      8   7   6     2.556382095698   109.15568906    42.97753383
 F      9   8   7     2.554318741585   109.32317519    41.22300646
 F      9   8   7     2.553549149400   108.69266879   282.84835274
 F     10   9   8     2.554327533441   109.59774096    42.00947727
 F     10   9   8     2.548344563879   108.87071593   282.99501307
 F     11  10   9     2.526387241614   110.81991369    50.43981205
 F     11  10   9     2.526894633822   108.77741850   169.85676687
 F     11  10   9     2.521895996295   110.96513327   289.08716228

---------------------
BASIS SET INFORMATION
---------------------
There are 4 groups of distinct atoms

 Group   1 Type C   : 11s6p2d1f contracted to 5s3p2d1f pattern {62111/411/11/1}
 Group   2 Type O   : 11s6p2d1f contracted to 5s3p2d1f pattern {62111/411/11/1}
 Group   3 Type H   : 5s1p contracted to 3s1p pattern {311/1}
 Group   4 Type F   : 11s6p2d1f contracted to 5s3p2d1f pattern {62111/411/11/1}

Atom   0C    basis set group =>   1
Atom   1O    basis set group =>   2
Atom   2O    basis set group =>   2
Atom   3H    basis set group =>   3
Atom   4C    basis set group =>   1
Atom   5C    basis set group =>   1
Atom   6C    basis set group =>   1
Atom   7C    basis set group =>   1
Atom   8C    basis set group =>   1
Atom   9C    basis set group =>   1
Atom  10C    basis set group =>   1
Atom  11F    basis set group =>   4
Atom  12F    basis set group =>   4
Atom  13F    basis set group =>   4
Atom  14F    basis set group =>   4
Atom  15F    basis set group =>   4
Atom  16F    basis set group =>   4
Atom  17F    basis set group =>   4
Atom  18F    basis set group =>   4
Atom  19F    basis set group =>   4
Atom  20F    basis set group =>   4
Atom  21F    basis set group =>   4
Atom  22F    basis set group =>   4
Atom  23F    basis set group =>   4
Atom  24F    basis set group =>   4
Atom  25F    basis set group =>   4
---------------------------------
AUXILIARY/J BASIS SET INFORMATION
---------------------------------
There are 4 groups of distinct atoms

 Group   1 Type C   : 12s5p4d2f1g contracted to 6s4p3d1f1g pattern {711111/2111/211/2/1}
 Group   2 Type O   : 12s5p4d2f1g contracted to 6s4p3d1f1g pattern {711111/2111/211/2/1}
 Group   3 Type H   : 5s2p1d contracted to 3s1p1d pattern {311/2/1}
 Group   4 Type F   : 12s5p4d2f1g contracted to 6s4p3d1f1g pattern {711111/2111/211/2/1}

Atom   0C    basis set group =>   1
Atom   1O    basis set group =>   2
Atom   2O    basis set group =>   2
Atom   3H    basis set group =>   3
Atom   4C    basis set group =>   1
Atom   5C    basis set group =>   1
Atom   6C    basis set group =>   1
Atom   7C    basis set group =>   1
Atom   8C    basis set group =>   1
Atom   9C    basis set group =>   1
Atom  10C    basis set group =>   1
Atom  11F    basis set group =>   4
Atom  12F    basis set group =>   4
Atom  13F    basis set group =>   4
Atom  14F    basis set group =>   4
Atom  15F    basis set group =>   4
Atom  16F    basis set group =>   4
Atom  17F    basis set group =>   4
Atom  18F    basis set group =>   4
Atom  19F    basis set group =>   4
Atom  20F    basis set group =>   4
Atom  21F    basis set group =>   4
Atom  22F    basis set group =>   4
Atom  23F    basis set group =>   4
Atom  24F    basis set group =>   4
Atom  25F    basis set group =>   4


           ************************************************************
           *        Program running with 20 parallel MPI-processes    *
           *              working on a common directory               *
           ************************************************************
------------------------------------------------------------------------------
                             ORCA STARTUP CALCULATIONS
                           -- RI-GTO INTEGRALS CHOSEN --
------------------------------------------------------------------------------
------------------------------------------------------------------------------
                   ___                                                        
                  /   \      - P O W E R E D   B Y -                         
                 /     \                                                     
                 |  |  |   _    _      __       _____    __    __             
                 |  |  |  | |  | |    /  \     |  _  \  |  |  /  |          
                  \  \/   | |  | |   /    \    | | | |  |  | /  /          
                 / \  \   | |__| |  /  /\  \   | |_| |  |  |/  /          
                |  |  |   |  __  | /  /__\  \  |    /   |      \           
                |  |  |   | |  | | |   __   |  |    \   |  |\   \          
                \     /   | |  | | |  |  |  |  | |\  \  |  | \   \       
                 \___/    |_|  |_| |__|  |__|  |_| \__\ |__|  \__/        
                                                                              
                      - O R C A' S   B I G   F R I E N D -                    
                                      &                                       
                       - I N T E G R A L  F E E D E R -                       
                                                                              
 v1 FN, 2020, v2 2021, v3 2022-2024                                           
------------------------------------------------------------------------------


----------------------
SHARK INTEGRAL PACKAGE
----------------------

Number of atoms                             ...     26
Number of basis functions                   ...    781
Number of shells                            ...    279
Maximum angular momentum                    ...      3
Integral batch strategy                     ... SHARK/LIBINT Hybrid
RI-J (if used) integral strategy            ... SPLIT-RIJ (Revised 2003 algorithm where possible)
Printlevel                                  ...      1
Contraction scheme used                     ... SEGMENTED contraction
Prescreening option                         ... SCHWARTZ
   Thresh                                   ... 2.500e-11
   Tcut                                     ... 2.500e-12
   Tpresel                                  ... 2.500e-12 
Coulomb Range Separation                    ... NOT USED
Exchange Range Separation                   ... NOT USED
Multipole approximations                    ... NOT USED
Finite Nucleus Model                        ... NOT USED
CABS basis                                  ... NOT available
Auxiliary Coulomb fitting basis             ... AVAILABLE
   # of basis functions in Aux-J            ...   1236
   # of shells in Aux-J                     ...    380
   Maximum angular momentum in Aux-J        ...      4
Auxiliary J/K fitting basis                 ... NOT available
Auxiliary Correlation fitting basis         ... NOT available
Auxiliary 'external' fitting basis          ... NOT available

Checking pre-screening integrals            ... done (  0.0 sec) Dimension = 279
Check shell pair data                       ... done (  0.0 sec)
Shell pair information
Shell pair cut-off parameter TPreSel        ...   2.5e-12
Total number of shell pairs                 ...     39060
Shell pairs after pre-screening             ...     23859
Total number of primitive shell pairs       ...    128824
Primitive shell pairs kept                  ...     50525
          la=0 lb=0:   4547 shell pairs
          la=1 lb=0:   6527 shell pairs
          la=1 lb=1:   2260 shell pairs
          la=2 lb=0:   3542 shell pairs
          la=2 lb=1:   2591 shell pairs
          la=2 lb=2:    724 shell pairs
          la=3 lb=0:   1597 shell pairs
          la=3 lb=1:   1244 shell pairs
          la=3 lb=2:    670 shell pairs
          la=3 lb=3:    157 shell pairs

Calculating one electron integrals          ... done (  0.1 sec)
Calculating RI/J V-Matrix + Cholesky decomp.... done (  0.2 sec)
Calculating Nuclear repulsion               ... done (  0.0 sec) ENN=   2887.874269974818 Eh

Diagonalization of the overlap matrix:
Smallest eigenvalue                        ... 5.999e-05
Time for diagonalization                   ...    0.190 sec
Threshold for overlap eigenvalues          ... 1.000e-07
Number of eigenvalues below threshold      ... 0
Time for construction of square roots      ...    0.056 sec
Total time needed                          ...    0.252 sec

-------------------
DFT GRID GENERATION
-------------------

General Integration Accuracy     IntAcc      ... 4.388
Radial Grid Type                 RadialGrid  ... OptM3 with GC (2021)
Angular Grid (max. ang.)         AngularGrid ... 4 (Lebedev-302)
Angular grid pruning method      GridPruning ... 4 (adaptive)
Weight generation scheme         WeightScheme... mBecke (2022)
Basis function cutoff            BFCut       ... 1.0000e-11
Integration weight cutoff        WCut        ... 1.0000e-14
Partially contracted basis set               ... off
Rotationally invariant grid construction     ... off
Angular grids for H and He will be reduced by one unit

Total number of grid points                  ...   154714
Total number of batches                      ...     2428
Average number of points per batch           ...       63
Average number of grid points per atom       ...     5951

--------------------
COSX GRID GENERATION
--------------------

GRIDX 1
-------
General Integration Accuracy     IntAcc      ... 3.816
Radial Grid Type                 RadialGrid  ... OptM3 with GC (2021)
Angular Grid (max. ang.)         AngularGrid ... 1 (Lebedev-50)
Angular grid pruning method      GridPruning ... 4 (adaptive)
Weight generation scheme         WeightScheme... mBecke (2022)
Basis function cutoff            BFCut       ... 1.0000e-11
Integration weight cutoff        WCut        ... 1.0000e-14
Partially contracted basis set               ... on
Rotationally invariant grid construction     ... off
Angular grids for H and He will be reduced by one unit

Total number of grid points                  ...    19426
Total number of batches                      ...      163
Average number of points per batch           ...      119
Average number of grid points per atom       ...      747
UseSFitting                                  ... on

GRIDX 2
-------
General Integration Accuracy     IntAcc      ... 4.020
Radial Grid Type                 RadialGrid  ... OptM3 with GC (2021)
Angular Grid (max. ang.)         AngularGrid ... 2 (Lebedev-110)
Angular grid pruning method      GridPruning ... 4 (adaptive)
Weight generation scheme         WeightScheme... mBecke (2022)
Basis function cutoff            BFCut       ... 1.0000e-11
Integration weight cutoff        WCut        ... 1.0000e-14
Partially contracted basis set               ... on
Rotationally invariant grid construction     ... off
Angular grids for H and He will be reduced by one unit

Total number of grid points                  ...    45821
Total number of batches                      ...      375
Average number of points per batch           ...      122
Average number of grid points per atom       ...     1762
UseSFitting                                  ... on

GRIDX 3
-------
General Integration Accuracy     IntAcc      ... 4.338
Radial Grid Type                 RadialGrid  ... OptM3 with GC (2021)
Angular Grid (max. ang.)         AngularGrid ... 3 (Lebedev-194)
Angular grid pruning method      GridPruning ... 4 (adaptive)
Weight generation scheme         WeightScheme... mBecke (2022)
Basis function cutoff            BFCut       ... 1.0000e-11
Integration weight cutoff        WCut        ... 1.0000e-14
Partially contracted basis set               ... on
Rotationally invariant grid construction     ... off
Angular grids for H and He will be reduced by one unit

Total number of grid points                  ...   101438
Total number of batches                      ...      804
Average number of points per batch           ...      126
Average number of grid points per atom       ...     3901
UseSFitting                                  ... on
Initializing property integral containers    ... done (  0.0 sec)

SHARK setup successfully completed in   4.9 seconds

Maximum memory used throughout the entire STARTUP-calculation: 60.9 MB


           ************************************************************
           *        Program running with 20 parallel MPI-processes    *
           *              working on a common directory               *
           ************************************************************
-------------------------------------------------------------------------------
                                 ORCA GUESS
                   Start orbitals & Density for SCF / CASSCF
-------------------------------------------------------------------------------

------------
SCF SETTINGS
------------
Hamiltonian:
 Density Functional     Method          .... DFT(GTOs)
 Exchange Functional    Exchange        .... TPSS
 Correlation Functional Correlation     .... TPSS
 LDA part of GGA corr.  LDAOpt          .... PW91-LDA
 Gradients option       PostSCFGGA      .... off
 Hybrid DFT is turned on
   Fraction HF Exchange ScalHFX         ....  0.100000
   Scaling of DF-GGA-X  ScalDFX         ....  0.900000
   Scaling of DF-GGA-C  ScalDFC         ....  1.000000
   Scaling of DF-LDA-C  ScalLDAC        ....  1.000000
   Perturbative correction              ....  0.000000
   NL short-range parameter             ....  5.200000
 RI-approximation to the Coulomb term is turned on
   Number of AuxJ basis functions       .... 1236
   RIJ-COSX (HFX calculated with COS-X)).... on


General Settings:
 Integral files         IntName         .... rf_mecn_opt_TP_P_A
 Hartree-Fock type      HFTyp           .... UHF
 Total Charge           Charge          ....   -1
 Multiplicity           Mult            ....    2
 Number of Electrons    NEL             ....  201
 Basis Dimension        Dim             ....  781
 Nuclear Repulsion      ENuc            ....   2887.8742699748 Eh

Convergence Acceleration:
 AO-DIIS                CNVDIIS         .... on
   Start iteration      DIISMaxIt       ....     0
   Startup error        DIISStart       ....  0.200000
   # of expansion vecs  DIISMaxEq       ....     5
   Bias factor          DIISBfac        ....   1.050
   Max. coefficient     DIISMaxC        ....  10.000
 MO-DIIS                CNVKDIIS        .... off
 Trust-Rad. Augm. Hess. CNVTRAH         .... auto
   Auto Start mean grad. ratio tolernc. ....  1.125000
   Auto Start start iteration           ....    50
   Auto Start num. interpolation iter.  ....    10
   Max. Number of Micro iterations      ....    24
   Max. Number of Macro iterations      .... Maxiter - #DIIS iter
   Number of Davidson start vectors     ....     2
   Converg. threshold    (grad. norm)   ....   1.000e-05
   Grad. Scal. Fac. for Micro threshold ....   0.100
   Minimum threshold for Micro iter.    ....   1.000e-02
   NR start threshold (gradient norm)   ....   1.000e-04
   Initial trust radius                 ....   0.400
   Minimum AH scaling param. (alpha)    ....   1.000
   Maximum AH scaling param. (alpha)    .... 1000.000
   Quad. conv. algorithm                .... NR
   White noise on init. David. guess    .... on
   Maximum white noise                  ....   0.010
   Pseudo random numbers                .... off
   Inactive MOs                         .... canonical
   Orbital update algorithm             .... Taylor
   Preconditioner                       .... Diag
   Full preconditioner red. dimension   ....   250
 SOSCF                  CNVSOSCF        .... on
   Start iteration      SOSCFMaxIt      ....   150
   Startup grad/error   SOSCFStart      ....  0.001000
   Hessian update       SOSCFHessUp     .... L-BFGS
 Level Shifting         CNVShift        .... on
   Level shift para.    LevelShift      ....    0.2500
   Turn off err/grad.   ShiftErr        ....    0.0000
 Zerner damping         CNVZerner       .... off
 Static damping         CNVDamp         .... on
   Fraction old density DampFac         ....    0.8500
   Max. Damping (<1)    DampMax         ....    0.9800
   Min. Damping (>=0)   DampMin         ....    0.0000
   Turn off err/grad.   DampErr         ....    0.0300

SCF Procedure:
 Maximum # iterations   MaxIter         ....  1500
 SCF integral mode      SCFMode         .... Direct
   Integral package                     .... SHARK and LIBINT hybrid scheme
 Reset frequency        DirectResetFreq ....    20
 Integral Threshold     Thresh          ....  2.500e-11 Eh
 Primitive CutOff       TCut            ....  2.500e-12 Eh

Convergence Tolerance:
 Convergence Check Mode ConvCheckMode   .... Total+1el-Energy
 Convergence forced     ConvForced      .... 0
 Energy Change          TolE            ....  1.000e-08 Eh
 1-El. energy change                    ....  1.000e-05 Eh
 Orbital Gradient       TolG            ....  1.000e-05
 Orbital Rotation angle TolX            ....  1.000e-05
 DIIS Error             TolErr          ....  5.000e-07

------------------------------
INITIAL GUESS: MODEL POTENTIAL
------------------------------
Loading Hartree-Fock densities                     ... done
Calculating cut-offs                               ... done
Initializing the effective Hamiltonian             ... done
Setting up the integral package (SHARK)            ... done
Starting the Coulomb interaction                   ... done (   0.4 sec)
Making the grid                                    ... done (   0.6 sec)
Mapping shells                                     ... done
Starting the XC term evaluation                    ... done (   0.1 sec)
  promolecular density results
     # of electrons  =    199.999329166
     EX              =   -207.498293227
     EC              =     -7.028408430
     EX+EC           =   -214.526701657
Transforming the Hamiltonian                       ... done (   0.1 sec)
Diagonalizing the Hamiltonian                      ... done (   0.2 sec)
Back transforming the eigenvectors                 ... done (   0.0 sec)
Now organizing SCF variables                       ... done
                      ------------------
                      INITIAL GUESS DONE (   1.5 sec)
                      ------------------
             **** ENERGY FILE WAS UPDATED (rf_mecn_opt_TP_P_A.en.tmp) ****
Finished Guess after   2.6 sec
Maximum memory used throughout the entire GUESS-calculation: 49.4 MB


           ************************************************************
           *        Program running with 20 parallel MPI-processes    *
           *              working on a common directory               *
           ************************************************************

-------------------------------------------------------------------------------------------
                                      ORCA LEAN-SCF
                              memory conserving SCF solver
-------------------------------------------------------------------------------------------

--------------------
CPCM SOLVATION MODEL
--------------------
CPCM parameters:
  Epsilon                                         ...      35.6880
  Refrac                                          ...       1.3442
  Rsolv                                           ...       1.3000
  Surface type                                    ... GAUSSIAN VDW
  Discretization scheme                           ... Constant charge density
    Threshold for H atoms                         ...       5.0000 (charges/Ang^2)
    Threshold for non-H atoms                     ...       5.0000 (charges/Ang^2)
  Epsilon function type                           ...         CPCM
Solvent:                                          ... ACETONITRILE
SMD-CDS solvent descriptors:
  Soln                                            ...       1.3442
  Soln25                                          ...       1.3416
  Sola                                            ...       0.0700
  Solb                                            ...       0.3200
  Solg                                            ...      41.2500
  Solc                                            ...       0.0000
  Solh                                            ...       0.0000
Radii:
  Scheme                                          ... Element-dependent radii
  Radius for C  used is    3.4960 Bohr (=   1.8500 Ang.)
  Radius for O  used is    4.0969 Bohr (=   2.1680 Ang.)
  Radius for H  used is    2.2677 Bohr (=   1.2000 Ang.)
  Radius for F  used is    3.2692 Bohr (=   1.7300 Ang.)
Calculating surface                               ...        done! (  0.0s)
Cavity surface points                             ...         2175
Cavity Volume                                     ...    2179.2438
Cavity Surface-area                               ...    1119.3936
Calculating surface distance matrix               ...        done! (  0.0s)
Performing Cholesky decomposition & store         ...        done! (  0.1s)
Overall time for CPCM initialization              ...                 0.1s

----------------------------------------D-I-I-S--------------------------------------------
Iteration    Energy (Eh)           Delta-E    RMSDP     MaxDP     DIISErr   Damp  Time(sec)
-------------------------------------------------------------------------------------------
               ***  Starting incremental Fock matrix formation  ***
    1    -1953.9410597830355982     0.00e+00  5.73e-04  1.52e-01  1.70e-01  0.850   8.3
Warning: op=0 Small HOMO/LUMO gap (  -0.027) - skipping pre-diagonalization
         Will do a full diagonalization
    2    -1954.0852323062981668    -1.44e-01  8.79e-04  2.35e-01  1.14e-01  0.850   5.7
                               ***Turning on AO-DIIS***
    3    -1954.1619722640934924    -7.67e-02  5.78e-04  1.58e-01  6.11e-02  0.850   5.0
    4    -1954.2064234385707095    -4.45e-02  3.17e-04  8.78e-02  4.50e-02  0.850   4.8
    5    -1954.2377546757061282    -3.13e-02  1.61e-04  4.47e-02  3.89e-02  0.850   4.8
    6    -1954.2625829533189972    -2.48e-02  9.01e-05  2.38e-02  3.47e-02  0.850   4.7
    7    -1954.2833380645142825    -2.08e-02  7.01e-05  1.75e-02  3.04e-02  0.850   4.7
    8    -1954.3010692999523599    -1.77e-02  7.10e-05  1.95e-02  2.52e-02  0.850   4.6
    9    -1954.3160004665060114    -1.49e-02  4.68e-04  1.38e-01  2.07e-02  0.000   4.5
   10    -1954.3952230828772372    -7.92e-02  6.28e-05  9.66e-03  3.72e-03  0.000   5.0
   11    -1954.3954025236234884    -1.79e-04  4.55e-05  6.93e-03  2.22e-03  0.000   4.5
   12    -1954.3954860142648613    -8.35e-05  3.42e-05  6.45e-03  1.26e-03  0.000   4.4
                              *** Initializing SOSCF ***
---------------------------------------S-O-S-C-F--------------------------------------
Iteration    Energy (Eh)           Delta-E    RMSDP     MaxDP     MaxGrad    Time(sec)
--------------------------------------------------------------------------------------
   13    -1954.3955234321201715    -3.74e-05  3.15e-05  7.74e-03  2.90e-04     4.9
               *** Restarting incremental Fock matrix formation ***
   14    -1954.3955325835895565    -9.15e-06  6.69e-05  9.65e-03  1.37e-03     8.2
   15    -1954.3955559945625282    -2.34e-05  6.27e-05  1.74e-02  1.97e-04     6.2
   16    -1954.3955574344890920    -1.44e-06  1.84e-05  4.61e-03  2.16e-04     6.0
   17    -1954.3955621644754501    -4.73e-06  8.62e-06  2.66e-03  9.20e-05     5.7
   18    -1954.3955619183607268     2.46e-07  5.52e-06  1.81e-03  1.16e-04     5.2
   19    -1954.3955625167782273    -5.98e-07  2.21e-06  6.61e-04  1.87e-05     4.9
   20    -1954.3955625356875316    -1.89e-08  1.31e-06  3.80e-04  1.60e-05     4.3
   21    -1954.3955625428816347    -7.19e-09  2.23e-07  4.58e-05  1.82e-06     4.2
                 **** Energy Check signals convergence ****

               *****************************************************
               *                     SUCCESS                       *
               *           SCF CONVERGED AFTER  21 CYCLES          *
               *****************************************************

Recomputing exchange energy using gridx3       ... done (    9.232 sec)
Old exchange energy                            :    -20.944548898 Eh
New exchange energy                            :    -20.944554384 Eh
Exchange energy change after final integration :     -0.000005485 Eh
Total energy after final integration           :  -1954.395568028 Eh

SMD CDS free energy correction energy :                 3.55544     Kcal/mol
Total Energy after SMD CDS correction =             -1954.389902073 Eh
             **** ENERGY FILE WAS UPDATED (rf_mecn_opt_TP_P_A.en.tmp) ****

----------------
TOTAL SCF ENERGY
----------------

Total Energy       :      -1954.38990207323786 Eh          -53181.65294 eV

Components:
Nuclear Repulsion  :       2887.87426997481816 Eh           78583.05397 eV
Electronic Energy  :      -4842.18979471971215 Eh         -131762.68300 eV
One Electron Energy:      -8492.76200363288444 Eh         -231099.80301 eV
Two Electron Energy:       3650.57220891317183 Eh           99337.12001 eV
CPCM Dielectric    :         -0.08003779798802 Eh              -2.17794 eV
SMD CDS (Gcds)     :          0.00566595502630 Eh               0.15418 eV

Virial components:
Potential Energy   :      -3902.19657000522420 Eh         -106184.16697 eV
Kinetic Energy     :       1947.80666793198657 Eh           53002.51403 eV
Virial Ratio       :          2.00337981908042

DFT components:
N(Alpha)           :      101.000013803124 electrons
N(Beta)            :       99.999978297219 electrons
N(Total)           :      200.999992100343 electrons
E(X)               :     -190.335886431173 Eh       
E(C)               :       -7.078569530880 Eh       
E(XC)              :     -197.414455962053 Eh       

CPCM Solvation Model Properties:
Surface-charge          :          0.98871344272636
Corrected charge        :          1.00000000000000
Outlying charge corr.   :          0.00000692817859 Eh               0.00019 eV
Free-energy (cav+disp)  :          0.00566595502630 Eh               0.15418 eV

---------------
SCF CONVERGENCE
---------------

  Last Energy change         ...    7.1941e-09  Tolerance :   1.0000e-08
  Last MAX-Density change    ...    4.5785e-05  Tolerance :   1.0000e-07
  Last RMS-Density change    ...    2.2288e-07  Tolerance :   5.0000e-09
  Last DIIS Error            ...    2.9047e-04  Tolerance :   5.0000e-07
  Last Orbital Gradient      ...    1.8248e-06  Tolerance :   1.0000e-05
  Last Orbital Rotation      ...    1.8204e-05  Tolerance :   1.0000e-05


----------------------
UHF SPIN CONTAMINATION
----------------------

Warning: in a DFT calculation there is little theoretical justification to 
         calculate <S**2> as in Hartree-Fock theory. We will do it anyways
         but you should keep in mind that the values have only limited relevance

Expectation value of <S**2>     :     0.754097
Ideal value S*(S+1) for S=0.5   :     0.750000
Deviation                       :     0.004097

----------------
ORBITAL ENERGIES
----------------
                 SPIN UP ORBITALS
  NO   OCC          E(Eh)            E(eV) 
   0   1.0000     -24.659622      -671.0224 
   1   1.0000     -24.658503      -670.9920 
   2   1.0000     -24.657752      -670.9715 
   3   1.0000     -24.657246      -670.9578 
   4   1.0000     -24.656379      -670.9342 
   5   1.0000     -24.655612      -670.9133 
   6   1.0000     -24.655068      -670.8985 
   7   1.0000     -24.650842      -670.7835 
   8   1.0000     -24.649947      -670.7592 
   9   1.0000     -24.642649      -670.5606 
  10   1.0000     -24.640639      -670.5059 
  11   1.0000     -24.628208      -670.1676 
  12   1.0000     -24.625962      -670.1065 
  13   1.0000     -24.603814      -669.5038 
  14   1.0000     -24.600458      -669.4125 
  15   1.0000     -19.041143      -518.1359 
  16   1.0000     -18.978882      -516.4416 
  17   1.0000     -10.393566      -282.8233 
  18   1.0000     -10.340161      -281.3701 
  19   1.0000     -10.338823      -281.3337 
  20   1.0000     -10.332557      -281.1632 
  21   1.0000     -10.321502      -280.8623 
  22   1.0000     -10.301645      -280.3220 
  23   1.0000     -10.273533      -279.5570 
  24   1.0000     -10.164854      -276.5997 
  25   1.0000      -1.320565       -35.9344 
  26   1.0000      -1.293540       -35.1990 
  27   1.0000      -1.278206       -34.7817 
  28   1.0000      -1.272184       -34.6179 
  29   1.0000      -1.263652       -34.3857 
  30   1.0000      -1.247586       -33.9485 
  31   1.0000      -1.235324       -33.6149 
  32   1.0000      -1.229797       -33.4645 
  33   1.0000      -1.226991       -33.3881 
  34   1.0000      -1.220290       -33.2058 
  35   1.0000      -1.216597       -33.1053 
  36   1.0000      -1.215286       -33.0696 
  37   1.0000      -1.207548       -32.8591 
  38   1.0000      -1.191969       -32.4351 
  39   1.0000      -1.164247       -31.6808 
  40   1.0000      -1.003905       -27.3176 
  41   1.0000      -0.915237       -24.9049 
  42   1.0000      -0.818400       -22.2698 
  43   1.0000      -0.793431       -21.5904 
  44   1.0000      -0.763416       -20.7736 
  45   1.0000      -0.729930       -19.8624 
  46   1.0000      -0.691837       -18.8258 
  47   1.0000      -0.661868       -18.0104 
  48   1.0000      -0.641102       -17.4453 
  49   1.0000      -0.618730       -16.8365 
  50   1.0000      -0.614749       -16.7282 
  51   1.0000      -0.607916       -16.5422 
  52   1.0000      -0.597291       -16.2531 
  53   1.0000      -0.592154       -16.1133 
  54   1.0000      -0.590996       -16.0818 
  55   1.0000      -0.581663       -15.8278 
  56   1.0000      -0.576250       -15.6806 
  57   1.0000      -0.568356       -15.4658 
  58   1.0000      -0.561903       -15.2901 
  59   1.0000      -0.556936       -15.1550 
  60   1.0000      -0.550878       -14.9901 
  61   1.0000      -0.540781       -14.7154 
  62   1.0000      -0.537329       -14.6215 
  63   1.0000      -0.513393       -13.9701 
  64   1.0000      -0.483706       -13.1623 
  65   1.0000      -0.478980       -13.0337 
  66   1.0000      -0.474486       -12.9114 
  67   1.0000      -0.473782       -12.8923 
  68   1.0000      -0.468887       -12.7591 
  69   1.0000      -0.467562       -12.7230 
  70   1.0000      -0.460085       -12.5196 
  71   1.0000      -0.455680       -12.3997 
  72   1.0000      -0.452141       -12.3034 
  73   1.0000      -0.447094       -12.1660 
  74   1.0000      -0.444644       -12.0994 
  75   1.0000      -0.440717       -11.9925 
  76   1.0000      -0.433131       -11.7861 
  77   1.0000      -0.432049       -11.7566 
  78   1.0000      -0.428541       -11.6612 
  79   1.0000      -0.421411       -11.4672 
  80   1.0000      -0.420321       -11.4375 
  81   1.0000      -0.418518       -11.3884 
  82   1.0000      -0.415875       -11.3165 
  83   1.0000      -0.414681       -11.2840 
  84   1.0000      -0.411926       -11.2091 
  85   1.0000      -0.410821       -11.1790 
  86   1.0000      -0.407283       -11.0827 
  87   1.0000      -0.402404       -10.9500 
  88   1.0000      -0.396242       -10.7823 
  89   1.0000      -0.392534       -10.6814 
  90   1.0000      -0.387934       -10.5562 
  91   1.0000      -0.382606       -10.4112 
  92   1.0000      -0.373358       -10.1596 
  93   1.0000      -0.368461       -10.0263 
  94   1.0000      -0.363127        -9.8812 
  95   1.0000      -0.342949        -9.3321 
  96   1.0000      -0.324778        -8.8377 
  97   1.0000      -0.304849        -8.2954 
  98   1.0000      -0.262294        -7.1374 
  99   1.0000      -0.214867        -5.8468 
 100   1.0000      -0.090855        -2.4723 
 101   0.0000      -0.012942        -0.3522 
 102   0.0000      -0.000237        -0.0064 
 103   0.0000       0.032115         0.8739 
 104   0.0000       0.045355         1.2342 
 105   0.0000       0.071218         1.9379 
 106   0.0000       0.077870         2.1190 
 107   0.0000       0.095145         2.5890 
 108   0.0000       0.099653         2.7117 
 109   0.0000       0.119296         3.2462 
 110   0.0000       0.125406         3.4125 
 111   0.0000       0.133088         3.6215 

                 SPIN DOWN ORBITALS
  NO   OCC          E(Eh)            E(eV) 
   0   1.0000     -24.659621      -671.0224 
   1   1.0000     -24.658502      -670.9920 
   2   1.0000     -24.657728      -670.9709 
   3   1.0000     -24.657230      -670.9573 
   4   1.0000     -24.656376      -670.9341 
   5   1.0000     -24.655604      -670.9131 
   6   1.0000     -24.655038      -670.8977 
   7   1.0000     -24.650828      -670.7831 
   8   1.0000     -24.649896      -670.7578 
   9   1.0000     -24.642624      -670.5599 
  10   1.0000     -24.640569      -670.5040 
  11   1.0000     -24.628167      -670.1665 
  12   1.0000     -24.625890      -670.1045 
  13   1.0000     -24.603410      -669.4928 
  14   1.0000     -24.599938      -669.3984 
  15   1.0000     -19.039005      -518.0777 
  16   1.0000     -18.971503      -516.2409 
  17   1.0000     -10.393530      -282.8223 
  18   1.0000     -10.340088      -281.3681 
  19   1.0000     -10.338653      -281.3291 
  20   1.0000     -10.332234      -281.1544 
  21   1.0000     -10.320777      -280.8426 
  22   1.0000     -10.300289      -280.2851 
  23   1.0000     -10.272524      -279.5296 
  24   1.0000     -10.156704      -276.3780 
  25   1.0000      -1.320536       -35.9336 
  26   1.0000      -1.293408       -35.1954 
  27   1.0000      -1.278075       -34.7782 
  28   1.0000      -1.272090       -34.6153 
  29   1.0000      -1.263437       -34.3799 
  30   1.0000      -1.247264       -33.9398 
  31   1.0000      -1.235304       -33.6143 
  32   1.0000      -1.229765       -33.4636 
  33   1.0000      -1.226938       -33.3867 
  34   1.0000      -1.220232       -33.2042 
  35   1.0000      -1.216304       -33.0973 
  36   1.0000      -1.214302       -33.0428 
  37   1.0000      -1.207389       -32.8547 
  38   1.0000      -1.191782       -32.4300 
  39   1.0000      -1.163210       -31.6525 
  40   1.0000      -0.997307       -27.1381 
  41   1.0000      -0.904496       -24.6126 
  42   1.0000      -0.817633       -22.2489 
  43   1.0000      -0.791683       -21.5428 
  44   1.0000      -0.760709       -20.7000 
  45   1.0000      -0.726581       -19.7713 
  46   1.0000      -0.688961       -18.7476 
  47   1.0000      -0.660376       -17.9698 
  48   1.0000      -0.639169       -17.3927 
  49   1.0000      -0.618560       -16.8319 
  50   1.0000      -0.614315       -16.7164 
  51   1.0000      -0.607840       -16.5402 
  52   1.0000      -0.595785       -16.2121 
  53   1.0000      -0.591019       -16.0824 
  54   1.0000      -0.589993       -16.0545 
  55   1.0000      -0.578805       -15.7501 
  56   1.0000      -0.575956       -15.6726 
  57   1.0000      -0.566653       -15.4194 
  58   1.0000      -0.561536       -15.2802 
  59   1.0000      -0.554357       -15.0848 
  60   1.0000      -0.550501       -14.9799 
  61   1.0000      -0.539417       -14.6783 
  62   1.0000      -0.534784       -14.5522 
  63   1.0000      -0.511898       -13.9294 
  64   1.0000      -0.483614       -13.1598 
  65   1.0000      -0.478913       -13.0319 
  66   1.0000      -0.474152       -12.9023 
  67   1.0000      -0.471601       -12.8329 
  68   1.0000      -0.468545       -12.7498 
  69   1.0000      -0.467495       -12.7212 
  70   1.0000      -0.459777       -12.5112 
  71   1.0000      -0.455345       -12.3906 
  72   1.0000      -0.452040       -12.3006 
  73   1.0000      -0.446958       -12.1624 
  74   1.0000      -0.444326       -12.0907 
  75   1.0000      -0.440433       -11.9848 
  76   1.0000      -0.432909       -11.7801 
  77   1.0000      -0.431831       -11.7507 
  78   1.0000      -0.427572       -11.6348 
  79   1.0000      -0.421365       -11.4659 
  80   1.0000      -0.420126       -11.4322 
  81   1.0000      -0.417797       -11.3688 
  82   1.0000      -0.414552       -11.2805 
  83   1.0000      -0.412110       -11.2141 
  84   1.0000      -0.410859       -11.1800 
  85   1.0000      -0.409819       -11.1517 
  86   1.0000      -0.407031       -11.0759 
  87   1.0000      -0.401821       -10.9341 
  88   1.0000      -0.395735       -10.7685 
  89   1.0000      -0.391262       -10.6468 
  90   1.0000      -0.387141       -10.5346 
  91   1.0000      -0.378692       -10.3047 
  92   1.0000      -0.371786       -10.1168 
  93   1.0000      -0.366904        -9.9840 
  94   1.0000      -0.347040        -9.4434 
  95   1.0000      -0.338455        -9.2098 
  96   1.0000      -0.315288        -8.5794 
  97   1.0000      -0.300247        -8.1701 
  98   1.0000      -0.234898        -6.3919 
  99   1.0000      -0.210258        -5.7214 
 100   0.0000      -0.025293        -0.6883 
 101   0.0000      -0.002201        -0.0599 
 102   0.0000       0.007623         0.2074 
 103   0.0000       0.036632         0.9968 
 104   0.0000       0.049991         1.3603 
 105   0.0000       0.074126         2.0171 
 106   0.0000       0.082782         2.2526 
 107   0.0000       0.098758         2.6874 
 108   0.0000       0.100996         2.7482 
 109   0.0000       0.121144         3.2965 
 110   0.0000       0.126916         3.4535 
*Only the first 10 virtual orbitals were printed.

                    ********************************
                    * MULLIKEN POPULATION ANALYSIS *
                    ********************************

--------------------------------------------
MULLIKEN ATOMIC CHARGES AND SPIN POPULATIONS
--------------------------------------------
   0 C :   -0.028306    0.535932
   1 O :   -0.553145    0.237271
   2 O :   -0.478220    0.034860
   3 H :    0.312884    0.014002
   4 C :    0.413227    0.015054
   5 C :    0.231033    0.101075
   6 C :    0.286085    0.027893
   7 C :    0.291050    0.018516
   8 C :    0.270935    0.007557
   9 C :    0.293676    0.003599
  10 C :    0.407836    0.001483
  11 F :   -0.211021    0.000171
  12 F :   -0.214048    0.001772
  13 F :   -0.185342   -0.000200
  14 F :   -0.183385    0.000832
  15 F :   -0.167633   -0.000492
  16 F :   -0.164797   -0.000091
  17 F :   -0.157588   -0.000152
  18 F :   -0.157133    0.000478
  19 F :   -0.153135    0.000155
  20 F :   -0.152886   -0.000040
  21 F :   -0.149129    0.000083
  22 F :   -0.145910   -0.000009
  23 F :   -0.136635   -0.000032
  24 F :   -0.134245    0.000300
  25 F :   -0.134167   -0.000015
Sum of atomic charges         :   -1.0000000
Sum of atomic spin populations:    1.0000000

-----------------------------------------------------
MULLIKEN REDUCED ORBITAL CHARGES AND SPIN POPULATIONS
-----------------------------------------------------
CHARGE
  0 C s       :     3.189615  s :     3.189615
      pz      :     0.855294  p :     2.618679
      px      :     0.926617
      py      :     0.836768
      dz2     :     0.038632  d :     0.199327
      dxz     :     0.040275
      dyz     :     0.057292
      dx2y2   :     0.035723
      dxy     :     0.027405
      f0      :     0.003601  f :     0.020685
      f+1     :     0.003356
      f-1     :     0.004254
      f+2     :     0.003056
      f-2     :     0.002231
      f+3     :     0.002396
      f-3     :     0.001790

  1 O s       :     3.815431  s :     3.815431
      pz      :     1.380940  p :     4.708714
      px      :     1.635405
      py      :     1.692369
      dz2     :     0.010240  d :     0.027299
      dxz     :     0.007363
      dyz     :     0.006670
      dx2y2   :     0.001421
      dxy     :     0.001605
      f0      :     0.000539  f :     0.001701
      f+1     :     0.000382
      f-1     :     0.000358
      f+2     :     0.000171
      f-2     :     0.000209
      f+3     :     0.000021
      f-3     :     0.000021

  2 O s       :     3.775404  s :     3.775404
      pz      :     1.578101  p :     4.672798
      px      :     1.724752
      py      :     1.369944
      dz2     :     0.004767  d :     0.028441
      dxz     :     0.005689
      dyz     :     0.009576
      dx2y2   :     0.005002
      dxy     :     0.003407
      f0      :     0.000036  f :     0.001578
      f+1     :     0.000201
      f-1     :     0.000242
      f+2     :     0.000165
      f-2     :     0.000375
      f+3     :     0.000284
      f-3     :     0.000274

  3 H s       :     0.643629  s :     0.643629
      pz      :     0.015372  p :     0.043487
      px      :     0.015874
      py      :     0.012242

  4 C s       :     2.958156  s :     2.958156
      pz      :     0.681042  p :     2.315066
      px      :     0.950538
      py      :     0.683486
      dz2     :     0.055613  d :     0.287306
      dxz     :     0.051733
      dyz     :     0.066001
      dx2y2   :     0.060632
      dxy     :     0.053327
      f0      :     0.004451  f :     0.026246
      f+1     :     0.004897
      f-1     :     0.005682
      f+2     :     0.002949
      f-2     :     0.001185
      f+3     :     0.004525
      f-3     :     0.002556

  5 C s       :     3.171296  s :     3.171296
      pz      :     0.638732  p :     2.273980
      px      :     0.935724
      py      :     0.699525
      dz2     :     0.059045  d :     0.296101
      dxz     :     0.058206
      dyz     :     0.069722
      dx2y2   :     0.050382
      dxy     :     0.058746
      f0      :     0.003767  f :     0.027590
      f+1     :     0.005213
      f-1     :     0.007670
      f+2     :     0.002413
      f-2     :     0.001738
      f+3     :     0.004370
      f-3     :     0.002419

  6 C s       :     3.123796  s :     3.123796
      pz      :     0.604792  p :     2.263201
      px      :     0.929215
      py      :     0.729194
      dz2     :     0.071854  d :     0.298905
      dxz     :     0.062185
      dyz     :     0.063495
      dx2y2   :     0.042740
      dxy     :     0.058631
      f0      :     0.004197  f :     0.028014
      f+1     :     0.004738
      f-1     :     0.007264
      f+2     :     0.002812
      f-2     :     0.003593
      f+3     :     0.003084
      f-3     :     0.002327

  7 C s       :     3.126663  s :     3.126663
      pz      :     0.587692  p :     2.251767
      px      :     0.928403
      py      :     0.735672
      dz2     :     0.081643  d :     0.302227
      dxz     :     0.063366
      dyz     :     0.057068
      dx2y2   :     0.039159
      dxy     :     0.060990
      f0      :     0.005996  f :     0.028293
      f+1     :     0.004087
      f-1     :     0.004749
      f+2     :     0.003978
      f-2     :     0.005121
      f+3     :     0.002334
      f-3     :     0.002027

  8 C s       :     3.133049  s :     3.133049
      pz      :     0.591658  p :     2.265293
      px      :     0.940224
      py      :     0.733410
      dz2     :     0.080841  d :     0.302328
      dxz     :     0.063663
      dyz     :     0.058729
      dx2y2   :     0.037458
      dxy     :     0.061637
      f0      :     0.005775  f :     0.028394
      f+1     :     0.004117
      f-1     :     0.005168
      f+2     :     0.003854
      f-2     :     0.005013
      f+3     :     0.002421
      f-3     :     0.002046

  9 C s       :     3.103716  s :     3.103716
      pz      :     0.613688  p :     2.277136
      px      :     0.943116
      py      :     0.720331
      dz2     :     0.067328  d :     0.296973
      dxz     :     0.063515
      dyz     :     0.068834
      dx2y2   :     0.036775
      dxy     :     0.060522
      f0      :     0.003898  f :     0.028498
      f+1     :     0.004922
      f-1     :     0.008023
      f+2     :     0.002645
      f-2     :     0.003245
      f+3     :     0.003342
      f-3     :     0.002425

 10 C s       :     3.020773  s :     3.020773
      pz      :     0.656864  p :     2.168566
      px      :     0.833098
      py      :     0.678603
      dz2     :     0.070048  d :     0.362387
      dxz     :     0.071753
      dyz     :     0.086581
      dx2y2   :     0.067486
      dxy     :     0.066519
      f0      :     0.004138  f :     0.040438
      f+1     :     0.007480
      f-1     :     0.010232
      f+2     :     0.003712
      f-2     :     0.004142
      f+3     :     0.006935
      f-3     :     0.003799

 11 F s       :     3.912535  s :     3.912535
      pz      :     1.887317  p :     5.284139
      px      :     1.913357
      py      :     1.483465
      dz2     :     0.001921  d :     0.013732
      dxz     :     0.000229
      dyz     :     0.003016
      dx2y2   :     0.005425
      dxy     :     0.003141
      f0      :     0.000055  f :     0.000615
      f+1     :     0.000009
      f-1     :     0.000115
      f+2     :     0.000100
      f-2     :     0.000013
      f+3     :     0.000127
      f-3     :     0.000195

 12 F s       :     3.911608  s :     3.911608
      pz      :     1.476826  p :     5.288238
      px      :     1.918102
      py      :     1.893310
      dz2     :     0.007185  d :     0.013595
      dxz     :     0.003122
      dyz     :     0.002827
      dx2y2   :     0.000306
      dxy     :     0.000155
      f0      :     0.000309  f :     0.000607
      f+1     :     0.000131
      f-1     :     0.000144
      f+2     :     0.000014
      f-2     :     0.000007
      f+3     :     0.000001
      f-3     :     0.000001

 13 F s       :     3.916261  s :     3.916261
      pz      :     1.849684  p :     5.253335
      px      :     1.910562
      py      :     1.493090
      dz2     :     0.001954  d :     0.015075
      dxz     :     0.000420
      dyz     :     0.004159
      dx2y2   :     0.005217
      dxy     :     0.003325
      f0      :     0.000071  f :     0.000671
      f+1     :     0.000005
      f-1     :     0.000113
      f+2     :     0.000153
      f-2     :     0.000034
      f+3     :     0.000121
      f-3     :     0.000172

 14 F s       :     3.915336  s :     3.915336
      pz      :     1.451798  p :     5.252227
      px      :     1.910060
      py      :     1.890368
      dz2     :     0.008102  d :     0.015142
      dxz     :     0.003614
      dyz     :     0.003034
      dx2y2   :     0.000242
      dxy     :     0.000150
      f0      :     0.000363  f :     0.000680
      f+1     :     0.000158
      f-1     :     0.000144
      f+2     :     0.000008
      f-2     :     0.000005
      f+3     :     0.000001
      f-3     :     0.000001

 15 F s       :     3.917090  s :     3.917090
      pz      :     1.754131  p :     5.234307
      px      :     1.900586
      py      :     1.579590
      dz2     :     0.002148  d :     0.015545
      dxz     :     0.001198
      dyz     :     0.005715
      dx2y2   :     0.003658
      dxy     :     0.002826
      f0      :     0.000077  f :     0.000691
      f+1     :     0.000007
      f-1     :     0.000147
      f+2     :     0.000196
      f-2     :     0.000092
      f+3     :     0.000080
      f-3     :     0.000091

 16 F s       :     3.915596  s :     3.915596
      pz      :     1.476343  p :     5.232901
      px      :     1.906035
      py      :     1.850523
      dz2     :     0.007217  d :     0.015603
      dxz     :     0.003397
      dyz     :     0.004061
      dx2y2   :     0.000440
      dxy     :     0.000487
      f0      :     0.000290  f :     0.000697
      f+1     :     0.000129
      f-1     :     0.000208
      f+2     :     0.000030
      f-2     :     0.000037
      f+3     :     0.000002
      f-3     :     0.000002

 17 F s       :     3.917809  s :     3.917809
      pz      :     1.643956  p :     5.223263
      px      :     1.902279
      py      :     1.677028
      dz2     :     0.003332  d :     0.015814
      dxz     :     0.002010
      dyz     :     0.006330
      dx2y2   :     0.002194
      dxy     :     0.001948
      f0      :     0.000089  f :     0.000702
      f+1     :     0.000029
      f-1     :     0.000237
      f+2     :     0.000170
      f-2     :     0.000105
      f+3     :     0.000036
      f-3     :     0.000036

 18 F s       :     3.917306  s :     3.917306
      pz      :     1.548858  p :     5.223299
      px      :     1.900958
      py      :     1.773482
      dz2     :     0.005194  d :     0.015825
      dxz     :     0.002851
      dyz     :     0.005522
      dx2y2   :     0.001084
      dxy     :     0.001172
      f0      :     0.000159  f :     0.000704
      f+1     :     0.000078
      f-1     :     0.000265
      f+2     :     0.000094
[...]

 17 F s       :     0.000061  s :     0.000061
      pz      :     0.000558  p :     0.000208
      px      :    -0.000156
      py      :    -0.000193
      dz2     :     0.000054  d :     0.000176
      dxz     :     0.000005
      dyz     :     0.000016
      dx2y2   :     0.000097
      dxy     :     0.000003
      f0      :     0.000001  f :     0.000008
      f+1     :     0.000000
      f-1     :     0.000003
      f+2     :     0.000001
      f-2     :     0.000000
      f+3     :     0.000000
      f-3     :     0.000002

 18 F s       :     0.000410  s :     0.000410
      pz      :     0.000906  p :     0.000445
      px      :    -0.000181
      py      :    -0.000281
      dz2     :     0.000033  d :     0.000087
      dxz     :     0.000002
      dyz     :    -0.000001
      dx2y2   :     0.000058
      dxy     :    -0.000005
      f0      :     0.000001  f :     0.000004
      f+1     :     0.000000
      f-1     :     0.000001
      f+2     :     0.000001
      f-2     :    -0.000000
      f+3     :    -0.000000
      f-3     :     0.000001

 19 F s       :     0.000297  s :     0.000297
      pz      :     0.000386  p :     0.000289
      px      :    -0.000058
      py      :    -0.000038
      dz2     :     0.000003  d :     0.000051
      dxz     :     0.000003
      dyz     :     0.000023
      dx2y2   :     0.000024
      dxy     :    -0.000003
      f0      :    -0.000000  f :     0.000002
      f+1     :     0.000000
      f-1     :     0.000001
      f+2     :     0.000000
      f-2     :     0.000000
      f+3     :     0.000000
      f-3     :     0.000000

 20 F s       :     0.000027  s :     0.000027
      pz      :     0.000041  p :     0.000164
      px      :    -0.000047
      py      :     0.000170
      dz2     :     0.000026  d :     0.000102
      dxz     :     0.000011
      dyz     :     0.000016
      dx2y2   :     0.000041
      dxy     :     0.000008
      f0      :     0.000001  f :     0.000005
      f+1     :     0.000000
      f-1     :     0.000000
      f+2     :     0.000001
      f-2     :     0.000001
      f+3     :     0.000000
      f-3     :     0.000000

 21 F s       :     0.000138  s :     0.000138
      pz      :     0.000093  p :     0.000164
      px      :    -0.000030
      py      :     0.000101
      dz2     :    -0.000000  d :     0.000019
      dxz     :     0.000003
      dyz     :     0.000015
      dx2y2   :     0.000002
      dxy     :    -0.000001
      f0      :     0.000000  f :     0.000001
      f+1     :     0.000000
      f-1     :     0.000000
      f+2     :     0.000000
      f-2     :     0.000000
      f+3     :     0.000000
      f-3     :     0.000000

 22 F s       :     0.000007  s :     0.000007
      pz      :    -0.000074  p :     0.000070
      px      :    -0.000030
      py      :     0.000174
      dz2     :     0.000007  d :     0.000046
      dxz     :     0.000006
      dyz     :     0.000022
      dx2y2   :     0.000011
      dxy     :     0.000001
      f0      :     0.000000  f :     0.000002
      f+1     :     0.000000
      f-1     :     0.000001
      f+2     :     0.000001
      f-2     :     0.000000
      f+3     :     0.000000
      f-3     :     0.000000

 23 F s       :     0.000014  s :     0.000014
      pz      :     0.000017  p :     0.000016
      px      :     0.000043
      py      :    -0.000043
      dz2     :    -0.000000  d :     0.000006
      dxz     :    -0.000000
      dyz     :     0.000004
      dx2y2   :     0.000004
      dxy     :    -0.000002
      f0      :     0.000000  f :     0.000000
      f+1     :    -0.000000
      f-1     :     0.000000
      f+2     :     0.000000
      f-2     :    -0.000000
      f+3     :     0.000000
      f-3     :     0.000000

 24 F s       :     0.000070  s :     0.000070
      pz      :    -0.000004  p :     0.000489
      px      :     0.000496
      py      :    -0.000003
      dz2     :     0.000006  d :     0.000044
      dxz     :     0.000005
      dyz     :     0.000000
      dx2y2   :     0.000030
      dxy     :     0.000003
      f0      :     0.000000  f :     0.000002
      f+1     :     0.000000
      f-1     :     0.000000
      f+2     :     0.000000
      f-2     :    -0.000000
      f+3     :     0.000000
      f-3     :     0.000001

 25 F s       :     0.000002  s :     0.000002
      pz      :    -0.000034  p :     0.000022
      px      :    -0.000022
      py      :     0.000078
      dz2     :     0.000002  d :     0.000016
      dxz     :     0.000001
      dyz     :     0.000011
      dx2y2   :     0.000001
      dxy     :     0.000001
      f0      :     0.000000  f :     0.000001
      f+1     :     0.000000
      f-1     :     0.000000
      f+2     :     0.000000
      f-2     :     0.000000
      f+3     :     0.000000
      f-3     :    -0.000000



                      *****************************
                      * MAYER POPULATION ANALYSIS *
                      *****************************

  NA   - Mulliken gross atomic population
  ZA   - Total nuclear charge
  QA   - Mulliken gross atomic charge
  VA   - Mayer's total valence
  BVA  - Mayer's bonded valence
  FA   - Mayer's free valence

  ATOM       NA         ZA         QA         VA         BVA        FA
  0 C      6.0106     6.0000    -0.0106     4.3690     4.0936     0.2753
  1 O      8.5383     8.0000    -0.5383     1.9504     1.8982     0.0521
  2 O      8.4740     8.0000    -0.4740     1.9065     1.9034     0.0031
  3 H      0.6843     1.0000     0.3157     0.9439     0.9438     0.0002
  4 C      5.6008     6.0000     0.3992     3.8532     3.8397     0.0135
  5 C      5.7683     6.0000     0.2317     4.0865     4.0693     0.0172
  6 C      5.7164     6.0000     0.2836     4.2000     4.1974     0.0026
  7 C      5.7106     6.0000     0.2894     4.2360     4.2353     0.0008
  8 C      5.7284     6.0000     0.2716     4.2174     4.2172     0.0001
  9 C      5.7061     6.0000     0.2939     4.2502     4.2502     0.0000
 10 C      5.5921     6.0000     0.4079     4.5719     4.5719     0.0000
 11 F      9.2154     9.0000    -0.2154     1.0511     1.0510     0.0001
 12 F      9.2151     9.0000    -0.2151     1.0496     1.0495     0.0001
 13 F      9.1894     9.0000    -0.1894     1.1207     1.1207     0.0000
 14 F      9.1855     9.0000    -0.1855     1.1280     1.1280     0.0000
 15 F      9.1695     9.0000    -0.1695     1.1447     1.1447     0.0000
 16 F      9.1676     9.0000    -0.1676     1.1471     1.1471     0.0000
 17 F      9.1589     9.0000    -0.1589     1.1623     1.1622     0.0000
 18 F      9.1589     9.0000    -0.1589     1.1640     1.1640     0.0000
 19 F      9.1543     9.0000    -0.1543     1.1725     1.1725     0.0000
 20 F      9.1536     9.0000    -0.1536     1.1711     1.1711     0.0000
 21 F      9.1496     9.0000    -0.1496     1.1759     1.1759     0.0000
 22 F      9.1463     9.0000    -0.1463     1.1776     1.1776     0.0000
 23 F      9.1370     9.0000    -0.1370     1.1870     1.1870     0.0000
 24 F      9.1346     9.0000    -0.1346     1.1888     1.1888     0.0000
 25 F      9.1344     9.0000    -0.1344     1.1902     1.1902     0.0000

  Mayer bond orders larger than 0.100000
B(  0-C ,  1-O ) :   1.7942 B(  0-C ,  2-O ) :   1.0759 B(  0-C ,  4-C ) :   0.9956 
B(  2-O ,  3-H ) :   0.8627 B(  4-C ,  5-C ) :   0.8385 B(  4-C , 11-F ) :   1.0129 
B(  4-C , 12-F ) :   1.0129 B(  5-C ,  6-C ) :   0.9072 B(  5-C , 13-F ) :   1.0533 
B(  5-C , 14-F ) :   1.0669 B(  6-C ,  7-C ) :   0.9453 B(  6-C , 15-F ) :   1.0702 
B(  6-C , 16-F ) :   1.0822 B(  7-C ,  8-C ) :   0.9425 B(  7-C , 17-F ) :   1.0824 
B(  7-C , 18-F ) :   1.0874 B(  8-C ,  9-C ) :   0.9426 B(  8-C , 19-F ) :   1.0918 
B(  8-C , 20-F ) :   1.0965 B(  9-C , 10-C ) :   0.9713 B(  9-C , 21-F ) :   1.0983 
B(  9-C , 22-F ) :   1.1097 B( 10-C , 23-F ) :   1.1594 B( 10-C , 24-F ) :   1.1601 
B( 10-C , 25-F ) :   1.1703 

-------
TIMINGS
-------

Total SCF time: 0 days 0 hours 0 min 37 sec 

Total time                  ....      37.742 sec
Sum of individual times     ....      36.504 sec  ( 96.7%)

SCF preparation             ....       1.398 sec  (  3.7%)
Fock matrix formation       ....      31.144 sec  ( 82.5%)
  Startup                   ....       0.164 sec  (  0.5% of F)
  Split-RI-J                ....       1.572 sec  (  5.0% of F)
  Chain of spheres X        ....      22.410 sec  ( 72.0% of F)
  XC integration            ....       5.430 sec  ( 17.4% of F)
    XC Preparation          ....       0.000 sec  (  0.0% of XC)
    Basis function eval.    ....       0.371 sec  (  6.8% of XC)
    Density eval.           ....       1.674 sec  ( 30.8% of XC)
    XC-Functional eval.     ....       0.057 sec  (  1.0% of XC)
    XC-Potential eval.      ....       1.840 sec  ( 33.9% of XC)
  CPCM terms                ....       1.309 sec  (  4.2% of F)
Diagonalization             ....       0.000 sec  (  0.0%)
Density matrix formation    ....       0.276 sec  (  0.7%)
Total Energy calculation    ....       0.193 sec  (  0.5%)
Population analysis         ....       0.449 sec  (  1.2%)
Orbital Transformation      ....       0.546 sec  (  1.4%)
Orbital Orthonormalization  ....       0.000 sec  (  0.0%)
DIIS solution               ....       0.691 sec  (  1.8%)
SOSCF solution              ....       1.806 sec  (  4.8%)
Finished LeanSCF after  38.1 sec

Maximum memory used throughout the entire LEANSCF-calculation: 111.5 MB


-------------------------------------------------------------------------------
                          DFT DISPERSION CORRECTION                            
                                                                               
                              DFTD3 V3.1  Rev 1                                
                          USING Becke-Johnson damping                          
-------------------------------------------------------------------------------
The TPSSH functional is recognized
Active option DFTDOPT                   ...         4   

molecular C6(AA) [au] = 6841.395558 


            DFT-D V3
 parameters
 s6 scaling factor         :     1.0000 
 a1 scaling factor         :     0.4529 
 s8 scaling factor         :     2.2382 
 a2 scaling factor         :     4.6550 
 ad hoc parameters k1-k3   :    16.0000     1.3333    -4.0000 

 Edisp/kcal,au: -19.441267302539  -0.030981628218 
 E6   /kcal   :  -9.458084307 
 E8   /kcal   :  -9.983182995 
 % E8         :  51.350474431 

-------------------------   ----------------
Dispersion correction           -0.030981628
-------------------------   ----------------


-------------------------   --------------------
FINAL SINGLE POINT ENERGY     -1954.421231892666
-------------------------   --------------------

                                *** OPTIMIZATION RUN DONE ***



           ************************************************************
           *        Program running with 20 parallel MPI-processes    *
           *              working on a common directory               *
           ************************************************************

------------------------------------------------------------------------------
                              ORCA PROPERTY CALCULATIONS
------------------------------------------------------------------------------

GBWName                                 ... rf_mecn_opt_TP_P_A.gbw
Number of atoms                         ...     26
Number of basis functions               ...    781
Max core memory                         ...   8000 MB

Electric properties:
Dipole moment                           ... YES
Quadrupole moment                       ...  NO
Static polarizability (Dipole/Dipole)   ...  NO
Static polarizability (Dipole/Quad.)    ...  NO
Static polarizability (Quad./Quad.)     ...  NO
Static polarizability (Velocity)        ...  NO

Atomic electric properties:
Dipole moment                           ...  NO
Quadrupole moment                       ...  NO
Static polarizability                   ...  NO

Choice of electric origin               ... Center of mass
Position of electric origin             ...    -0.078920    -0.019535    -0.006833

General magnetic properties:
Magnetizability                         ...  NO

EPR properties:
g-Tensor (aka g-matrix)                 ...  NO
Zero-Field splitting spin-orbit         ...  NO
Zero-field splitting spin-spin          ...  NO
Hyperfine couplings                     ...  NO (   0 nuclei)
Quadrupole couplings                    ...  NO (   0 nuclei)
Contact density                         ...  NO (   0 nuclei)

NMR properties:
Chemical shifts                         ...  NO (   0 nuclei)
Spin-rotation constants                 ...  NO (   0 nuclei)
Spin-spin couplings                     ...  NO (   0 nuclei,    0 pairs)

Choice of magnetic origin               ... GIAO
Position of magnetic origin             ...     0.000000     0.000000     0.000000

Properties with geometric perturbations:
SCF Hessian                             ...  NO
IR spectrum                             ...  NO
VCD spectrum                            ...  NO
X-ray spectroscopy properties:
SCF XES/XAS/RIXS spectra                ...  NO


-------------
DIPOLE MOMENT
-------------

Method             : SCF
Type of density    : Electron Density
Multiplicity       :   2
Irrep              :   0
Energy             : -1954.3902502644475589 Eh
Relativity type    : 
Basis              : AO
                                X                 Y                 Z
Electronic contribution:    -22.750193821      -1.918719776       1.716201536
Nuclear contribution   :     15.608434058       2.562959658      -1.243738163
                        -----------------------------------------
Total Dipole Moment    :     -7.141759762       0.644239882       0.472463373
                        -----------------------------------------
Magnitude (a.u.)       :      7.186306365
Magnitude (Debye)      :     18.266139145



--------------------
Rotational spectrum 
--------------------
 
Rotational constants in cm-1:             0.021049             0.003634             0.003595 
Rotational constants in MHz :           631.023875           108.940346           107.769103 

Dipole components along the rotational axes: 
x,y,z [a.u.] :    -7.143102     0.652431     0.439802 
x,y,z [Debye]:   -18.156323     1.658348     1.117888 

 

Dipole moment calculation done in   0.1 sec 

Maximum memory used throughout the entire PROP-calculation: 59.0 MB

--------------------------------
SUGGESTED CITATIONS FOR THIS RUN
--------------------------------

Below you find a list of papers that are relevant to this ORCA run
We neither can nor want to force you to cite these papers, but we appreciate if you do
You receive ORCA, which is the product of decades of hard work by many enthusiastic individuals, for free
The only thing we kindly ask in return is that you cite our papers,
We deeply appreciate it, if you show your appreciation for ORCA by not just citing the generic ORCA reference.

Please note that relegating all ORCA citations to the supporting information does *not* help us.
SI sections are not indexed - citations you put there will not count into any citation statistics
But we need these citations in order to attract the funding resources that allow us to do what we are doing

Therefore, if you are a happy ORCA user, please consider citing a few of the papers listed below in the main body of your paper

In addition to the list printed below, the program has created the file rf_mecn_opt_TP_P_A.bibtex that contains the list in bibtex format
You can import this file easily into all common literature databanks and citation aid programs


List of essential papers. We consider these as the minimum necessary citations

  1. Neese,F.
     Software update: the ORCA program system, version 5.0
     WIRES Comput. Molec. Sci., 2022 12(1)e1606
     doi.org/10.1002/wcms.1606

List of papers to cite with high priority. The work reported in these papers was absolutely
necessary for this run to complete.
Our perspective: the developers of density functionals and basis sets usually get cited in chemistry papers
Good! But without the algorithms to do something with them, the functionals or basis sets would not do anything.
Hence, in our opinion, the algorithm design and method developments papers are equally worthy of getting cited

  1. Neese,F.
     An improvement of the resolution of the identity approximation for the formation of the Coulomb matrix
     J. Comp. Chem., 2003 24(14)1740-1747
     doi.org/10.1002/jcc.10318
  2. Neese,F.; Wennmohs,F.; Hansen,A.; Becker,U.
     Efficient, approximate and parallel Hartree-Fock and hybrid DFT calculations. A 'chain-of-spheres' algorithm for the Hartree-Fock exchange
     Chem. Phys., 2009 356(1-3)98-109
     doi.org/10.1016/j.chemphys.2008.10.036
  3. Garcia-Rates,M.; Neese,F.
     Effect of the Solute Cavity on the Solvation Energy and its Derivatives within the Framework of the Gaussian Charge Scheme
     J. Comput. Chem., 2020 41 922-939
     doi.org/10.1002/jcc.26139
  4. Helmich-Paris,B.; de Souza,B.; Neese,F.; Izsák,R.
     An improved chain of spheres for exchange algorithm
     J. Chem. Phys., 2021 155 104109
     doi.org/doi: 10.1063/5.0058766.
  5. Neese,F.
     The SHARK Integral Generation and Digestion System
     J. Comp. Chem., 2022  1-16
     doi.org/10.1002/jcc.26942
  6. Grimme,S.; Antony,J.; Ehrlich,S.; Krieg,H.
     A consistent and accurate ab initio parametrization of density functional dispersion correction (DFT-D) for the 94 elements H-Pu
     J. Chem. Phys., 2010 132 154104
     doi.org/10.1063/1.3382344
  7. Grimme,S.; Ehrlich,S.; Goerigk,L.
     Effect of the damping function in dispersion corrected density functional theory
     J. Comput. Chem., 2011 32(7)1456-1465
     doi.org/10.1002/jcc.21759

List of suggested additional citations. These are papers that are important in the 'surrounding' of 
of this run, or papers that preceded the highly important papers. If you like your results we are grateful for a citation.

  1. Izsak,R.; Neese,F.
     An overlap fitted chain of spheres exchange method
     J. Chem. Phys., 2011 135 144105
     doi.org/10.1063/1.3646921
  2. Izsak,R.; Hansen,A.; Neese,F.
     The resolution of identity and chain of spheres approximations for the LPNO-CCSD singles Fock term
     Molec. Phys., 2012 110 2413-2417
     doi.org/10.1080/00268976.2012.687466
  3. Neese,F.
     The ORCA program system
     WIRES Comput. Molec. Sci., 2012 2(1)73-78
     doi.org/10.1002/wcms.81
  4. Izsak,R.; Neese,F.; Klopper,W.
     Robust fitting techniques in the chain of spheres approximation to the Fock exchange: The role of the complementary space
     J. Chem. Phys., 2013 139 
     doi.org/10.1063/1.4819264
  5. Neese,F.
     Software update: the ORCA program system, version 4.0
     WIRES Comput. Molec. Sci., 2018 8(1)1-6
     doi.org/10.1002/wcms.1327
  6. Neese,F.; Wennmohs,F.; Becker,U.; Riplinger,C.
     The ORCA quantum chemistry program package
     J. Chem. Phys., 2020 152 Art. No. L224108
     doi.org/10.1063/5.0004608

List of optional additional citations

  1. Neese,F.
     Approximate second-order SCF convergence for spin unrestricted wavefunctions
     Chem. Phys. Lett., 2000 325(1-3)93-98
     doi.org/10.1016/s0009-2614(00)00662-x

Timings for individual modules:

Sum of individual times          ...      777.385 sec (=  12.956 min)
Startup calculation              ...       41.629 sec (=   0.694 min)   5.4 %
SCF iterations                   ...      565.938 sec (=   9.432 min)  72.8 %
Property calculations            ...        0.800 sec (=   0.013 min)   0.1 %
SCF Gradient evaluation          ...      168.830 sec (=   2.814 min)  21.7 %
Geometry relaxation              ...        0.187 sec (=   0.003 min)   0.0 %
                             ****ORCA TERMINATED NORMALLY****
TOTAL RUN TIME: 0 days 0 hours 13 minutes 3 seconds 598 msec
