
                                 *****************
                                 * O   R   C   A *
                                 *****************

                                            #,                                       
                                            ###                                      
                                            ####                                     
                                            #####                                    
                                            ######                                   
                                           ########,                                 
                                     ,,################,,,,,                         
                               ,,#################################,,                 
                          ,,##########################################,,             
                       ,#########################################, ''#####,          
                    ,#############################################,,   '####,        
                  ,##################################################,,,,####,       
                ,###########''''           ''''###############################       
              ,#####''   ,,,,##########,,,,          '''####'''          '####       
            ,##' ,,,,###########################,,,                        '##       
           ' ,,###''''                  '''############,,,                           
         ,,##''                                '''############,,,,        ,,,,,,###''
      ,#''                                            '''#######################'''  
     '                                                          ''''####''''         
             ,#######,   #######,   ,#######,      ##                                
            ,#'     '#,  ##    ##  ,#'     '#,    #''#        ,####,   ,####,        
            ##       ##  ##   ,#'  ##            #'  '#       #'       #'  '#        
            ##       ##  #######   ##           ,######,      #####,   #    #        
            '#,     ,#'  ##    ##  '#,     ,#' ,#      #,     #,   #   #,  ,#        
             '#######'   ##     ##  '#######'  #'      '#     '####' # '####'        



                #########################################################
                #                        -***-                          #
                #          Department of theory and spectroscopy        #
                #                                                       #
                #                      Frank Neese                      #
                #                                                       #
                #     Directorship, Architecture, Infrastructure        #
                #                    SHARK, DRIVERS                     #
                #        Core code/Algorithms in most modules           #
                #                                                       #
                #        Max Planck Institute fuer Kohlenforschung      #
                #                Kaiser Wilhelm Platz 1                 #
                #                 D-45470 Muelheim/Ruhr                 #
                #                      Germany                          #
                #                                                       #
                #                  All rights reserved                  #
                #                        -***-                          #
                #########################################################


                         Program Version 6.0.1  -  RELEASE   -


 With contributions from (in alphabetic order):
[Max-Planck-Institut fuer Kohlenforschung]                               
  Daniel Aravena         : Magnetic Suceptibility                        
  Michael Atanasov       : Ab Initio Ligand Field Theory (pilot matlab implementation)
  Alexander A. Auer      : GIAO ZORA, VPT2 properties, NMR spectrum      
  Ute Becker             : All parallelization in ORCA, NUMFREQ, NUMCALC 
  Giovanni Bistoni       : ED, misc. LED, open-shell LED, HFLD           
  Martin Brehm           : Molecular dynamics                            
  Dmytro Bykov           : pre 5.0 version of the SCF Hessian            
  Marcos Casanova-Páez   : Triplet and SCS-CIS(D). UHF-(DLPNO)-IP/EA/STEOM-CCSD. UHF-CVS-IP/STEOM-CCSD   
  Vijay G. Chilkuri      : MRCI spin determinant printing, contributions to CSF-ICE 
  Pauline Colinet        : FMM embedding                                 
  Dipayan Datta          : RHF DLPNO-CCSD density                        
  Achintya Kumar Dutta   : EOM-CC, STEOM-CC                              
  Nicolas Foglia         : Exact transition moments, OPA infrastructure, MCD improvements    
  Dmitry Ganyushin       : Spin-Orbit,Spin-Spin,Magnetic field MRCI      
  Miquel Garcia-Rates    : C-PCM and meta-GGA Hessian, CCSD/C-PCM, Gaussian charge scheme 
  Tiago L. C. Gouveia    : GS-ROHF, GS-ROCIS                             
  Yang Guo               : DLPNO-NEVPT2, F12-NEVPT2, CIM, IAO-localization        
  Andreas Hansen         : Spin unrestricted coupled pair/coupled cluster methods 
  Ingolf Harden          : AUTO-CI MPn and infrastructure                
  Benjamin Helmich-Paris : MC-RPA, TRAH-(SCF,CASSCF), AVAS, COSX integrals, SCF dyn. polar. 
  Lee Huntington         : MR-EOM, pCC                                   
  Robert Izsak           : Overlap fitted RIJCOSX, COSX-SCS-MP3, EOM     
  Riya Kayal             : Wick's Theorem for AUTO-CI, AUTO-CI UHF-CCSDT 
  Emily Kempfer          : AUTO-CI, RHF CISDT and CCSDT                  
  Christian Kollmar      : KDIIS, OOCD, Brueckner-CCSD(T), CCSD density, CASPT2, CASPT2-K, improved NEVPT2 
  Axel Koslowski         : Symmetry handling                             
  Simone Kossmann        : meta-GGA functionals, TD-DFT gradient, OOMP2, (MP2 Hessian; deprecated post 5.0) 
  Lucas Lang             : DCDCAS                                        
  Marvin Lechner         : AUTO-CI (C++ implementation), FIC-MRCC        
  Spencer Leger          : CASSCF response                               
  Dagmar Lenk            : GEPOL surface, SMD, ORCA-2-JSON               
  Dimitrios Liakos       : Extrapolation schemes; Compound Job, initial MDCI parallelization 
  Dimitrios Manganas     : Further ROCIS development; embedding schemes. LFT, Crystal Embedding 
  Dimitrios Pantazis     : SARC Basis sets                               
  Anastasios Papadopoulos: AUTO-CI, single reference methods and gradients 
  Taras Petrenko         : pre 6.0 DFT Hessian and TD-DFT gradient, (ASA, deprecated), ECA, 1-Electron XAS/XES, NRVS 
  Peter Pinski           : DLPNO-MP2, DLPNO-MP2 Gradient                 
  Christoph Reimann      : Effective Core Potentials                     
  Marius Retegan         : Local ZFS, SOC                                
  Christoph Riplinger    : Optimizer, TS searches, QM/MM, DLPNO-CCSD(T), (RO)-DLPNO pert. Triples 
  Michael Roemelt        : Original ROCIS implementation                 
  Masaaki Saitow         : Open-shell DLPNO-CCSD energy and density      
  Barbara Sandhoefer     : DKH picture change effects                    
  Kantharuban Sivalingam : CASSCF convergence/infrastructure, NEVPT2 and variants, FIC-MRCI 
  Bernardo de Souza      : ESD, SOC TD-DFT                               
  Georgi L. Stoychev     : AutoAux, RI-MP2 NMR, DLPNO-MP2 response, X2C  
  Van Anh Tran           : RI-MP2 g-tensors                              
  Willem Van den Heuvel  : Paramagnetic NMR                              
  Zikuan Wang            : NOTCH, Electric field optimization            
  Frank Wennmohs         : Technical directorship and infrastructure     
  Hang Xu                : AUTO-CI-Response properties                   
                                                                         
[FACCTs GmbH]                                                            
  Markus Bursch, Miquel Garcia-Rates, Christoph Riplinger, Bernardo de Souza, Georgi L. Stoychev 
                                                                 
  APM, Basis sets (HGBS, AHGBS, def-TZVP (Ac-Lr), def2-XVPD (La-Lu)), CI-OPT, improved COSX, DLPNO-Multilevel,           
  DOCKER, DRACO, updates on ESD, GOAT, IRC, LR-CPCM, MBIS, meta-GGA TD-DFT gradient, ML-optimized integration grids, 
  MM, NACMEs, nearIR, NEB, NEB-TS, NL-DFT gradient (VV10), 2- and 3-layer-ONIOM, interface openCOSMO-RS, QMMM,   
  Crystal-QMMM, SF, symmetry and pop. for TD-DFT, r2SCAN hybrids, SOLVATOR                                   
                                                                         
[Other institutions]                                                     
  V. Asgeirsson          : NEB                                           
  Christoph Bannwarth    : sTDA-DFT, sTD-DFT, PBEh-3c, B97-3c, D3        
  Sebastian Ehlert       : rSCAN, r2SCAN, r2SCAN-3c, D4, dhf basis sets  
  Marvin Friede          : D4 for Fr, Ra, Ac-Lr                          
  Lars Goerigk           : TD-DFT with DH, B97 family of functionals     
  Stefan Grimme          : VdW corrections, initial TS optimization, DFT functionals, gCP, sTDA/sTD-DF 
  Waldemar Hujo          : DFT-NL                                        
  H. Jonsson             : NEB                                           
  Holger Kruse           : gCP                                           
  Marcel Mueller         : wB97X-3c, vDZP basis set                      
  Hagen Neugebauer       : wr2SCAN                                       
  Tobias Risthaus        : range-separated hybrid DFT                    
  Lukas Wittmann         : regularized MP2, r2SCAN double-hybrids, wr2SCAN        
                                                                         
We gratefully acknowledge several colleagues who have allowed us to      
interface, adapt or use parts of their codes:                            
  Ed Valeev, F. Pavosevic, A. Kumar             : LibInt (2-el integral package), F12 methods 
  Garnet Chan, S. Sharma, J. Yang, R. Olivares  : DMRG                   
  Ulf Ekstrom                                   : XCFun DFT Library      
  Mihaly Kallay                                 : mrcc  (arbitrary order and MRCC methods)
  Frank Weinhold                                : gennbo (NPA and NBO analysis)           
  Simon Mueller                                 : openCOSMO-RS                            
  Christopher J. Cramer and Donald G. Truhlar   : smd solvation model                     
  S Lehtola, MJT Oliveira, MAL Marques          : LibXC Library                           
  Liviu Ungur et al                             : ANISO software                          


 Your calculation uses the libint2 library for the computation of 2-el integrals
 For citations please refer to: http://libint.valeyev.net

 Your ORCA version has been built with support for libXC version: 6.2.2
 For citations please refer to: https://libxc.gitlab.io

 This ORCA versions uses:
   CBLAS   interface :  Fast vector & matrix operations
   LAPACKE interface :  Fast linear algebra routines
   SCALAPACK package :  Parallel linear algebra routines
   Shared memory     :  Shared parallel matrices
   BLAS/LAPACK       :  OpenBLAS 0.3.27  USE64BITINT DYNAMIC_ARCH NO_AFFINITY SkylakeX SINGLE_THREADED
        Core in use  :  SkylakeX
   Copyright (c) 2011-2014, The OpenBLAS Project


NOTE: MaxCore=8000 MB was set to SCF,MP2,MDCI,CIPSI,MRCI and CIS
      => If you want to overwrite this, your respective input block should be placed after the MaxCore statement
Your calculation utilizes the atom-pairwise dispersion correction
with the Becke-Johnson damping scheme (D3BJ)


Your calculation utilizes the SMD solvation module
Please cite in your paper:
A.V. Marenich, C.J. Cramer, D.G. Truhlar J. Phys. Chem. B, 113, (2009), 6378 

Warning: RI is on but no J-basis has been assigned. Assigning Def2/J (nothing to worry about!)
================================================================================

----- Orbital basis set information -----
Your calculation utilizes the basis: def2-TZVP
   F. Weigend and R. Ahlrichs, Phys. Chem. Chem. Phys. 7, 3297 (2005).

----- AuxJ basis set information -----
Your calculation utilizes the auxiliary basis: def2/J
   F. Weigend, Phys. Chem. Chem. Phys. 8, 1057 (2006).

================================================================================
                                        WARNINGS
                       Please study these warnings very carefully!
================================================================================


WARNING: your system is open-shell and RHF/RKS was chosen
  ===> : WILL SWITCH to UHF/UKS


WARNING: Geometry Optimization
  ===> : Switching off AutoStart
         For restart on a previous wavefunction, please use MOREAD

================================================================================
                                       INPUT FILE
================================================================================
NAME = rf_mecn_opt_TP_C2_P_B.inp
|  1> !TPSSh def2-TZVP opt d3 TightSCF SlowConv defgrid2
|  2>  
|  3> %pal
|  4> nprocs 20
|  5> end
|  6>  
|  7> %scf
|  8> MaxIter 1500
|  9> end
| 10>  
| 11> %maxcore 8000
| 12>  
| 13> !CPCM
| 14> %cpcm smd true
| 15> SMDsolvent "ACETONITRILE"
| 16> end
| 17>  
| 18> * xyz 0 2
| 19> 6        4.790427000     -0.033865800     -0.529943200
| 20> 8        5.449345000     -1.206924000     -0.894594600
| 21> 8        4.978223000      1.323071000     -0.737377200
| 22> 6        3.506687600     -0.338741600      0.376153800
| 23> 6        2.222300000      0.400524800     -0.110681600
| 24> 6        0.900506800     -0.386389800      0.175703000
| 25> 6       -0.395261200      0.487294000      0.065549000
| 26> 6       -1.705693600     -0.364773800     -0.068373600
| 27> 6       -3.005136200      0.445344800      0.258164000
| 28> 6       -4.319880200     -0.214526000     -0.270540800
| 29> 9        3.211587400     -1.692050400      0.412735200
| 30> 9        2.125696800      1.616867800      0.483236600
| 31> 9        2.314152400      0.589704000     -1.455769200
| 32> 9        0.794028800     -1.413561400     -0.700839000
| 33> 9        0.958350600     -0.884509000      1.435093400
| 34> 9       -0.498373400      1.260265600      1.173340200
| 35> 9       -0.299075000      1.289512600     -1.020910800
| 36> 9       -1.641790400     -1.418189000      0.779523800
| 37> 9       -1.792381400     -0.831391600     -1.336863600
| 38> 9       -2.918792200      1.679227200     -0.295171200
| 39> 9       -3.119771000      0.573779800      1.598579800
| 40> 9       -4.383115600     -1.504377600      0.089127600
| 41> 9       -5.365669800      0.430528600      0.260394200
| 42> 9       -4.396020400     -0.128550600     -1.602941800
| 43> 1        5.903122371     -2.014774547     -1.145719253
| 44> *
| 45> 
| 46>                          ****END OF INPUT****
================================================================================

                       *****************************
                       * Geometry Optimization Run *
                       *****************************

Geometry optimization settings:
Update method            Update   .... BFGS
Choice of coordinates    CoordSys .... (2022) Redundant Internals
Initial Hessian          InHess   .... Almloef's Model
Max. no of cycles        MaxIter  .... 75

Convergence Tolerances:
Energy Change            TolE     ....  5.0000e-06 Eh
Max. Gradient            TolMAXG  ....  3.0000e-04 Eh/bohr
RMS Gradient             TolRMSG  ....  1.0000e-04 Eh/bohr
Max. Displacement        TolMAXD  ....  4.0000e-03 bohr
RMS Displacement         TolRMSD  ....  2.0000e-03 bohr
Strict Convergence                .... False

------------------------------------------------------------------------------
                        ORCA OPTIMIZATION COORDINATE SETUP
------------------------------------------------------------------------------

The optimization will be done in redundant internal coordinates (2022)
Making redundant internal coordinates   ...  (2022 redundants) done
Evaluating the initial hessian          ...  (Almloef) done
Evaluating the coordinates              ...  done
Calculating the B-matrix                .... done
Calculating the G-matrix                .... done
Diagonalizing the G-matrix              .... done
Small eigenvalue found = 4.736e-03
Small eigenvalue found = 1.221e-02
Small eigenvalue found = 2.954e-02
The first mode is                       ....   38
The number of degrees of freedom        ....   69

    -----------------------------------------------------------------
                    Redundant Internal Coordinates


    -----------------------------------------------------------------
         Definition                    Initial Value    Approx d2E/dq
    -----------------------------------------------------------------
      1. B(O   1,C   0)                  1.3940         0.551454   
      2. B(O   2,C   0)                  1.3855         0.568952   
      3. B(C   3,C   0)                  1.6006         0.288221   
      4. B(C   4,C   3)                  1.5599         0.334759   
      5. B(C   5,C   4)                  1.5647         0.328824   
      6. B(C   6,C   5)                  1.5667         0.326486   
      7. B(C   7,C   6)                  1.5688         0.323927   
      8. B(C   8,C   7)                  1.5657         0.327637   
      9. B(C   9,C   8)                  1.5632         0.330714   
     10. B(F  10,C   3)                  1.3856         0.528443   
     11. B(F  11,C   4)                  1.3570         0.586881   
     12. B(F  12,C   4)                  1.3614         0.577499   
     13. B(F  13,C   5)                  1.3545         0.592326   
     14. B(F  14,C   5)                  1.3556         0.590092   
     15. B(F  15,C   6)                  1.3547         0.591865   
     16. B(F  16,C   6)                  1.3540         0.593567   
     17. B(F  17,C   7)                  1.3538         0.593973   
     18. B(F  18,C   7)                  1.3544         0.592672   
     19. B(F  19,C   8)                  1.3550         0.591238   
     20. B(F  20,C   8)                  1.3514         0.599114   
     21. B(F  21,C   9)                  1.3406         0.623533   
     22. B(F  22,C   9)                  1.3385         0.628179   
     23. B(F  23,C   9)                  1.3373         0.630929   
     24. B(H  24,O   1)                  0.9600         0.519956   
     25. A(O   1,C   0,O   2)          136.1318         0.413163   
     26. A(O   2,C   0,C   3)          112.3347         0.371210   
     27. A(O   1,C   0,C   3)          111.5249         0.369222   
     28. L(C   0,O   1,H  24,C   3, 2) 180.0000         0.362759   
     29. L(C   0,O   1,H  24,C   3, 1) 180.0000         0.362759   
     30. A(C   4,C   3,F  10)          107.2033         0.374492   
     31. A(C   0,C   3,C   4)          113.1687         0.341363   
     32. A(C   0,C   3,F  10)          111.8265         0.364982   
     33. A(C   3,C   4,F  12)          108.5818         0.380286   
     34. A(C   3,C   4,F  11)          110.2926         0.381351   
     35. A(C   3,C   4,C   5)          113.5839         0.349005   
     36. A(F  11,C   4,F  12)          108.2194         0.415201   
     37. A(C   5,C   4,F  11)          108.0911         0.380169   
     38. A(C   5,C   4,F  12)          107.9208         0.379109   
     39. A(F  13,C   5,F  14)          109.0206         0.417483   
     40. A(C   6,C   5,F  14)          107.7906         0.380059   
     41. A(C   4,C   5,F  14)          108.5900         0.380529   
     42. A(C   6,C   5,F  13)          108.2026         0.380308   
     43. A(C   4,C   5,F  13)          109.2282         0.380779   
     44. A(C   4,C   5,C   6)          113.9128         0.347536   
     45. A(C   5,C   6,C   7)          113.2023         0.346660   
     46. A(F  15,C   6,F  16)          108.8752         0.417862   
     47. A(C   7,C   6,F  16)          108.2186         0.379927   
     48. A(C   5,C   6,F  16)          109.1523         0.380446   
     49. A(C   7,C   6,F  15)          108.4284         0.379738   
     50. A(C   5,C   6,F  15)          108.8835         0.380256   
     51. A(C   8,C   7,F  18)          108.6915         0.380579   
     52. A(C   6,C   7,F  18)          108.6955         0.379828   
     53. A(C   8,C   7,F  17)          108.1296         0.380723   
     54. A(F  17,C   7,F  18)          108.7561         0.418014   
     55. A(C   6,C   7,F  17)          109.2524         0.379972   
     56. A(C   6,C   7,C   8)          113.2298         0.346865   
     57. A(F  19,C   8,F  20)          108.8987         0.418476   
     58. A(C   7,C   8,C   9)          114.1471         0.348078   
     59. A(C   9,C   8,F  20)          107.7127         0.381912   
     60. A(C   7,C   8,F  20)          109.0521         0.381293   
     61. A(C   9,C   8,F  19)          107.4499         0.381036   
     62. A(C   7,C   8,F  19)          109.4572         0.380419   
     63. A(F  22,C   9,F  23)          108.6464         0.426961   
     64. A(F  21,C   9,F  23)          109.0552         0.426394   
     65. A(C   8,C   9,F  23)          110.9604         0.385362   
     66. A(F  21,C   9,F  22)          108.6877         0.426061   
     67. A(C   8,C   9,F  22)          108.6349         0.385069   
     68. A(C   8,C   9,F  21)          110.7995         0.384572   
     69. D(C   4,C   3,C   0,O   1)   -131.0839         0.006172   
     70. D(F  10,C   3,C   0,O   1)     -9.8890         0.006172   
     71. D(C   4,C   3,C   0,O   2)     49.8076         0.006172   
     72. D(F  10,C   3,C   0,O   2)    171.0025         0.006172   
     73. D(C   5,C   4,C   3,C   0)    148.6429         0.008543   
     74. D(F  11,C   4,C   3,C   0)    -89.8453         0.008543   
     75. D(F  12,C   4,C   3,C   0)     28.5784         0.008543   
     76. D(F  11,C   4,C   3,F  10)    146.3851         0.008543   
     77. D(C   5,C   4,C   3,F  10)     24.8733         0.008543   
     78. D(F  13,C   5,C   4,F  11)    162.3014         0.008811   
     79. D(C   6,C   5,C   4,F  12)    -75.6292         0.008811   
     80. D(C   6,C   5,C   4,F  11)     41.2001         0.008811   
     81. D(F  13,C   5,C   4,C   3)    -74.9661         0.008811   
     82. D(F  13,C   5,C   4,F  12)     45.4721         0.008811   
     83. D(C   6,C   5,C   4,C   3)    163.9326         0.008811   
     84. D(F  15,C   6,C   5,F  14)     44.2190         0.008700   
     85. D(F  15,C   6,C   5,F  13)    161.9826         0.008700   
     86. D(F  15,C   6,C   5,C   4)    -76.3465         0.008700   
     87. D(C   7,C   6,C   5,F  14)    -76.4529         0.008700   
     88. D(C   7,C   6,C   5,F  13)     41.3107         0.008700   
     89. D(C   7,C   6,C   5,C   4)    162.9815         0.008700   
     90. D(F  17,C   7,C   6,F  15)    -79.1358         0.008578   
     91. D(F  17,C   7,C   6,C   5)     41.7939         0.008578   
     92. D(C   8,C   7,C   6,F  16)    -76.5134         0.008578   
     93. D(C   8,C   7,C   6,F  15)     41.4341         0.008578   
     94. D(F  17,C   7,C   6,F  16)    162.9167         0.008578   
     95. D(C   8,C   7,C   6,C   5)    162.3638         0.008578   
     96. D(F  19,C   8,C   7,C   6)     41.9584         0.008755   
     97. D(C   9,C   8,C   7,F  18)     41.5227         0.008755   
     98. D(C   9,C   8,C   7,F  17)    -76.3785         0.008755   
     99. D(C   9,C   8,C   7,C   6)    162.4166         0.008755   
    100. D(F  19,C   8,C   7,F  18)    -78.9355         0.008755   
    101. D(F  19,C   8,C   7,F  17)    163.1633         0.008755   
    102. D(F  22,C   9,C   8,F  19)    -69.0724         0.008903   
    103. D(F  22,C   9,C   8,C   7)    169.3552         0.008903   
    104. D(F  21,C   9,C   8,F  20)    -71.2185         0.008903   
    105. D(F  21,C   9,C   8,F  19)    171.5999         0.008903   
    106. D(F  22,C   9,C   8,F  20)     48.1091         0.008903   
    107. D(F  21,C   9,C   8,C   7)     50.0276         0.008903   
    -----------------------------------------------------------------

Number of atoms                         .... 25
Number of degrees of freedom            .... 107


         *************************************************************
         *                GEOMETRY OPTIMIZATION CYCLE   1            *
         *************************************************************
---------------------------------
CARTESIAN COORDINATES (ANGSTROEM)
---------------------------------
  C      4.790427   -0.033866   -0.529943
  O      5.449345   -1.206924   -0.894595
  O      4.978223    1.323071   -0.737377
  C      3.506688   -0.338742    0.376154
  C      2.222300    0.400525   -0.110682
  C      0.900507   -0.386390    0.175703
  C     -0.395261    0.487294    0.065549
  C     -1.705694   -0.364774   -0.068374
  C     -3.005136    0.445345    0.258164
  C     -4.319880   -0.214526   -0.270541
  F      3.211587   -1.692050    0.412735
  F      2.125697    1.616868    0.483237
  F      2.314152    0.589704   -1.455769
  F      0.794029   -1.413561   -0.700839
  F      0.958351   -0.884509    1.435093
  F     -0.498373    1.260266    1.173340
  F     -0.299075    1.289513   -1.020911
  F     -1.641790   -1.418189    0.779524
  F     -1.792381   -0.831392   -1.336864
  F     -2.918792    1.679227   -0.295171
  F     -3.119771    0.573780    1.598580
  F     -4.383116   -1.504378    0.089128
  F     -5.365670    0.430529    0.260394
  F     -4.396020   -0.128551   -1.602942
  H      5.903122   -2.014775   -1.145719

----------------------------
CARTESIAN COORDINATES (A.U.)
----------------------------
  NO LB      ZA    FRAG     MASS         X           Y           Z
   0 C     6.0000    0    12.011    9.052595   -0.063997   -1.001448
   1 O     8.0000    0    15.999   10.297770   -2.280756   -1.690539
   2 O     8.0000    0    15.999    9.407478    2.500242   -1.393441
   3 C     6.0000    0    12.011    6.626679   -0.640129    0.710828
   4 C     6.0000    0    12.011    4.199538    0.756882   -0.209158
   5 C     6.0000    0    12.011    1.701711   -0.730171    0.332031
   6 C     6.0000    0    12.011   -0.746935    0.920852    0.123870
   7 C     6.0000    0    12.011   -3.223294   -0.689323   -0.129207
   8 C     6.0000    0    12.011   -5.678884    0.841580    0.487859
   9 C     6.0000    0    12.011   -8.163391   -0.405395   -0.511248
  10 F     9.0000    0    18.998    6.069021   -3.197512    0.779956
  11 F     9.0000    0    18.998    4.016985    3.055437    0.913185
  12 F     9.0000    0    18.998    4.373114    1.114379   -2.751005
  13 F     9.0000    0    18.998    1.500497   -2.671244   -1.324394
  14 F     9.0000    0    18.998    1.811020   -1.671480    2.711934
  15 F     9.0000    0    18.998   -0.941789    2.381557    2.217292
  16 F     9.0000    0    18.998   -0.565170    2.436826   -1.929242
  17 F     9.0000    0    18.998   -3.102534   -2.679989    1.473086
  18 F     9.0000    0    18.998   -3.387110   -1.571102   -2.526306
  19 F     9.0000    0    18.998   -5.515718    3.173280   -0.557793
  20 F     9.0000    0    18.998   -5.895513    1.084287    3.020878
  21 F     9.0000    0    18.998   -8.282888   -2.842862    0.168427
  22 F     9.0000    0    18.998  -10.139646    0.813581    0.492074
  23 F     9.0000    0    18.998   -8.307275   -0.242925   -3.029121
  24 H     1.0000    0     1.008   11.155285   -3.807372   -2.165096

--------------------------------
INTERNAL COORDINATES (ANGSTROEM)
--------------------------------
 C      0   0   0     0.000000000000     0.00000000     0.00000000
 O      1   0   0     1.393990356793     0.00000000     0.00000000
 O      1   2   0     1.385486802956   136.13177198     0.00000000
 C      1   2   3     1.600608594862   111.52489317   181.18992567
 C      4   1   2     1.559863783763   113.16872737   228.91614990
 C      5   4   1     1.564732561934   113.58394786   148.64287440
 C      6   5   4     1.566675459667   113.91280616   163.93256239
 C      7   6   5     1.568817348692   113.20226571   162.98152714
 C      8   7   6     1.565717094808   113.22984595   162.36375422
 C      9   8   7     1.563173062643   114.14707705   162.41661495
 F      4   1   2     1.385592665621   111.82651119   350.11101305
 F      5   4   1     1.357041377479   110.29260564   270.15468021
 F      5   4   1     1.361428031433   108.58179722    28.57841973
 F      6   5   4     1.354527570075   109.22822656   285.03385927
 F      6   5   4     1.355556277776   108.59004089    43.81583148
 F      7   6   5     1.354739297058   108.88346185   283.65347401
 F      7   6   5     1.353957667090   109.15230848    42.38718856
 F      8   7   6     1.353771473879   109.25240264    41.79387651
 F      8   7   6     1.354368423305   108.69554158   283.25540020
 F      9   8   7     1.355028009646   109.45719767    41.95842364
 F      9   8   7     1.351425618925   109.05210362   282.91820052
 F     10   9   8     1.340551089588   110.79953142    50.02756898
 F     10   9   8     1.338530275591   108.63493714   169.35523750
 F     10   9   8     1.337341214598   110.96044107   288.72891896
 H      2   1   3     0.960000000033   180.00000000     0.00000000

---------------------------
INTERNAL COORDINATES (A.U.)
---------------------------
 C      0   0   0     0.000000000000     0.00000000     0.00000000
 O      1   0   0     2.634260007667     0.00000000     0.00000000
 O      1   2   0     2.618190619750   136.13177198     0.00000000
 C      1   2   3     3.024711891890   111.52489317   181.18992567
 C      4   1   2     2.947715357535   113.16872737   228.91614990
 C      5   4   1     2.956916014884   113.58394786   148.64287440
 C      6   5   4     2.960587559506   113.91280616   163.93256239
 C      7   6   5     2.964635143173   113.20226571   162.98152714
 C      8   7   6     2.958776512386   113.22984595   162.36375422
 C      9   8   7     2.953968988318   114.14707705   162.41661495
 F      4   1   2     2.618390671194   111.82651119   350.11101305
 F      5   4   1     2.564436555835   110.29260564   270.15468021
 F      5   4   1     2.572726130452   108.58179722    28.57841973
 F      6   5   4     2.559686148288   109.22822656   285.03385927
 F      6   5   4     2.561630124115   108.59004089    43.81583148
 F      7   6   5     2.560086254300   108.88346185   283.65347401
 F      7   6   5     2.558609187723   109.15230848    42.38718856
 F      8   7   6     2.558257333546   109.25240264    41.79387651
 F      8   7   6     2.559385404477   108.69554158   283.25540020
 F      9   8   7     2.560631842023   109.45719767    41.95842364
 F      9   8   7     2.553824310132   109.05210362   282.91820052
 F     10   9   8     2.533274427850   110.79953142    50.02756898
 F     10   9   8     2.529455642830   108.63493714   169.35523750
 F     10   9   8     2.527208643196   110.96044107   288.72891896
 H      2   1   3     1.814137088628   180.00000000     0.00000000

---------------------
BASIS SET INFORMATION
---------------------
There are 4 groups of distinct atoms

 Group   1 Type C   : 11s6p2d1f contracted to 5s3p2d1f pattern {62111/411/11/1}
 Group   2 Type O   : 11s6p2d1f contracted to 5s3p2d1f pattern {62111/411/11/1}
 Group   3 Type F   : 11s6p2d1f contracted to 5s3p2d1f pattern {62111/411/11/1}
 Group   4 Type H   : 5s1p contracted to 3s1p pattern {311/1}

Atom   0C    basis set group =>   1
Atom   1O    basis set group =>   2
Atom   2O    basis set group =>   2
Atom   3C    basis set group =>   1
Atom   4C    basis set group =>   1
Atom   5C    basis set group =>   1
Atom   6C    basis set group =>   1
Atom   7C    basis set group =>   1
Atom   8C    basis set group =>   1
Atom   9C    basis set group =>   1
Atom  10F    basis set group =>   3
Atom  11F    basis set group =>   3
Atom  12F    basis set group =>   3
Atom  13F    basis set group =>   3
Atom  14F    basis set group =>   3
Atom  15F    basis set group =>   3
Atom  16F    basis set group =>   3
Atom  17F    basis set group =>   3
Atom  18F    basis set group =>   3
Atom  19F    basis set group =>   3
Atom  20F    basis set group =>   3
Atom  21F    basis set group =>   3
Atom  22F    basis set group =>   3
Atom  23F    basis set group =>   3
Atom  24H    basis set group =>   4
---------------------------------
AUXILIARY/J BASIS SET INFORMATION
---------------------------------
There are 4 groups of distinct atoms

 Group   1 Type C   : 12s5p4d2f1g contracted to 6s4p3d1f1g pattern {711111/2111/211/2/1}
 Group   2 Type O   : 12s5p4d2f1g contracted to 6s4p3d1f1g pattern {711111/2111/211/2/1}
 Group   3 Type F   : 12s5p4d2f1g contracted to 6s4p3d1f1g pattern {711111/2111/211/2/1}
 Group   4 Type H   : 5s2p1d contracted to 3s1p1d pattern {311/2/1}

Atom   0C    basis set group =>   1
Atom   1O    basis set group =>   2
Atom   2O    basis set group =>   2
Atom   3C    basis set group =>   1
Atom   4C    basis set group =>   1
Atom   5C    basis set group =>   1
Atom   6C    basis set group =>   1
Atom   7C    basis set group =>   1
Atom   8C    basis set group =>   1
Atom   9C    basis set group =>   1
Atom  10F    basis set group =>   3
Atom  11F    basis set group =>   3
Atom  12F    basis set group =>   3
Atom  13F    basis set group =>   3
Atom  14F    basis set group =>   3
Atom  15F    basis set group =>   3
Atom  16F    basis set group =>   3
Atom  17F    basis set group =>   3
Atom  18F    basis set group =>   3
Atom  19F    basis set group =>   3
Atom  20F    basis set group =>   3
Atom  21F    basis set group =>   3
Atom  22F    basis set group =>   3
Atom  23F    basis set group =>   3
Atom  24H    basis set group =>   4


           ************************************************************
           *        Program running with 20 parallel MPI-processes    *
           *              working on a common directory               *
           ************************************************************
------------------------------------------------------------------------------
                             ORCA STARTUP CALCULATIONS
                           -- RI-GTO INTEGRALS CHOSEN --
------------------------------------------------------------------------------
------------------------------------------------------------------------------
                   ___                                                        
                  /   \      - P O W E R E D   B Y -                         
                 /     \                                                     
                 |  |  |   _    _      __       _____    __    __             
                 |  |  |  | |  | |    /  \     |  _  \  |  |  /  |          
                  \  \/   | |  | |   /    \    | | | |  |  | /  /          
                 / \  \   | |__| |  /  /\  \   | |_| |  |  |/  /          
                |  |  |   |  __  | /  /__\  \  |    /   |      \           
                |  |  |   | |  | | |   __   |  |    \   |  |\   \          
                \     /   | |  | | |  |  |  |  | |\  \  |  | \   \       
                 \___/    |_|  |_| |__|  |__|  |_| \__\ |__|  \__/        
                                                                              
                      - O R C A' S   B I G   F R I E N D -                    
                                      &                                       
                       - I N T E G R A L  F E E D E R -                       
                                                                              
 v1 FN, 2020, v2 2021, v3 2022-2024                                           
------------------------------------------------------------------------------


----------------------
SHARK INTEGRAL PACKAGE
----------------------

Number of atoms                             ...     25
Number of basis functions                   ...    750
Number of shells                            ...    268
Maximum angular momentum                    ...      3
Integral batch strategy                     ... SHARK/LIBINT Hybrid
RI-J (if used) integral strategy            ... SPLIT-RIJ (Revised 2003 algorithm where possible)
Printlevel                                  ...      1
Contraction scheme used                     ... SEGMENTED contraction
Prescreening option                         ... SCHWARTZ
   Thresh                                   ... 2.500e-11
   Tcut                                     ... 2.500e-12
   Tpresel                                  ... 2.500e-12 
Coulomb Range Separation                    ... NOT USED
Exchange Range Separation                   ... NOT USED
Multipole approximations                    ... NOT USED
Finite Nucleus Model                        ... NOT USED
CABS basis                                  ... NOT available
Auxiliary Coulomb fitting basis             ... AVAILABLE
   # of basis functions in Aux-J            ...   1187
   # of shells in Aux-J                     ...    365
   Maximum angular momentum in Aux-J        ...      4
Auxiliary J/K fitting basis                 ... NOT available
Auxiliary Correlation fitting basis         ... NOT available
Auxiliary 'external' fitting basis          ... NOT available

Checking pre-screening integrals            ... done (  0.0 sec) Dimension = 268
Check shell pair data                       ... done (  0.0 sec)
Shell pair information
Shell pair cut-off parameter TPreSel        ...   2.5e-12
Total number of shell pairs                 ...     36046
Shell pairs after pre-screening             ...     22313
Total number of primitive shell pairs       ...    118872
Primitive shell pairs kept                  ...     47303
          la=0 lb=0:   4253 shell pairs
          la=1 lb=0:   6089 shell pairs
          la=1 lb=1:   2103 shell pairs
          la=2 lb=0:   3314 shell pairs
          la=2 lb=1:   2425 shell pairs
          la=2 lb=2:    684 shell pairs
          la=3 lb=0:   1503 shell pairs
          la=3 lb=1:   1165 shell pairs
          la=3 lb=2:    627 shell pairs
          la=3 lb=3:    150 shell pairs

Calculating one electron integrals          ... done (  0.0 sec)
Calculating RI/J V-Matrix + Cholesky decomp.... done (  0.1 sec)
Calculating Nuclear repulsion               ... done (  0.0 sec) ENN=   2653.036024569685 Eh

Diagonalization of the overlap matrix:
Smallest eigenvalue                        ... 6.221e-05
Time for diagonalization                   ...    0.108 sec
Threshold for overlap eigenvalues          ... 1.000e-07
Number of eigenvalues below threshold      ... 0
Time for construction of square roots      ...    0.045 sec
Total time needed                          ...    0.159 sec

-------------------
DFT GRID GENERATION
-------------------

General Integration Accuracy     IntAcc      ... 4.388
Radial Grid Type                 RadialGrid  ... OptM3 with GC (2021)
Angular Grid (max. ang.)         AngularGrid ... 4 (Lebedev-302)
Angular grid pruning method      GridPruning ... 4 (adaptive)
Weight generation scheme         WeightScheme... mBecke (2022)
Basis function cutoff            BFCut       ... 1.0000e-11
Integration weight cutoff        WCut        ... 1.0000e-14
Partially contracted basis set               ... off
Rotationally invariant grid construction     ... off
Angular grids for H and He will be reduced by one unit

Total number of grid points                  ...   148712
Total number of batches                      ...     2334
Average number of points per batch           ...       63
Average number of grid points per atom       ...     5948

--------------------
COSX GRID GENERATION
--------------------

GRIDX 1
-------
General Integration Accuracy     IntAcc      ... 3.816
Radial Grid Type                 RadialGrid  ... OptM3 with GC (2021)
Angular Grid (max. ang.)         AngularGrid ... 1 (Lebedev-50)
Angular grid pruning method      GridPruning ... 4 (adaptive)
Weight generation scheme         WeightScheme... mBecke (2022)
Basis function cutoff            BFCut       ... 1.0000e-11
Integration weight cutoff        WCut        ... 1.0000e-14
Partially contracted basis set               ... on
Rotationally invariant grid construction     ... off
Angular grids for H and He will be reduced by one unit

Total number of grid points                  ...    18712
Total number of batches                      ...      158
Average number of points per batch           ...      118
Average number of grid points per atom       ...      748
UseSFitting                                  ... on

GRIDX 2
-------
General Integration Accuracy     IntAcc      ... 4.020
Radial Grid Type                 RadialGrid  ... OptM3 with GC (2021)
Angular Grid (max. ang.)         AngularGrid ... 2 (Lebedev-110)
Angular grid pruning method      GridPruning ... 4 (adaptive)
Weight generation scheme         WeightScheme... mBecke (2022)
Basis function cutoff            BFCut       ... 1.0000e-11
Integration weight cutoff        WCut        ... 1.0000e-14
Partially contracted basis set               ... on
Rotationally invariant grid construction     ... off
Angular grids for H and He will be reduced by one unit

Total number of grid points                  ...    44091
Total number of batches                      ...      359
Average number of points per batch           ...      122
Average number of grid points per atom       ...     1764
UseSFitting                                  ... on

GRIDX 3
-------
General Integration Accuracy     IntAcc      ... 4.338
Radial Grid Type                 RadialGrid  ... OptM3 with GC (2021)
Angular Grid (max. ang.)         AngularGrid ... 3 (Lebedev-194)
Angular grid pruning method      GridPruning ... 4 (adaptive)
Weight generation scheme         WeightScheme... mBecke (2022)
Basis function cutoff            BFCut       ... 1.0000e-11
Integration weight cutoff        WCut        ... 1.0000e-14
Partially contracted basis set               ... on
Rotationally invariant grid construction     ... off
Angular grids for H and He will be reduced by one unit

Total number of grid points                  ...    97624
Total number of batches                      ...      774
Average number of points per batch           ...      126
Average number of grid points per atom       ...     3905
UseSFitting                                  ... on
Initializing property integral containers    ... done (  0.0 sec)

SHARK setup successfully completed in   3.3 seconds

Maximum memory used throughout the entire STARTUP-calculation: 57.3 MB


           ************************************************************
           *        Program running with 20 parallel MPI-processes    *
           *              working on a common directory               *
           ************************************************************
-------------------------------------------------------------------------------
                                 ORCA GUESS
                   Start orbitals & Density for SCF / CASSCF
-------------------------------------------------------------------------------

------------
SCF SETTINGS
------------
Hamiltonian:
 Density Functional     Method          .... DFT(GTOs)
 Exchange Functional    Exchange        .... TPSS
 Correlation Functional Correlation     .... TPSS
 LDA part of GGA corr.  LDAOpt          .... PW91-LDA
 Gradients option       PostSCFGGA      .... off
 Hybrid DFT is turned on
   Fraction HF Exchange ScalHFX         ....  0.100000
   Scaling of DF-GGA-X  ScalDFX         ....  0.900000
   Scaling of DF-GGA-C  ScalDFC         ....  1.000000
   Scaling of DF-LDA-C  ScalLDAC        ....  1.000000
   Perturbative correction              ....  0.000000
   NL short-range parameter             ....  5.200000
 RI-approximation to the Coulomb term is turned on
   Number of AuxJ basis functions       .... 1187
   RIJ-COSX (HFX calculated with COS-X)).... on


General Settings:
 Integral files         IntName         .... rf_mecn_opt_TP_C2_P_B
 Hartree-Fock type      HFTyp           .... UHF
 Total Charge           Charge          ....    0
 Multiplicity           Mult            ....    2
 Number of Electrons    NEL             ....  191
 Basis Dimension        Dim             ....  750
 Nuclear Repulsion      ENuc            ....   2653.0360245697 Eh

Convergence Acceleration:
 AO-DIIS                CNVDIIS         .... on
   Start iteration      DIISMaxIt       ....     0
   Startup error        DIISStart       ....  0.200000
   # of expansion vecs  DIISMaxEq       ....     5
   Bias factor          DIISBfac        ....   1.050
   Max. coefficient     DIISMaxC        ....  10.000
 MO-DIIS                CNVKDIIS        .... off
 Trust-Rad. Augm. Hess. CNVTRAH         .... auto
   Auto Start mean grad. ratio tolernc. ....  1.125000
   Auto Start start iteration           ....    50
   Auto Start num. interpolation iter.  ....    10
   Max. Number of Micro iterations      ....    24
   Max. Number of Macro iterations      .... Maxiter - #DIIS iter
   Number of Davidson start vectors     ....     2
   Converg. threshold    (grad. norm)   ....   1.000e-05
   Grad. Scal. Fac. for Micro threshold ....   0.100
   Minimum threshold for Micro iter.    ....   1.000e-02
   NR start threshold (gradient norm)   ....   1.000e-04
   Initial trust radius                 ....   0.400
   Minimum AH scaling param. (alpha)    ....   1.000
   Maximum AH scaling param. (alpha)    .... 1000.000
   Quad. conv. algorithm                .... NR
   White noise on init. David. guess    .... on
   Maximum white noise                  ....   0.010
   Pseudo random numbers                .... off
   Inactive MOs                         .... canonical
   Orbital update algorithm             .... Taylor
   Preconditioner                       .... Diag
   Full preconditioner red. dimension   ....   250
 SOSCF                  CNVSOSCF        .... on
   Start iteration      SOSCFMaxIt      ....   150
   Startup grad/error   SOSCFStart      ....  0.001000
   Hessian update       SOSCFHessUp     .... L-BFGS
 Level Shifting         CNVShift        .... on
   Level shift para.    LevelShift      ....    0.2500
   Turn off err/grad.   ShiftErr        ....    0.0000
 Zerner damping         CNVZerner       .... off
 Static damping         CNVDamp         .... on
   Fraction old density DampFac         ....    0.8500
   Max. Damping (<1)    DampMax         ....    0.9800
   Min. Damping (>=0)   DampMin         ....    0.0000
   Turn off err/grad.   DampErr         ....    0.0300

SCF Procedure:
 Maximum # iterations   MaxIter         ....  1500
 SCF integral mode      SCFMode         .... Direct
   Integral package                     .... SHARK and LIBINT hybrid scheme
 Reset frequency        DirectResetFreq ....    20
 Integral Threshold     Thresh          ....  2.500e-11 Eh
 Primitive CutOff       TCut            ....  2.500e-12 Eh

Convergence Tolerance:
 Convergence Check Mode ConvCheckMode   .... Total+1el-Energy
 Convergence forced     ConvForced      .... 0
 Energy Change          TolE            ....  1.000e-08 Eh
 1-El. energy change                    ....  1.000e-05 Eh
 Orbital Gradient       TolG            ....  1.000e-05
 Orbital Rotation angle TolX            ....  1.000e-05
 DIIS Error             TolErr          ....  5.000e-07

------------------------------
INITIAL GUESS: MODEL POTENTIAL
------------------------------
Loading Hartree-Fock densities                     ... done
Calculating cut-offs                               ... done
Initializing the effective Hamiltonian             ... done
Setting up the integral package (SHARK)            ... done
Starting the Coulomb interaction                   ... done (   0.2 sec)
Making the grid                                    ... done (   0.4 sec)
Mapping shells                                     ... done
Starting the XC term evaluation                    ... done (   0.2 sec)
  promolecular density results
     # of electrons  =    190.999799884
     EX              =   -197.388948699
     EC              =     -6.686210561
     EX+EC           =   -204.075159260
Transforming the Hamiltonian                       ... done (   0.1 sec)
Diagonalizing the Hamiltonian                      ... done (   0.1 sec)
Back transforming the eigenvectors                 ... done (   0.0 sec)
Now organizing SCF variables                       ... done
                      ------------------
                      INITIAL GUESS DONE (   1.0 sec)
                      ------------------
             **** ENERGY FILE WAS UPDATED (rf_mecn_opt_TP_C2_P_B.en.tmp) ****
Finished Guess after   1.8 sec
Maximum memory used throughout the entire GUESS-calculation: 46.3 MB


           ************************************************************
           *        Program running with 20 parallel MPI-processes    *
           *              working on a common directory               *
           ************************************************************

-------------------------------------------------------------------------------------------
                                      ORCA LEAN-SCF
                              memory conserving SCF solver
-------------------------------------------------------------------------------------------

--------------------
CPCM SOLVATION MODEL
--------------------
CPCM parameters:
  Epsilon                                         ...      35.6880
  Refrac                                          ...       1.3442
  Rsolv                                           ...       1.3000
  Surface type                                    ... GAUSSIAN VDW
  Discretization scheme                           ... Constant charge density
    Threshold for H atoms                         ...       5.0000 (charges/Ang^2)
    Threshold for non-H atoms                     ...       5.0000 (charges/Ang^2)
  Epsilon function type                           ...         CPCM
Solvent:                                          ... ACETONITRILE
SMD-CDS solvent descriptors:
  Soln                                            ...       1.3442
  Soln25                                          ...       1.3416
  Sola                                            ...       0.0700
  Solb                                            ...       0.3200
  Solg                                            ...      41.2500
  Solc                                            ...       0.0000
  Solh                                            ...       0.0000
Radii:
  Scheme                                          ... Element-dependent radii
  Radius for C  used is    3.4960 Bohr (=   1.8500 Ang.)
  Radius for O  used is    4.0969 Bohr (=   2.1680 Ang.)
  Radius for F  used is    3.2692 Bohr (=   1.7300 Ang.)
  Radius for H  used is    2.2677 Bohr (=   1.2000 Ang.)
Calculating surface                               ...        done! (  0.0s)
Cavity surface points                             ...         2142
Cavity Volume                                     ...    2127.0562
Cavity Surface-area                               ...    1106.2742
Calculating surface distance matrix               ...        done! (  0.0s)
Performing Cholesky decomposition & store         ...        done! (  0.1s)
Overall time for CPCM initialization              ...                 0.1s

----------------------------------------D-I-I-S--------------------------------------------
Iteration    Energy (Eh)           Delta-E    RMSDP     MaxDP     DIISErr   Damp  Time(sec)
-------------------------------------------------------------------------------------------
               ***  Starting incremental Fock matrix formation  ***
    1    -1853.8411305749086750     0.00e+00  2.11e-04  1.68e-02  1.50e-01  0.850   6.9
Warning: op=1 Small HOMO/LUMO gap (  -0.007) - skipping pre-diagonalization
         Will do a full diagonalization
    2    -1853.9856022459880478    -1.44e-01  2.02e-04  1.62e-02  9.11e-02  0.850   5.5
                               ***Turning on AO-DIIS***
    3    -1854.0562719109984755    -7.07e-02  8.51e-05  4.96e-03  5.04e-02  0.850   4.8
    4    -1854.0973201697033801    -4.10e-02  5.26e-05  3.38e-03  3.53e-02  0.850   4.7
    5    -1854.1263869421927666    -2.91e-02  4.23e-05  3.52e-03  2.81e-02  0.850   4.6
    6    -1854.1495724512642482    -2.32e-02  2.48e-04  2.23e-02  2.61e-02  0.000   4.4
    7    -1854.2748986191490985    -1.25e-01  4.46e-05  3.93e-03  5.24e-03  0.000   4.9
    8    -1854.2753426582657994    -4.44e-04  1.25e-05  1.32e-03  3.39e-03  0.000   4.5
                              *** Initializing SOSCF ***
---------------------------------------S-O-S-C-F--------------------------------------
Iteration    Energy (Eh)           Delta-E    RMSDP     MaxDP     MaxGrad    Time(sec)
--------------------------------------------------------------------------------------
    9    -1854.2754822699780561    -1.40e-04  7.32e-06  6.99e-04  9.48e-04     4.5
               *** Restarting incremental Fock matrix formation ***
   10    -1854.2755294877497363    -4.72e-05  1.07e-05  1.50e-03  1.24e-03     7.6
   11    -1854.2755489994715390    -1.95e-05  1.44e-05  1.47e-03  1.32e-03     5.2
   12    -1854.2755570896542849    -8.09e-06  7.14e-06  7.34e-04  1.18e-03     5.0
   13    -1854.2755691418578863    -1.21e-05  4.91e-06  4.57e-04  2.97e-04     5.0
   14    -1854.2755708011382012    -1.66e-06  3.15e-06  2.87e-04  2.64e-04     5.0
   15    -1854.2755736566068663    -2.86e-06  1.05e-06  9.34e-05  7.08e-05     4.7
   16    -1854.2755737019660955    -4.54e-08  5.42e-07  5.30e-05  7.89e-05     4.0
   17    -1854.2755738611031120    -1.59e-07  4.49e-07  4.24e-05  1.76e-05     4.1
   18    -1854.2755738773721532    -1.63e-08  2.16e-07  1.93e-05  1.03e-05     3.8
   19    -1854.2755738917503550    -1.44e-08  1.33e-07  8.88e-06  4.26e-06     3.7
   20    -1854.2755738861269492     5.62e-09  6.35e-08  3.60e-06  3.05e-06     3.4
                 **** Energy Check signals convergence ****

               *****************************************************
               *                     SUCCESS                       *
               *           SCF CONVERGED AFTER  20 CYCLES          *
               *****************************************************

Recomputing exchange energy using gridx3       ... done (    8.890 sec)
Old exchange energy                            :    -19.882796137 Eh
New exchange energy                            :    -19.882805394 Eh
Exchange energy change after final integration :     -0.000009257 Eh
Total energy after final integration           :  -1854.275583143 Eh

SMD CDS free energy correction energy :                 3.61262     Kcal/mol
Total Energy after SMD CDS correction =             -1854.269826073 Eh
             **** ENERGY FILE WAS UPDATED (rf_mecn_opt_TP_C2_P_B.en.tmp) ****

----------------
TOTAL SCF ENERGY
----------------

Total Energy       :      -1854.26982607296395 Eh          -50457.24716 eV

Components:
Nuclear Repulsion  :       2653.03602456968474 Eh           72192.78044 eV
Electronic Energy  :      -4507.29595275689007 Eh         -122649.75827 eV
One Electron Energy:      -7857.93212545368078 Eh         -213825.20380 eV
Two Electron Energy:       3350.63617269679071 Eh           91175.44553 eV
CPCM Dielectric    :         -0.01564569892178 Eh              -0.42574 eV
SMD CDS (Gcds)     :          0.00575707000959 Eh               0.15666 eV

Virial components:
Potential Energy   :      -3701.21378485840978 Eh         -100715.14735 eV
Kinetic Energy     :       1846.94395878544583 Eh           50257.90018 eV
Virial Ratio       :          2.00396648054895

DFT components:
N(Alpha)           :       95.999974193533 electrons
N(Beta)            :       94.999964508821 electrons
N(Total)           :      190.999938702354 electrons
E(X)               :     -180.740790153482 Eh       
E(C)               :       -6.701467411012 Eh       
E(XC)              :     -187.442257564494 Eh       

CPCM Solvation Model Properties:
Surface-charge          :         -0.00891792074311
Corrected charge        :          0.00000000000000
Outlying charge corr.   :          0.00000434322749 Eh               0.00012 eV
Free-energy (cav+disp)  :          0.00575707000959 Eh               0.15666 eV

---------------
SCF CONVERGENCE
---------------

  Last Energy change         ...   -5.6234e-09  Tolerance :   1.0000e-08
  Last MAX-Density change    ...    3.5987e-06  Tolerance :   1.0000e-07
  Last RMS-Density change    ...    6.3511e-08  Tolerance :   5.0000e-09
  Last DIIS Error            ...    9.4809e-04  Tolerance :   5.0000e-07
  Last Orbital Gradient      ...    3.0474e-06  Tolerance :   1.0000e-05
  Last Orbital Rotation      ...    9.1928e-06  Tolerance :   1.0000e-05


----------------------
UHF SPIN CONTAMINATION
----------------------

Warning: in a DFT calculation there is little theoretical justification to 
         calculate <S**2> as in Hartree-Fock theory. We will do it anyways
         but you should keep in mind that the values have only limited relevance

Expectation value of <S**2>     :     0.759975
Ideal value S*(S+1) for S=0.5   :     0.750000
Deviation                       :     0.009975

----------------
ORBITAL ENERGIES
----------------
                 SPIN UP ORBITALS
  NO   OCC          E(Eh)            E(eV) 
   0   1.0000     -24.662734      -671.1071 
   1   1.0000     -24.662595      -671.1033 
   2   1.0000     -24.662441      -671.0991 
   3   1.0000     -24.661867      -671.0835 
   4   1.0000     -24.661803      -671.0818 
   5   1.0000     -24.661324      -671.0687 
   6   1.0000     -24.661281      -671.0676 
   7   1.0000     -24.661156      -671.0642 
   8   1.0000     -24.660921      -671.0578 
   9   1.0000     -24.659171      -671.0102 
  10   1.0000     -24.657592      -670.9672 
  11   1.0000     -24.654530      -670.8839 
  12   1.0000     -24.652447      -670.8272 
  13   1.0000     -24.651285      -670.7956 
  14   1.0000     -19.120882      -520.3056 
  15   1.0000     -19.090605      -519.4818 
  16   1.0000     -10.398348      -282.9534 
  17   1.0000     -10.348955      -281.6094 
  18   1.0000     -10.347778      -281.5774 
  19   1.0000     -10.347039      -281.5572 
  20   1.0000     -10.344392      -281.4852 
  21   1.0000     -10.342597      -281.4364 
  22   1.0000     -10.331962      -281.1470 
  23   1.0000     -10.283280      -279.8223 
  24   1.0000      -1.322235       -35.9798 
  25   1.0000      -1.301938       -35.4275 
  26   1.0000      -1.287875       -35.0449 
  27   1.0000      -1.277980       -34.7756 
  28   1.0000      -1.276804       -34.7436 
  29   1.0000      -1.269935       -34.5567 
  30   1.0000      -1.239181       -33.7198 
  31   1.0000      -1.233992       -33.5786 
  32   1.0000      -1.233042       -33.5528 
  33   1.0000      -1.232256       -33.5314 
  34   1.0000      -1.227694       -33.4072 
  35   1.0000      -1.223293       -33.2875 
  36   1.0000      -1.222090       -33.2548 
  37   1.0000      -1.215393       -33.0725 
  38   1.0000      -1.058493       -28.8030 
  39   1.0000      -0.974227       -26.5101 
  40   1.0000      -0.829460       -22.5708 
  41   1.0000      -0.811931       -22.0938 
  42   1.0000      -0.786181       -21.3931 
  43   1.0000      -0.750881       -20.4325 
  44   1.0000      -0.714049       -19.4303 
  45   1.0000      -0.684136       -18.6163 
  46   1.0000      -0.662015       -18.0143 
  47   1.0000      -0.646280       -17.5862 
  48   1.0000      -0.625459       -17.0196 
  49   1.0000      -0.620389       -16.8816 
  50   1.0000      -0.612269       -16.6607 
  51   1.0000      -0.605091       -16.4654 
  52   1.0000      -0.601488       -16.3673 
  53   1.0000      -0.599153       -16.3038 
  54   1.0000      -0.587779       -15.9943 
  55   1.0000      -0.580988       -15.8095 
  56   1.0000      -0.579314       -15.7639 
  57   1.0000      -0.572423       -15.5764 
  58   1.0000      -0.560149       -15.2424 
  59   1.0000      -0.555128       -15.1058 
  60   1.0000      -0.549414       -14.9503 
  61   1.0000      -0.540656       -14.7120 
  62   1.0000      -0.490720       -13.3532 
  63   1.0000      -0.489422       -13.3178 
  64   1.0000      -0.486174       -13.2295 
  65   1.0000      -0.479911       -13.0590 
  66   1.0000      -0.479431       -13.0460 
  67   1.0000      -0.472385       -12.8542 
  68   1.0000      -0.470700       -12.8084 
  69   1.0000      -0.468538       -12.7496 
  70   1.0000      -0.463423       -12.6104 
  71   1.0000      -0.460111       -12.5203 
  72   1.0000      -0.457089       -12.4380 
  73   1.0000      -0.453742       -12.3470 
  74   1.0000      -0.450529       -12.2595 
  75   1.0000      -0.445141       -12.1129 
  76   1.0000      -0.439291       -11.9537 
  77   1.0000      -0.435722       -11.8566 
  78   1.0000      -0.433233       -11.7889 
  79   1.0000      -0.427523       -11.6335 
  80   1.0000      -0.425747       -11.5852 
  81   1.0000      -0.423509       -11.5243 
  82   1.0000      -0.420339       -11.4380 
  83   1.0000      -0.419412       -11.4128 
  84   1.0000      -0.415695       -11.3116 
  85   1.0000      -0.414290       -11.2734 
  86   1.0000      -0.413569       -11.2538 
  87   1.0000      -0.411544       -11.1987 
  88   1.0000      -0.405009       -11.0208 
  89   1.0000      -0.395114       -10.7516 
  90   1.0000      -0.369204       -10.0465 
  91   1.0000      -0.343189        -9.3386 
  92   1.0000      -0.327827        -8.9206 
  93   1.0000      -0.326512        -8.8848 
  94   1.0000      -0.294187        -8.0052 
  95   1.0000      -0.280070        -7.6211 
  96   0.0000      -0.081591        -2.2202 
  97   0.0000      -0.032801        -0.8926 
  98   0.0000      -0.014438        -0.3929 
  99   0.0000      -0.007807        -0.2124 
 100   0.0000       0.020544         0.5590 
 101   0.0000       0.026198         0.7129 
 102   0.0000       0.063055         1.7158 
 103   0.0000       0.074612         2.0303 
 104   0.0000       0.094030         2.5587 
 105   0.0000       0.097742         2.6597 
 106   0.0000       0.107160         2.9160 

                 SPIN DOWN ORBITALS
  NO   OCC          E(Eh)            E(eV) 
   0   1.0000     -24.662734      -671.1071 
   1   1.0000     -24.662595      -671.1033 
   2   1.0000     -24.662441      -671.0991 
   3   1.0000     -24.661867      -671.0835 
   4   1.0000     -24.661803      -671.0818 
   5   1.0000     -24.661325      -671.0688 
   6   1.0000     -24.661276      -671.0674 
   7   1.0000     -24.661156      -671.0642 
   8   1.0000     -24.660921      -671.0578 
   9   1.0000     -24.659181      -671.0104 
  10   1.0000     -24.657535      -670.9656 
  11   1.0000     -24.651172      -670.7925 
  12   1.0000     -24.651141      -670.7916 
  13   1.0000     -24.650525      -670.7749 
  14   1.0000     -19.120763      -520.3024 
  15   1.0000     -19.087021      -519.3843 
  16   1.0000     -10.398348      -282.9534 
  17   1.0000     -10.348956      -281.6094 
  18   1.0000     -10.347774      -281.5772 
  19   1.0000     -10.347039      -281.5572 
  20   1.0000     -10.344433      -281.4863 
  21   1.0000     -10.342478      -281.4331 
  22   1.0000     -10.332715      -281.1675 
  23   1.0000     -10.267906      -279.4039 
  24   1.0000      -1.322235       -35.9798 
  25   1.0000      -1.301854       -35.4252 
  26   1.0000      -1.287593       -35.0372 
  27   1.0000      -1.277892       -34.7732 
  28   1.0000      -1.276662       -34.7397 
  29   1.0000      -1.269011       -34.5315 
  30   1.0000      -1.239176       -33.7197 
  31   1.0000      -1.233944       -33.5773 
  32   1.0000      -1.232259       -33.5315 
  33   1.0000      -1.227634       -33.4056 
  34   1.0000      -1.225283       -33.3416 
  35   1.0000      -1.223226       -33.2857 
  36   1.0000      -1.222000       -33.2523 
  37   1.0000      -1.214017       -33.0351 
  38   1.0000      -1.057963       -28.7886 
  39   1.0000      -0.968099       -26.3433 
  40   1.0000      -0.829059       -22.5598 
  41   1.0000      -0.809278       -22.0216 
  42   1.0000      -0.780097       -21.2275 
  43   1.0000      -0.744222       -20.2513 
  44   1.0000      -0.712497       -19.3880 
  45   1.0000      -0.682569       -18.5736 
  46   1.0000      -0.660806       -17.9814 
  47   1.0000      -0.641873       -17.4662 
  48   1.0000      -0.625392       -17.0178 
  49   1.0000      -0.619817       -16.8661 
  50   1.0000      -0.612227       -16.6596 
  51   1.0000      -0.604839       -16.4585 
  52   1.0000      -0.600783       -16.3481 
  53   1.0000      -0.598352       -16.2820 
  54   1.0000      -0.587000       -15.9731 
  55   1.0000      -0.580398       -15.7934 
  56   1.0000      -0.578527       -15.7425 
  57   1.0000      -0.571480       -15.5508 
  58   1.0000      -0.559254       -15.2181 
  59   1.0000      -0.552980       -15.0473 
  60   1.0000      -0.545526       -14.8445 
  61   1.0000      -0.536694       -14.6042 
  62   1.0000      -0.489362       -13.3162 
  63   1.0000      -0.486057       -13.2263 
  64   1.0000      -0.480425       -13.0730 
  65   1.0000      -0.479186       -13.0393 
  66   1.0000      -0.473173       -12.8757 
  67   1.0000      -0.471357       -12.8263 
  68   1.0000      -0.469905       -12.7868 
  69   1.0000      -0.463558       -12.6141 
  70   1.0000      -0.461794       -12.5661 
  71   1.0000      -0.458692       -12.4816 
  72   1.0000      -0.455007       -12.3814 
  73   1.0000      -0.452760       -12.3202 
  74   1.0000      -0.449871       -12.2416 
  75   1.0000      -0.443659       -12.0726 
  76   1.0000      -0.435856       -11.8602 
  77   1.0000      -0.435214       -11.8428 
  78   1.0000      -0.429608       -11.6902 
  79   1.0000      -0.427406       -11.6303 
  80   1.0000      -0.425679       -11.5833 
  81   1.0000      -0.423240       -11.5169 
  82   1.0000      -0.420087       -11.4312 
  83   1.0000      -0.419240       -11.4081 
  84   1.0000      -0.414168       -11.2701 
  85   1.0000      -0.413127       -11.2418 
  86   1.0000      -0.412862       -11.2345 
  87   1.0000      -0.410849       -11.1798 
  88   1.0000      -0.403749       -10.9866 
  89   1.0000      -0.393179       -10.6989 
  90   1.0000      -0.366489        -9.9727 
  91   1.0000      -0.340038        -9.2529 
  92   1.0000      -0.325676        -8.8621 
  93   1.0000      -0.313434        -8.5290 
  94   1.0000      -0.289254        -7.8710 
  95   0.0000      -0.163041        -4.4366 
  96   0.0000      -0.063809        -1.7363 
  97   0.0000      -0.028084        -0.7642 
  98   0.0000      -0.013375        -0.3640 
  99   0.0000      -0.007471        -0.2033 
 100   0.0000       0.022030         0.5995 
 101   0.0000       0.034555         0.9403 
 102   0.0000       0.066873         1.8197 
 103   0.0000       0.080239         2.1834 
 104   0.0000       0.094694         2.5768 
 105   0.0000       0.098837         2.6895 
*Only the first 10 virtual orbitals were printed.

                    ********************************
                    * MULLIKEN POPULATION ANALYSIS *
                    ********************************

--------------------------------------------
MULLIKEN ATOMIC CHARGES AND SPIN POPULATIONS
--------------------------------------------
   0 C :    0.364848   -0.053260
   1 O :   -0.443673    0.007139
   2 O :   -0.382830    0.130149
   3 C :    0.157377    0.810652
   4 C :    0.345606   -0.000499
   5 C :    0.298291   -0.002727
   6 C :    0.285817    0.000347
   7 C :    0.274622   -0.000057
   8 C :    0.296530   -0.000006
   9 C :    0.408825   -0.000004
  10 F :   -0.153733    0.077608
  11 F :   -0.160454    0.001854
  12 F :   -0.154093    0.027308
  13 F :   -0.150963   -0.000021
  14 F :   -0.151709    0.000764
  15 F :   -0.148183   -0.000015
  16 F :   -0.148252    0.000071
  17 F :   -0.148297    0.000013
  18 F :   -0.148057   -0.000004
  19 F :   -0.146971    0.000002
  20 F :   -0.143601   -0.000001
  21 F :   -0.136081    0.000000
  22 F :   -0.131961   -0.000000
  23 F :   -0.132843   -0.000000
  24 H :    0.449783    0.000688
Sum of atomic charges         :    0.0000000
Sum of atomic spin populations:    1.0000000

-----------------------------------------------------
MULLIKEN REDUCED ORBITAL CHARGES AND SPIN POPULATIONS
-----------------------------------------------------
CHARGE
  0 C s       :     3.158537  s :     3.158537
      pz      :     0.776200  p :     2.241170
      px      :     0.810768
      py      :     0.654202
      dz2     :     0.020946  d :     0.217260
      dxz     :     0.017439
      dyz     :     0.058001
      dx2y2   :     0.052521
      dxy     :     0.068354
      f0      :     0.001754  f :     0.018184
      f+1     :     0.001229
      f-1     :     0.002360
      f+2     :     0.002552
      f-2     :     0.001913
      f+3     :     0.003848
      f-3     :     0.004528

  1 O s       :     3.667403  s :     3.667403
      pz      :     1.730703  p :     4.759538
      px      :     1.686724
      py      :     1.342110
      dz2     :     0.001669  d :     0.013897
      dxz     :     0.001145
      dyz     :     0.002949
      dx2y2   :     0.003155
      dxy     :     0.004979
      f0      :     0.000278  f :     0.002835
      f+1     :     0.000128
      f-1     :     0.000379
      f+2     :     0.000245
      f-2     :     0.000430
      f+3     :     0.000937
      f-3     :     0.000438

  2 O s       :     3.883895  s :     3.883895
      pz      :     1.557585  p :     4.474019
      px      :     1.677238
      py      :     1.239196
      dz2     :     0.003116  d :     0.023605
      dxz     :     0.000314
      dyz     :     0.006081
      dx2y2   :     0.008785
      dxy     :     0.005309
      f0      :     0.000118  f :     0.001311
      f+1     :     0.000016
      f-1     :     0.000229
      f+2     :     0.000223
      f-2     :     0.000028
      f+3     :     0.000296
      f-3     :     0.000402

  3 C s       :     3.287643  s :     3.287643
      pz      :     0.895866  p :     2.395924
      px      :     0.894719
      py      :     0.605338
      dz2     :     0.013986  d :     0.144262
      dxz     :     0.018025
      dyz     :     0.032963
      dx2y2   :     0.036276
      dxy     :     0.043011
      f0      :     0.001971  f :     0.014794
      f+1     :     0.001100
      f-1     :     0.001210
      f+2     :     0.002674
      f-2     :     0.001276
      f+3     :     0.003625
      f-3     :     0.002937

  4 C s       :     3.092586  s :     3.092586
      pz      :     0.614845  p :     2.234928
      px      :     0.915457
      py      :     0.704625
      dz2     :     0.062650  d :     0.298916
      dxz     :     0.066101
      dyz     :     0.071181
      dx2y2   :     0.037325
      dxy     :     0.061660
      f0      :     0.003648  f :     0.027963
      f+1     :     0.004865
      f-1     :     0.008123
      f+2     :     0.002458
      f-2     :     0.002749
      f+3     :     0.003600
      f-3     :     0.002520

  5 C s       :     3.137471  s :     3.137471
      pz      :     0.596005  p :     2.232006
      px      :     0.912546
      py      :     0.723456
      dz2     :     0.078336  d :     0.303968
      dxz     :     0.064606
      dyz     :     0.061403
      dx2y2   :     0.036119
      dxy     :     0.063504
      f0      :     0.005046  f :     0.028264
      f+1     :     0.004490
      f-1     :     0.006120
      f+2     :     0.003353
      f-2     :     0.004399
      f+3     :     0.002631
      f-3     :     0.002224

  6 C s       :     3.132420  s :     3.132420
      pz      :     0.591093  p :     2.251111
      px      :     0.926689
      py      :     0.733329
      dz2     :     0.083528  d :     0.302425
      dxz     :     0.064271
      dyz     :     0.056674
      dx2y2   :     0.035378
      dxy     :     0.062574
      f0      :     0.006278  f :     0.028227
      f+1     :     0.004034
      f-1     :     0.004281
      f+2     :     0.004217
      f-2     :     0.005247
      f+3     :     0.002186
      f-3     :     0.001982

  7 C s       :     3.133391  s :     3.133391
      pz      :     0.599999  p :     2.261369
      px      :     0.938726
      py      :     0.722644
      dz2     :     0.076863  d :     0.302397
      dxz     :     0.064499
      dyz     :     0.063099
      dx2y2   :     0.035533
      dxy     :     0.062403
      f0      :     0.004848  f :     0.028221
      f+1     :     0.004461
      f-1     :     0.006474
      f+2     :     0.003215
      f-2     :     0.004326
      f+3     :     0.002722
      f-3     :     0.002175

  8 C s       :     3.103799  s :     3.103799
      pz      :     0.630586  p :     2.275494
      px      :     0.942189
      py      :     0.702719
      dz2     :     0.060869  d :     0.295930
      dxz     :     0.063034
      dyz     :     0.074030
      dx2y2   :     0.036660
      dxy     :     0.061337
      f0      :     0.003603  f :     0.028247
      f+1     :     0.005056
      f-1     :     0.008350
      f+2     :     0.002418
      f-2     :     0.002484
      f+3     :     0.003861
      f-3     :     0.002475

  9 C s       :     3.022371  s :     3.022371
      pz      :     0.666538  p :     2.167028
      px      :     0.821692
      py      :     0.678798
      dz2     :     0.067710  d :     0.361650
      dxz     :     0.071225
      dyz     :     0.088201
      dx2y2   :     0.065194
      dxy     :     0.069319
      f0      :     0.004464  f :     0.040126
      f+1     :     0.008027
      f-1     :     0.008956
      f+2     :     0.004506
      f-2     :     0.003178
      f+3     :     0.007531
      f-3     :     0.003466

 10 F s       :     3.926497  s :     3.926497
      pz      :     1.852955  p :     5.211911
      px      :     1.887000
      py      :     1.471955
      dz2     :     0.001861  d :     0.014718
      dxz     :     0.000299
      dyz     :     0.003626
      dx2y2   :     0.005192
      dxy     :     0.003741
      f0      :     0.000057  f :     0.000607
      f+1     :     0.000014
      f-1     :     0.000111
      f+2     :     0.000080
      f-2     :     0.000017
      f+3     :     0.000157
      f-3     :     0.000170

 11 F s       :     3.918158  s :     3.918158
      pz      :     1.805241  p :     5.226079
      px      :     1.902309
      py      :     1.518529
      dz2     :     0.001959  d :     0.015526
      dxz     :     0.000713
      dyz     :     0.005080
      dx2y2   :     0.004605
      dxy     :     0.003169
      f0      :     0.000080  f :     0.000692
      f+1     :     0.000003
      f-1     :     0.000119
      f+2     :     0.000189
      f-2     :     0.000061
      f+3     :     0.000105
      f-3     :     0.000135

 12 F s       :     3.921022  s :     3.921022
      pz      :     1.442596  p :     5.216913
      px      :     1.897940
      py      :     1.876376
      dz2     :     0.007953  d :     0.015472
      dxz     :     0.003564
      dyz     :     0.003380
      dx2y2   :     0.000271
      dxy     :     0.000304
      f0      :     0.000343  f :     0.000686
      f+1     :     0.000150
      f-1     :     0.000162
      f+2     :     0.000011
      f-2     :     0.000017
      f+3     :     0.000001
      f-3     :     0.000001

 13 F s       :     3.918304  s :     3.918304
      pz      :     1.699323  p :     5.216131
      px      :     1.899356
      py      :     1.617452
      dz2     :     0.002580  d :     0.015828
      dxz     :     0.001562
      dyz     :     0.006244
      dx2y2   :     0.002985
      dxy     :     0.002457
      f0      :     0.000078  f :     0.000701
      f+1     :     0.000013
      f-1     :     0.000189
      f+2     :     0.000196
      f-2     :     0.000103
      f+3     :     0.000058
      f-3     :     0.000063

 14 F s       :     3.918988  s :     3.918988
      pz      :     1.493305  p :     5.216233
      px      :     1.902370
      py      :     1.820558
      dz2     :     0.006500  d :     0.015786
      dxz     :     0.003162
      dyz     :     0.004737
      dx2y2   :     0.000616
      dxy     :     0.000771
      f0      :     0.000234  f :     0.000702
      f+1     :     0.000108
      f-1     :     0.000241
      f+2     :     0.000052
      f-2     :     0.000058
      f+3     :     0.000005
      f-3     :     0.000004

 15 F s       :     3.919034  s :     3.919034
      pz      :     1.583863  p :     5.212570
      px      :     1.898117
      py      :     1.730590
      dz2     :     0.004326  d :     0.015878
      dxz     :     0.002516
      dyz     :     0.006027
      dx2y2   :     0.001495
      dxy     :     0.001514
      f0      :     0.000118  f :     0.000701
      f+1     :     0.000055
      f-1     :     0.000263
      f+2     :     0.000127
      f-2     :     0.000100
      f+3     :     0.000021
      f-3     :     0.000018

 16 F s       :     3.919084  s :     3.919084
      pz      :     1.594888  p :     5.212541
      px      :     1.899142
      py      :     1.718512
      dz2     :     0.004112  d :     0.015923
      dxz     :     0.002424
      dyz     :     0.006141
      dx2y2   :     0.001632
      dxy     :     0.001614
      f0      :     0.000110  f :     0.000704
      f+1     :     0.000049
      f-1     :     0.000260
      f+2     :     0.000137
      f-2     :     0.000102
      f+3     :     0.000024
      f-3     :     0.000022

 17 F s       :     3.919408  s :     3.919408
      pz      :     1.710522  p :     5.212232
      px      :     1.900255
      py      :     1.601455
      dz2     :     0.002481  d :     0.015953
      dxz     :     0.001463
      dyz     :     0.006246
      dx2y2   :     0.003215
      dxy     :     0.002549
      f0      :     0.000078  f :     0.000704
      f+1     :     0.000010
      f-1     :     0.000181
      f+2     :     0.000203
      f-2     :     0.000098
      f+3     :     0.000063
      f-3     :     0.000071

 18 F s       :     3.919449  s :     3.919449
      pz      :     1.486205  p :     5.211977
      px      :     1.899205
      py      :     1.826566
      dz2     :     0.006714  d :     0.015929
      dxz     :     0.003329
      dyz     :     0.004626
      dx2y2   :     0.000572
      dxy     :     0.000688
      f0      :     0.000246  f :     0.000703
      f+1     :     0.000115
      f-1     :     0.000234
      f+2     :     0.000046
      f-2     :     0.000054
      f+3     :     0.000004
      f-3     :     0.000003

 19 F s       :     3.918814  s :     3.918814
      pz      :     1.813673  p :     5.211633
      px      :     1.897313
      py      :     1.500647
      dz2     :     0.002005  d :     0.015824
      dxz     :     0.000642
      dyz     :     0.004915
      dx2y2   :     0.004918
      dxy     :     0.003345
      f0      :     0.000079  f :     0.000700
      f+1     :     0.000004
      f-1     :     0.000120
      f+2     :     0.000182
      f-2     :     0.000055
      f+3     :     0.000114
      f-3     :     0.000147

 20 F s       :     3.916355  s :     3.916355
      pz      :     1.434401  p :     5.210522
      px      :     1.897171
      py      :     1.878951
      dz2     :     0.008361  d :     0.016007
      dxz     :     0.003839
      dyz     :     0.003392
      dx2y2   :     0.000205
      dxy     :     0.000210
      f0      :     0.000365  f :     0.000717
      f+1     :     0.000168
      f-1     :     0.000160
[...]
      pz      :     0.000009  p :     0.000010
      px      :     0.000002
      py      :    -0.000001
      dz2     :    -0.000000  d :    -0.000002
      dxz     :    -0.000001
      dyz     :    -0.000001
      dx2y2   :     0.000000
      dxy     :    -0.000001
      f0      :     0.000000  f :    -0.000000
      f+1     :    -0.000000
      f-1     :    -0.000000
      f+2     :    -0.000000
      f-2     :    -0.000000
      f+3     :    -0.000000
      f-3     :     0.000000

 16 F s       :     0.000011  s :     0.000011
      pz      :     0.000011  p :     0.000064
      px      :     0.000017
      py      :     0.000036
      dz2     :    -0.000000  d :     0.000001
      dxz     :     0.000001
      dyz     :    -0.000000
      dx2y2   :     0.000000
      dxy     :    -0.000000
      f0      :     0.000000  f :    -0.000000
      f+1     :    -0.000000
      f-1     :    -0.000000
      f+2     :    -0.000000
      f-2     :    -0.000000
      f+3     :    -0.000000
      f-3     :     0.000000

 17 F s       :     0.000002  s :     0.000002
      pz      :    -0.000001  p :     0.000011
      px      :     0.000006
      py      :     0.000006
      dz2     :     0.000000  d :    -0.000000
      dxz     :     0.000000
      dyz     :    -0.000000
      dx2y2   :     0.000000
      dxy     :    -0.000000
      f0      :    -0.000000  f :    -0.000000
      f+1     :     0.000000
      f-1     :    -0.000000
      f+2     :    -0.000000
      f-2     :    -0.000000
      f+3     :    -0.000000
      f-3     :    -0.000000

 18 F s       :     0.000000  s :     0.000000
      pz      :     0.000002  p :     0.000007
      px      :     0.000007
      py      :    -0.000002
      dz2     :    -0.000000  d :    -0.000001
      dxz     :    -0.000000
      dyz     :    -0.000000
      dx2y2   :     0.000000
      dxy     :    -0.000000
      f0      :    -0.000000  f :    -0.000000
      f+1     :    -0.000000
      f-1     :    -0.000000
      f+2     :     0.000000
      f-2     :    -0.000000
      f+3     :    -0.000000
      f-3     :    -0.000000

 19 F s       :     0.000000  s :     0.000000
      pz      :    -0.000000  p :     0.000002
      px      :     0.000001
      py      :     0.000001
      dz2     :     0.000000  d :    -0.000000
      dxz     :    -0.000000
      dyz     :    -0.000000
      dx2y2   :    -0.000000
      dxy     :    -0.000000
      f0      :    -0.000000  f :    -0.000000
      f+1     :     0.000000
      f-1     :    -0.000000
      f+2     :    -0.000000
      f-2     :    -0.000000
      f+3     :    -0.000000
      f-3     :    -0.000000

 20 F s       :    -0.000000  s :    -0.000000
      pz      :     0.000001  p :     0.000000
      px      :    -0.000000
      py      :    -0.000000
      dz2     :    -0.000000  d :    -0.000000
      dxz     :    -0.000000
      dyz     :    -0.000000
      dx2y2   :     0.000000
      dxy     :     0.000000
      f0      :    -0.000000  f :    -0.000000
      f+1     :    -0.000000
      f-1     :    -0.000000
      f+2     :    -0.000000
      f-2     :    -0.000000
      f+3     :     0.000000
      f-3     :     0.000000

 21 F s       :     0.000000  s :     0.000000
      pz      :    -0.000000  p :     0.000001
      px      :     0.000000
      py      :     0.000000
      dz2     :    -0.000000  d :    -0.000000
      dxz     :    -0.000000
      dyz     :    -0.000000
      dx2y2   :    -0.000000
      dxy     :    -0.000000
      f0      :    -0.000000  f :    -0.000000
      f+1     :    -0.000000
      f-1     :    -0.000000
      f+2     :    -0.000000
      f-2     :     0.000000
      f+3     :    -0.000000
      f-3     :    -0.000000

 22 F s       :    -0.000000  s :    -0.000000
      pz      :     0.000000  p :    -0.000003
      px      :    -0.000003
      py      :    -0.000000
      dz2     :    -0.000000  d :    -0.000000
      dxz     :    -0.000000
      dyz     :    -0.000000
      dx2y2   :    -0.000000
      dxy     :    -0.000000
      f0      :    -0.000000  f :    -0.000000
      f+1     :    -0.000000
      f-1     :    -0.000000
      f+2     :    -0.000000
      f-2     :     0.000000
      f+3     :    -0.000000
      f-3     :    -0.000000

 23 F s       :     0.000000  s :     0.000000
      pz      :     0.000000  p :     0.000000
      px      :     0.000000
      py      :    -0.000000
      dz2     :    -0.000000  d :    -0.000000
      dxz     :    -0.000000
      dyz     :    -0.000000
      dx2y2   :     0.000000
      dxy     :     0.000000
      f0      :    -0.000000  f :    -0.000000
      f+1     :    -0.000000
      f-1     :    -0.000000
      f+2     :     0.000000
      f-2     :    -0.000000
      f+3     :     0.000000
      f-3     :     0.000000

 24 H s       :    -0.001379  s :    -0.001379
      pz      :     0.000573  p :     0.000637
      px      :     0.000017
      py      :     0.000047



                      *****************************
                      * MAYER POPULATION ANALYSIS *
                      *****************************

  NA   - Mulliken gross atomic population
  ZA   - Total nuclear charge
  QA   - Mulliken gross atomic charge
  VA   - Mayer's total valence
  BVA  - Mayer's bonded valence
  FA   - Mayer's free valence

  ATOM       NA         ZA         QA         VA         BVA        FA
  0 C      5.7625     6.0000     0.2375     4.4546     4.4501     0.0045
  1 O      8.3656     8.0000    -0.3656     2.1544     2.1540     0.0003
  2 O      8.3229     8.0000    -0.3229     2.1760     2.1533     0.0227
  3 C      5.8198     6.0000     0.1802     3.8264     3.3541     0.4723
  4 C      5.6522     6.0000     0.3478     4.2497     4.2474     0.0023
  5 C      5.7081     6.0000     0.2919     4.2452     4.2452     0.0000
  6 C      5.7007     6.0000     0.2993     4.2674     4.2674     0.0000
  7 C      5.7264     6.0000     0.2736     4.2190     4.2190     0.0000
  8 C      5.7043     6.0000     0.2957     4.2496     4.2496     0.0000
  9 C      5.5914     6.0000     0.4086     4.5704     4.5704     0.0000
 10 F      9.1233     9.0000    -0.1233     1.2230     1.2120     0.0110
 11 F      9.1538     9.0000    -0.1538     1.1622     1.1620     0.0002
 12 F      9.1620     9.0000    -0.1620     1.1484     1.1476     0.0008
 13 F      9.1517     9.0000    -0.1517     1.1752     1.1752     0.0000
 14 F      9.1506     9.0000    -0.1506     1.1767     1.1767     0.0000
 15 F      9.1474     9.0000    -0.1474     1.1811     1.1811     0.0000
 16 F      9.1464     9.0000    -0.1464     1.1829     1.1829     0.0000
 17 F      9.1480     9.0000    -0.1480     1.1827     1.1827     0.0000
 18 F      9.1477     9.0000    -0.1477     1.1805     1.1805    -0.0000
 19 F      9.1462     9.0000    -0.1462     1.1814     1.1814     0.0000
 20 F      9.1435     9.0000    -0.1435     1.1830     1.1830     0.0000
 21 F      9.1354     9.0000    -0.1354     1.1897     1.1897     0.0000
 22 F      9.1321     9.0000    -0.1321     1.1932     1.1932     0.0000
 23 F      9.1331     9.0000    -0.1331     1.1926     1.1926     0.0000
 24 H      0.6247     1.0000     0.3753     0.8861     0.8861     0.0000

  Mayer bond orders larger than 0.100000
B(  0-C ,  1-O ) :   1.2857 B(  0-C ,  2-O ) :   1.9698 B(  0-C ,  3-C ) :   1.1300 
B(  1-O , 24-H ) :   0.8275 B(  3-C ,  4-C ) :   1.0307 B(  3-C , 10-F ) :   1.1272 
B(  4-C ,  5-C ) :   0.9598 B(  4-C , 11-F ) :   1.0694 B(  4-C , 12-F ) :   1.0681 
B(  5-C ,  6-C ) :   0.9619 B(  5-C , 13-F ) :   1.0826 B(  5-C , 14-F ) :   1.0963 
B(  6-C ,  7-C ) :   0.9472 B(  6-C , 15-F ) :   1.1018 B(  6-C , 16-F ) :   1.1010 
B(  7-C ,  8-C ) :   0.9423 B(  7-C , 17-F ) :   1.0964 B(  7-C , 18-F ) :   1.1015 
B(  8-C ,  9-C ) :   0.9711 B(  8-C , 19-F ) :   1.1014 B(  8-C , 20-F ) :   1.1137 
B(  9-C , 21-F ) :   1.1589 B(  9-C , 22-F ) :   1.1636 B(  9-C , 23-F ) :   1.1706 


-------
TIMINGS
-------

Total SCF time: 0 days 0 hours 0 min 41 sec 

Total time                  ....      41.281 sec
Sum of individual times     ....      40.297 sec  ( 97.6%)

SCF preparation             ....       1.508 sec  (  3.7%)
Fock matrix formation       ....      33.919 sec  ( 82.2%)
  Startup                   ....       0.142 sec  (  0.4% of F)
  Split-RI-J                ....       2.168 sec  (  6.4% of F)
  Chain of spheres X        ....      22.809 sec  ( 67.2% of F)
  XC integration            ....       6.705 sec  ( 19.8% of F)
    XC Preparation          ....       0.000 sec  (  0.0% of XC)
    Basis function eval.    ....       0.417 sec  (  6.2% of XC)
    Density eval.           ....       2.091 sec  ( 31.2% of XC)
    XC-Functional eval.     ....       0.079 sec  (  1.2% of XC)
    XC-Potential eval.      ....       2.340 sec  ( 34.9% of XC)
  CPCM terms                ....       1.762 sec  (  5.2% of F)
Diagonalization             ....       0.000 sec  (  0.0%)
Density matrix formation    ....       0.584 sec  (  1.4%)
Total Energy calculation    ....       0.220 sec  (  0.5%)
Population analysis         ....       0.582 sec  (  1.4%)
Orbital Transformation      ....       0.583 sec  (  1.4%)
Orbital Orthonormalization  ....       0.000 sec  (  0.0%)
DIIS solution               ....       0.775 sec  (  1.9%)
SOSCF solution              ....       2.126 sec  (  5.2%)
Finished LeanSCF after  41.8 sec

Maximum memory used throughout the entire LEANSCF-calculation: 108.8 MB


-------------------------------------------------------------------------------
                          DFT DISPERSION CORRECTION                            
                                                                               
                              DFTD3 V3.1  Rev 1                                
                          USING Becke-Johnson damping                          
-------------------------------------------------------------------------------
The TPSSH functional is recognized
Active option DFTDOPT                   ...         4   

molecular C6(AA) [au] = 6518.245832 


            DFT-D V3
 parameters
 s6 scaling factor         :     1.0000 
 a1 scaling factor         :     0.4529 
 s8 scaling factor         :     2.2382 
 a2 scaling factor         :     4.6550 
 ad hoc parameters k1-k3   :    16.0000     1.3333    -4.0000 

 Edisp/kcal,au: -18.601827085336  -0.029643895224 
 E6   /kcal   :  -9.021895211 
 E8   /kcal   :  -9.579931874 
 % E8         :  51.499951217 

-------------------------   ----------------
Dispersion correction           -0.029643895
-------------------------   ----------------


-------------------------   --------------------
FINAL SINGLE POINT ENERGY     -1854.415716858437
-------------------------   --------------------

                                *** OPTIMIZATION RUN DONE ***



           ************************************************************
           *        Program running with 20 parallel MPI-processes    *
           *              working on a common directory               *
           ************************************************************

------------------------------------------------------------------------------
                              ORCA PROPERTY CALCULATIONS
------------------------------------------------------------------------------

GBWName                                 ... rf_mecn_opt_TP_C2_P_B.gbw
Number of atoms                         ...     25
Number of basis functions               ...    750
Max core memory                         ...   8000 MB

Electric properties:
Dipole moment                           ... YES
Quadrupole moment                       ...  NO
Static polarizability (Dipole/Dipole)   ...  NO
Static polarizability (Dipole/Quad.)    ...  NO
Static polarizability (Quad./Quad.)     ...  NO
Static polarizability (Velocity)        ...  NO

Atomic electric properties:
Dipole moment                           ...  NO
Quadrupole moment                       ...  NO
Static polarizability                   ...  NO

Choice of electric origin               ... Center of mass
Position of electric origin             ...    -0.469000    -0.129645    -0.224532

General magnetic properties:
Magnetizability                         ...  NO

EPR properties:
g-Tensor (aka g-matrix)                 ...  NO
Zero-Field splitting spin-orbit         ...  NO
Zero-field splitting spin-spin          ...  NO
Hyperfine couplings                     ...  NO (   0 nuclei)
Quadrupole couplings                    ...  NO (   0 nuclei)
Contact density                         ...  NO (   0 nuclei)

NMR properties:
Chemical shifts                         ...  NO (   0 nuclei)
Spin-rotation constants                 ...  NO (   0 nuclei)
Spin-spin couplings                     ...  NO (   0 nuclei,    0 pairs)

Choice of magnetic origin               ... GIAO
Position of magnetic origin             ...     0.000000     0.000000     0.000000

Properties with geometric perturbations:
SCF Hessian                             ...  NO
IR spectrum                             ...  NO
VCD spectrum                            ...  NO
X-ray spectroscopy properties:
SCF XES/XAS/RIXS spectra                ...  NO


-------------
DIPOLE MOMENT
-------------

Method             : SCF
Type of density    : Electron Density
Multiplicity       :   2
Irrep              :   0
Energy             : -1854.3860729632128823 Eh
Relativity type    : 
Basis              : AO
                                X                 Y                 Z
Electronic contribution:    -16.787534470      -0.102366412       0.549392986
Nuclear contribution   :     17.681351840      -0.634969054      -0.354424414
                        -----------------------------------------
Total Dipole Moment    :      0.893817370      -0.737335466       0.194968572
                        -----------------------------------------
Magnitude (a.u.)       :      1.174983330
Magnitude (Debye)      :      2.986570277



--------------------
Rotational spectrum 
--------------------
 
Rotational constants in cm-1:             0.023174             0.003944             0.003820 
Rotational constants in MHz :           694.734239           118.252699           114.534141 

Dipole components along the rotational axes: 
x,y,z [a.u.] :    -0.917976    -0.705408     0.200760 
x,y,z [Debye]:    -2.333311    -1.793005     0.510292 

 

Dipole moment calculation done in   0.1 sec 

Maximum memory used throughout the entire PROP-calculation: 56.4 MB

--------------------------------
SUGGESTED CITATIONS FOR THIS RUN
--------------------------------

Below you find a list of papers that are relevant to this ORCA run
We neither can nor want to force you to cite these papers, but we appreciate if you do
You receive ORCA, which is the product of decades of hard work by many enthusiastic individuals, for free
The only thing we kindly ask in return is that you cite our papers,
We deeply appreciate it, if you show your appreciation for ORCA by not just citing the generic ORCA reference.

Please note that relegating all ORCA citations to the supporting information does *not* help us.
SI sections are not indexed - citations you put there will not count into any citation statistics
But we need these citations in order to attract the funding resources that allow us to do what we are doing

Therefore, if you are a happy ORCA user, please consider citing a few of the papers listed below in the main body of your paper

In addition to the list printed below, the program has created the file rf_mecn_opt_TP_C2_P_B.bibtex that contains the list in bibtex format
You can import this file easily into all common literature databanks and citation aid programs


List of essential papers. We consider these as the minimum necessary citations

  1. Neese,F.
     Software update: the ORCA program system, version 5.0
     WIRES Comput. Molec. Sci., 2022 12(1)e1606
     doi.org/10.1002/wcms.1606

List of papers to cite with high priority. The work reported in these papers was absolutely
necessary for this run to complete.
Our perspective: the developers of density functionals and basis sets usually get cited in chemistry papers
Good! But without the algorithms to do something with them, the functionals or basis sets would not do anything.
Hence, in our opinion, the algorithm design and method developments papers are equally worthy of getting cited

  1. Neese,F.
     An improvement of the resolution of the identity approximation for the formation of the Coulomb matrix
     J. Comp. Chem., 2003 24(14)1740-1747
     doi.org/10.1002/jcc.10318
  2. Neese,F.; Wennmohs,F.; Hansen,A.; Becker,U.
     Efficient, approximate and parallel Hartree-Fock and hybrid DFT calculations. A 'chain-of-spheres' algorithm for the Hartree-Fock exchange
     Chem. Phys., 2009 356(1-3)98-109
     doi.org/10.1016/j.chemphys.2008.10.036
  3. Garcia-Rates,M.; Neese,F.
     Effect of the Solute Cavity on the Solvation Energy and its Derivatives within the Framework of the Gaussian Charge Scheme
     J. Comput. Chem., 2020 41 922-939
     doi.org/10.1002/jcc.26139
  4. Helmich-Paris,B.; de Souza,B.; Neese,F.; Izsák,R.
     An improved chain of spheres for exchange algorithm
     J. Chem. Phys., 2021 155 104109
     doi.org/doi: 10.1063/5.0058766.
  5. Neese,F.
     The SHARK Integral Generation and Digestion System
     J. Comp. Chem., 2022  1-16
     doi.org/10.1002/jcc.26942
  6. Grimme,S.; Antony,J.; Ehrlich,S.; Krieg,H.
     A consistent and accurate ab initio parametrization of density functional dispersion correction (DFT-D) for the 94 elements H-Pu
     J. Chem. Phys., 2010 132 154104
     doi.org/10.1063/1.3382344
  7. Grimme,S.; Ehrlich,S.; Goerigk,L.
     Effect of the damping function in dispersion corrected density functional theory
     J. Comput. Chem., 2011 32(7)1456-1465
     doi.org/10.1002/jcc.21759

List of suggested additional citations. These are papers that are important in the 'surrounding' of 
of this run, or papers that preceded the highly important papers. If you like your results we are grateful for a citation.

  1. Izsak,R.; Neese,F.
     An overlap fitted chain of spheres exchange method
     J. Chem. Phys., 2011 135 144105
     doi.org/10.1063/1.3646921
  2. Izsak,R.; Hansen,A.; Neese,F.
     The resolution of identity and chain of spheres approximations for the LPNO-CCSD singles Fock term
     Molec. Phys., 2012 110 2413-2417
     doi.org/10.1080/00268976.2012.687466
  3. Neese,F.
     The ORCA program system
     WIRES Comput. Molec. Sci., 2012 2(1)73-78
     doi.org/10.1002/wcms.81
  4. Izsak,R.; Neese,F.; Klopper,W.
     Robust fitting techniques in the chain of spheres approximation to the Fock exchange: The role of the complementary space
     J. Chem. Phys., 2013 139 
     doi.org/10.1063/1.4819264
  5. Neese,F.
     Software update: the ORCA program system, version 4.0
     WIRES Comput. Molec. Sci., 2018 8(1)1-6
     doi.org/10.1002/wcms.1327
  6. Neese,F.; Wennmohs,F.; Becker,U.; Riplinger,C.
     The ORCA quantum chemistry program package
     J. Chem. Phys., 2020 152 Art. No. L224108
     doi.org/10.1063/5.0004608

List of optional additional citations

  1. Neese,F.
     Approximate second-order SCF convergence for spin unrestricted wavefunctions
     Chem. Phys. Lett., 2000 325(1-3)93-98
     doi.org/10.1016/s0009-2614(00)00662-x

Timings for individual modules:

Sum of individual times          ...     3745.948 sec (=  62.432 min)
Startup calculation              ...      184.313 sec (=   3.072 min)   4.9 %
SCF iterations                   ...     2676.348 sec (=  44.606 min)  71.4 %
Property calculations            ...        1.028 sec (=   0.017 min)   0.0 %
SCF Gradient evaluation          ...      883.381 sec (=  14.723 min)  23.6 %
Geometry relaxation              ...        0.878 sec (=   0.015 min)   0.0 %
                             ****ORCA TERMINATED NORMALLY****
TOTAL RUN TIME: 0 days 1 hours 2 minutes 55 seconds 297 msec
