
                                 *****************
                                 * O   R   C   A *
                                 *****************

                                            #,                                       
                                            ###                                      
                                            ####                                     
                                            #####                                    
                                            ######                                   
                                           ########,                                 
                                     ,,################,,,,,                         
                               ,,#################################,,                 
                          ,,##########################################,,             
                       ,#########################################, ''#####,          
                    ,#############################################,,   '####,        
                  ,##################################################,,,,####,       
                ,###########''''           ''''###############################       
              ,#####''   ,,,,##########,,,,          '''####'''          '####       
            ,##' ,,,,###########################,,,                        '##       
           ' ,,###''''                  '''############,,,                           
         ,,##''                                '''############,,,,        ,,,,,,###''
      ,#''                                            '''#######################'''  
     '                                                          ''''####''''         
             ,#######,   #######,   ,#######,      ##                                
            ,#'     '#,  ##    ##  ,#'     '#,    #''#        ,####,   ,####,        
            ##       ##  ##   ,#'  ##            #'  '#       #'       #'  '#        
            ##       ##  #######   ##           ,######,      #####,   #    #        
            '#,     ,#'  ##    ##  '#,     ,#' ,#      #,     #,   #   #,  ,#        
             '#######'   ##     ##  '#######'  #'      '#     '####' # '####'        



                #########################################################
                #                        -***-                          #
                #          Department of theory and spectroscopy        #
                #                                                       #
                #                      Frank Neese                      #
                #                                                       #
                #     Directorship, Architecture, Infrastructure        #
                #                    SHARK, DRIVERS                     #
                #        Core code/Algorithms in most modules           #
                #                                                       #
                #        Max Planck Institute fuer Kohlenforschung      #
                #                Kaiser Wilhelm Platz 1                 #
                #                 D-45470 Muelheim/Ruhr                 #
                #                      Germany                          #
                #                                                       #
                #                  All rights reserved                  #
                #                        -***-                          #
                #########################################################


                         Program Version 6.0.1  -  RELEASE   -


 With contributions from (in alphabetic order):
[Max-Planck-Institut fuer Kohlenforschung]                               
  Daniel Aravena         : Magnetic Suceptibility                        
  Michael Atanasov       : Ab Initio Ligand Field Theory (pilot matlab implementation)
  Alexander A. Auer      : GIAO ZORA, VPT2 properties, NMR spectrum      
  Ute Becker             : All parallelization in ORCA, NUMFREQ, NUMCALC 
  Giovanni Bistoni       : ED, misc. LED, open-shell LED, HFLD           
  Martin Brehm           : Molecular dynamics                            
  Dmytro Bykov           : pre 5.0 version of the SCF Hessian            
  Marcos Casanova-Páez   : Triplet and SCS-CIS(D). UHF-(DLPNO)-IP/EA/STEOM-CCSD. UHF-CVS-IP/STEOM-CCSD   
  Vijay G. Chilkuri      : MRCI spin determinant printing, contributions to CSF-ICE 
  Pauline Colinet        : FMM embedding                                 
  Dipayan Datta          : RHF DLPNO-CCSD density                        
  Achintya Kumar Dutta   : EOM-CC, STEOM-CC                              
  Nicolas Foglia         : Exact transition moments, OPA infrastructure, MCD improvements    
  Dmitry Ganyushin       : Spin-Orbit,Spin-Spin,Magnetic field MRCI      
  Miquel Garcia-Rates    : C-PCM and meta-GGA Hessian, CCSD/C-PCM, Gaussian charge scheme 
  Tiago L. C. Gouveia    : GS-ROHF, GS-ROCIS                             
  Yang Guo               : DLPNO-NEVPT2, F12-NEVPT2, CIM, IAO-localization        
  Andreas Hansen         : Spin unrestricted coupled pair/coupled cluster methods 
  Ingolf Harden          : AUTO-CI MPn and infrastructure                
  Benjamin Helmich-Paris : MC-RPA, TRAH-(SCF,CASSCF), AVAS, COSX integrals, SCF dyn. polar. 
  Lee Huntington         : MR-EOM, pCC                                   
  Robert Izsak           : Overlap fitted RIJCOSX, COSX-SCS-MP3, EOM     
  Riya Kayal             : Wick's Theorem for AUTO-CI, AUTO-CI UHF-CCSDT 
  Emily Kempfer          : AUTO-CI, RHF CISDT and CCSDT                  
  Christian Kollmar      : KDIIS, OOCD, Brueckner-CCSD(T), CCSD density, CASPT2, CASPT2-K, improved NEVPT2 
  Axel Koslowski         : Symmetry handling                             
  Simone Kossmann        : meta-GGA functionals, TD-DFT gradient, OOMP2, (MP2 Hessian; deprecated post 5.0) 
  Lucas Lang             : DCDCAS                                        
  Marvin Lechner         : AUTO-CI (C++ implementation), FIC-MRCC        
  Spencer Leger          : CASSCF response                               
  Dagmar Lenk            : GEPOL surface, SMD, ORCA-2-JSON               
  Dimitrios Liakos       : Extrapolation schemes; Compound Job, initial MDCI parallelization 
  Dimitrios Manganas     : Further ROCIS development; embedding schemes. LFT, Crystal Embedding 
  Dimitrios Pantazis     : SARC Basis sets                               
  Anastasios Papadopoulos: AUTO-CI, single reference methods and gradients 
  Taras Petrenko         : pre 6.0 DFT Hessian and TD-DFT gradient, (ASA, deprecated), ECA, 1-Electron XAS/XES, NRVS 
  Peter Pinski           : DLPNO-MP2, DLPNO-MP2 Gradient                 
  Christoph Reimann      : Effective Core Potentials                     
  Marius Retegan         : Local ZFS, SOC                                
  Christoph Riplinger    : Optimizer, TS searches, QM/MM, DLPNO-CCSD(T), (RO)-DLPNO pert. Triples 
  Michael Roemelt        : Original ROCIS implementation                 
  Masaaki Saitow         : Open-shell DLPNO-CCSD energy and density      
  Barbara Sandhoefer     : DKH picture change effects                    
  Kantharuban Sivalingam : CASSCF convergence/infrastructure, NEVPT2 and variants, FIC-MRCI 
  Bernardo de Souza      : ESD, SOC TD-DFT                               
  Georgi L. Stoychev     : AutoAux, RI-MP2 NMR, DLPNO-MP2 response, X2C  
  Van Anh Tran           : RI-MP2 g-tensors                              
  Willem Van den Heuvel  : Paramagnetic NMR                              
  Zikuan Wang            : NOTCH, Electric field optimization            
  Frank Wennmohs         : Technical directorship and infrastructure     
  Hang Xu                : AUTO-CI-Response properties                   
                                                                         
[FACCTs GmbH]                                                            
  Markus Bursch, Miquel Garcia-Rates, Christoph Riplinger, Bernardo de Souza, Georgi L. Stoychev 
                                                                 
  APM, Basis sets (HGBS, AHGBS, def-TZVP (Ac-Lr), def2-XVPD (La-Lu)), CI-OPT, improved COSX, DLPNO-Multilevel,           
  DOCKER, DRACO, updates on ESD, GOAT, IRC, LR-CPCM, MBIS, meta-GGA TD-DFT gradient, ML-optimized integration grids, 
  MM, NACMEs, nearIR, NEB, NEB-TS, NL-DFT gradient (VV10), 2- and 3-layer-ONIOM, interface openCOSMO-RS, QMMM,   
  Crystal-QMMM, SF, symmetry and pop. for TD-DFT, r2SCAN hybrids, SOLVATOR                                   
                                                                         
[Other institutions]                                                     
  V. Asgeirsson          : NEB                                           
  Christoph Bannwarth    : sTDA-DFT, sTD-DFT, PBEh-3c, B97-3c, D3        
  Sebastian Ehlert       : rSCAN, r2SCAN, r2SCAN-3c, D4, dhf basis sets  
  Marvin Friede          : D4 for Fr, Ra, Ac-Lr                          
  Lars Goerigk           : TD-DFT with DH, B97 family of functionals     
  Stefan Grimme          : VdW corrections, initial TS optimization, DFT functionals, gCP, sTDA/sTD-DF 
  Waldemar Hujo          : DFT-NL                                        
  H. Jonsson             : NEB                                           
  Holger Kruse           : gCP                                           
  Marcel Mueller         : wB97X-3c, vDZP basis set                      
  Hagen Neugebauer       : wr2SCAN                                       
  Tobias Risthaus        : range-separated hybrid DFT                    
  Lukas Wittmann         : regularized MP2, r2SCAN double-hybrids, wr2SCAN        
                                                                         
We gratefully acknowledge several colleagues who have allowed us to      
interface, adapt or use parts of their codes:                            
  Ed Valeev, F. Pavosevic, A. Kumar             : LibInt (2-el integral package), F12 methods 
  Garnet Chan, S. Sharma, J. Yang, R. Olivares  : DMRG                   
  Ulf Ekstrom                                   : XCFun DFT Library      
  Mihaly Kallay                                 : mrcc  (arbitrary order and MRCC methods)
  Frank Weinhold                                : gennbo (NPA and NBO analysis)           
  Simon Mueller                                 : openCOSMO-RS                            
  Christopher J. Cramer and Donald G. Truhlar   : smd solvation model                     
  S Lehtola, MJT Oliveira, MAL Marques          : LibXC Library                           
  Liviu Ungur et al                             : ANISO software                          


 Your calculation uses the libint2 library for the computation of 2-el integrals
 For citations please refer to: http://libint.valeyev.net

 Your ORCA version has been built with support for libXC version: 6.2.2
 For citations please refer to: https://libxc.gitlab.io

 This ORCA versions uses:
   CBLAS   interface :  Fast vector & matrix operations
   LAPACKE interface :  Fast linear algebra routines
   SCALAPACK package :  Parallel linear algebra routines
   Shared memory     :  Shared parallel matrices
   BLAS/LAPACK       :  OpenBLAS 0.3.27  USE64BITINT DYNAMIC_ARCH NO_AFFINITY SkylakeX SINGLE_THREADED
        Core in use  :  SkylakeX
   Copyright (c) 2011-2014, The OpenBLAS Project


NOTE: MaxCore=8000 MB was set to SCF,MP2,MDCI,CIPSI,MRCI and CIS
      => If you want to overwrite this, your respective input block should be placed after the MaxCore statement
Your calculation utilizes the atom-pairwise dispersion correction
with the Becke-Johnson damping scheme (D3BJ)


Your calculation utilizes the SMD solvation module
Please cite in your paper:
A.V. Marenich, C.J. Cramer, D.G. Truhlar J. Phys. Chem. B, 113, (2009), 6378 

Warning: RI is on but no J-basis has been assigned. Assigning Def2/J (nothing to worry about!)
================================================================================

----- Orbital basis set information -----
Your calculation utilizes the basis: def2-TZVP
   F. Weigend and R. Ahlrichs, Phys. Chem. Chem. Phys. 7, 3297 (2005).

----- AuxJ basis set information -----
Your calculation utilizes the auxiliary basis: def2/J
   F. Weigend, Phys. Chem. Chem. Phys. 8, 1057 (2006).

================================================================================
                                        WARNINGS
                       Please study these warnings very carefully!
================================================================================


================================================================================
                                       INPUT FILE
================================================================================
NAME = rf_mecn_2H2O_freq_TP_con_01.inp
|  1> !TPSSh def2-TZVP freq d3 TightSCF SlowConv defgrid2
|  2>  
|  3> %pal
|  4> nprocs 20
|  5> end
|  6>  
|  7> %scf
|  8> MaxIter 1500
|  9> end
| 10>  
| 11> %maxcore 8000
| 12>  
| 13> !CPCM
| 14> %cpcm smd true
| 15> SMDsolvent "ACETONITRILE"
| 16> end
| 17>  
| 18> * xyz -1 1
| 19> 6        7.532603000     27.489455000      3.052301000
| 20> 6        6.642527000     26.278979000      2.624243000
| 21> 6        7.447820000     25.041555000      2.102473000
| 22> 6        6.616000000     23.712985000      2.103896000
| 23> 6        7.227649000     22.593686000      1.193221000
| 24> 6        6.686639000     21.159845000      1.510636000
| 25> 6        6.920042000     20.103543000      0.392428000
| 26> 6        6.752421000     18.629512000      0.924047000
| 27> 9        8.413523000     27.790108000      2.092045000
| 28> 9        8.192613000     27.222714000      4.180838000
| 29> 9        6.747249000     28.550582000      3.261013000
| 30> 9        5.900593000     25.920561000      3.694438000
| 31> 9        5.817295000     26.703337000      1.646372000
| 32> 9        7.858787000     25.309328000      0.844092000
| 33> 9        8.536955000     24.868043000      2.881348000
| 34> 9        6.548344000     23.260823000      3.374406000
| 35> 9        5.364515000     23.984207000      1.673321000
| 36> 9        6.950657000     22.901065000     -0.092898000
| 37> 9        8.570594000     22.595164000      1.357410000
| 38> 9        7.297928000     20.730575000      2.642893000
| 39> 9        5.357218000     21.246179000      1.758984000
| 40> 9        6.041471000     20.358586000     -0.618160000
| 41> 9        8.172752000     20.307113000     -0.115771000
| 42> 8        7.807800000     18.048051000      1.233451000
| 43> 8        5.574153000     18.231462000      0.982291000
| 44> 8        3.080653000     19.066976000      0.097957000
| 45> 1        2.641486000     18.208749000      0.032068000
| 46> 1        3.997236000     18.848301000      0.378512000
| 47> 1        9.407189000     18.757821000      1.610212000
| 48> 8       10.295669000     19.083049000      1.881903000
| 49> 1       10.303834000     20.008488000      1.604251000
| 50> *
| 51> 
| 52>                          ****END OF INPUT****
================================================================================

                       ****************************
                       * Single Point Calculation *
                       ****************************

---------------------------------
CARTESIAN COORDINATES (ANGSTROEM)
---------------------------------
  C      7.532603   27.489455    3.052301
  C      6.642527   26.278979    2.624243
  C      7.447820   25.041555    2.102473
  C      6.616000   23.712985    2.103896
  C      7.227649   22.593686    1.193221
  C      6.686639   21.159845    1.510636
  C      6.920042   20.103543    0.392428
  C      6.752421   18.629512    0.924047
  F      8.413523   27.790108    2.092045
  F      8.192613   27.222714    4.180838
  F      6.747249   28.550582    3.261013
  F      5.900593   25.920561    3.694438
  F      5.817295   26.703337    1.646372
  F      7.858787   25.309328    0.844092
  F      8.536955   24.868043    2.881348
  F      6.548344   23.260823    3.374406
  F      5.364515   23.984207    1.673321
  F      6.950657   22.901065   -0.092898
  F      8.570594   22.595164    1.357410
  F      7.297928   20.730575    2.642893
  F      5.357218   21.246179    1.758984
  F      6.041471   20.358586   -0.618160
  F      8.172752   20.307113   -0.115771
  O      7.807800   18.048051    1.233451
  O      5.574153   18.231462    0.982291
  O      3.080653   19.066976    0.097957
  H      2.641486   18.208749    0.032068
  H      3.997236   18.848301    0.378512
  H      9.407189   18.757821    1.610212
  O     10.295669   19.083049    1.881903
  H     10.303834   20.008488    1.604251

----------------------------
CARTESIAN COORDINATES (A.U.)
----------------------------
  NO LB      ZA    FRAG     MASS         X           Y           Z
   0 C     6.0000    0    12.011   14.234557   51.947542    5.768013
   1 C     6.0000    0    12.011   12.552557   49.660073    4.959101
   2 C     6.0000    0    12.011   14.074340   47.321681    3.973098
   3 C     6.0000    0    12.011   12.502428   44.811047    3.975787
   4 C     6.0000    0    12.011   13.658277   42.695879    2.254861
   5 C     6.0000    0    12.011   12.635916   39.986312    2.854688
   6 C     6.0000    0    12.011   13.076984   37.990191    0.741581
   7 C     6.0000    0    12.011   12.760226   35.204676    1.746196
   8 F     9.0000    0    18.998   15.899254   52.515693    3.953392
   9 F     9.0000    0    18.998   15.481795   51.443474    7.900639
  10 F     9.0000    0    18.998   12.750453   53.952781    6.162421
  11 F     9.0000    0    18.998   11.150505   48.982762    6.981476
  12 F     9.0000    0    18.998   10.993094   50.461994    3.111192
  13 F     9.0000    0    18.998   14.850955   47.827699    1.595103
  14 F     9.0000    0    18.998   16.132507   46.993791    5.444959
  15 F     9.0000    0    18.998   12.374577   43.956585    6.376703
  16 F     9.0000    0    18.998   10.137464   45.323583    3.162118
  17 F     9.0000    0    18.998   13.134838   43.276741   -0.175552
  18 F     9.0000    0    18.998   16.196075   42.698672    2.565133
  19 F     9.0000    0    18.998   13.791085   39.175109    4.994344
  20 F     9.0000    0    18.998   10.123675   40.149460    3.323998
  21 F     9.0000    0    18.998   11.416726   38.472152   -1.168153
  22 F     9.0000    0    18.998   15.444263   38.374882   -0.218775
  23 O     8.0000    0    15.999   14.754604   34.105874    2.330885
  24 O     8.0000    0    15.999   10.533623   34.452470    1.856261
  25 O     8.0000    0    15.999    5.821590   36.031363    0.185112
  26 H     1.0000    0     1.008    4.991685   34.409549    0.060600
  27 H     1.0000    0     1.008    7.553681   35.618127    0.715284
  28 H     1.0000    0     1.008   17.777011   35.447145    3.042860
  29 O     8.0000    0    15.999   19.455995   36.061736    3.556281
  30 H     1.0000    0     1.008   19.471424   37.810563    3.031595

--------------------------------
INTERNAL COORDINATES (ANGSTROEM)
--------------------------------
 C      0   0   0     0.000000000000     0.00000000     0.00000000
 C      1   0   0     1.562280731404     0.00000000     0.00000000
 C      2   1   0     1.565873208317   114.24210382     0.00000000
 C      3   2   1     1.567489962401   113.36458276   161.97550226
 C      4   3   2     1.567250364883   113.43396241   161.98408288
 C      5   4   3     1.565038055641   113.67516919   162.28691299
 C      6   5   4     1.555840611013   115.11183596   162.44034744
 C      7   6   5     1.575907024467   112.12493987   163.03290955
 F      1   2   3     1.337349564753   110.65466334    50.28388575
 F      1   2   3     1.334301210953   111.01818890   289.04939851
 F      1   2   3     1.336537359893   108.85447656   169.68287762
 F      2   1   3     1.350646830635   107.54591089   121.99156285
 F      2   1   3     1.348079841341   107.67463862   239.07102351
 F      3   2   1     1.350599494957   108.07566248   283.27781760
 F      3   2   1     1.350173221477   108.91606669    40.98173989
 F      4   3   2     1.350267924776   108.13583121   283.12600488
 F      4   3   2     1.350988863438   108.73171909    40.99203666
 F      5   4   3     1.351039784709   108.09811527   283.82776064
 F      5   4   3     1.352945484944   108.42649273    41.36876103
 F      6   5   4     1.356448630974   107.66478686   283.58581155
 F      6   5   4     1.355171754392   108.53704369    40.27389088
 F      7   6   5     1.363166181958   108.00566386   285.50190817
 F      7   6   5     1.367109839260   107.67023418    40.36241476
 O      8   7   6     1.244046849350   115.52120907   262.88295107
 O      8   7   6     1.245050860752   114.54946106    82.15476793
 O     25   8   7     2.774467970216   137.67487596    11.20933005
 H     26  25   8     0.966313922977    99.36517101   152.73415137
 H     26  25   8     0.983185770615     5.26466573   355.35265469
 H     24   8   7     1.789907114166   128.68628008    19.44343095
 O     29  24   8     0.984370845700   174.63881522   142.16809654
 H     30  29  24     0.966227014241   104.16765326   203.34446837

---------------------------
INTERNAL COORDINATES (A.U.)
---------------------------
 C      0   0   0     0.000000000000     0.00000000     0.00000000
 C      1   0   0     2.952282726656     0.00000000     0.00000000
 C      2   1   0     2.959071524164   114.24210382     0.00000000
 C      3   2   1     2.962126746609   113.36458276   161.97550226
 C      4   3   2     2.961673972918   113.43396241   161.98408288
 C      5   4   3     2.957493314327   113.67516919   162.28691299
 C      6   5   4     2.940112662847   115.11183596   162.44034744
 C      7   6   5     2.978032688765   112.12493987   163.03290955
 F      1   2   3     2.527224422702   110.65466334    50.28388575
 F      1   2   3     2.521463868860   111.01818890   289.04939851
 F      1   2   3     2.525689577951   108.85447656   169.68287762
 F      2   1   3     2.552352613549   107.54591089   121.99156285
 F      2   1   3     2.547501706794   107.67463862   239.07102351
 F      3   2   1     2.552263162082   108.07566248   283.27781760
 F      3   2   1     2.551457621946   108.91606669    40.98173989
 F      4   3   2     2.551636585246   108.13583121   283.12600488
 F      4   3   2     2.552998961876   108.73171909    40.99203666
 F      5   4   3     2.553095189132   108.09811527   283.82776064
 F      5   4   3     2.556696440669   108.42649273    41.36876103
 F      6   5   4     2.563316427272   107.66478686   283.58581155
 F      6   5   4     2.560903480226   108.53704369    40.27389088
 F      7   6   5     2.576010758924   108.00566386   285.50190817
 F      7   6   5     2.583463191190   107.67023418    40.36241476
 O      8   7   6     2.350907843039   115.52120907   262.88295107
 O      8   7   6     2.352805149625   114.54946106    82.15476793
 O     25   8   7     5.242984631044   137.67487596    11.20933005
 H     26  25   8     1.826068673821    99.36517101   152.73415137
 H     26  25   8     1.857951845230     5.26466573   355.35265469
 H     24   8   7     3.382434250931   128.68628008    19.44343095
 O     29  24   8     1.860191312590   174.63881522   142.16809654
 H     30  29  24     1.825904440113   104.16765326   203.34446837

---------------------
BASIS SET INFORMATION
---------------------
There are 4 groups of distinct atoms

 Group   1 Type C   : 11s6p2d1f contracted to 5s3p2d1f pattern {62111/411/11/1}
 Group   2 Type F   : 11s6p2d1f contracted to 5s3p2d1f pattern {62111/411/11/1}
 Group   3 Type O   : 11s6p2d1f contracted to 5s3p2d1f pattern {62111/411/11/1}
 Group   4 Type H   : 5s1p contracted to 3s1p pattern {311/1}

Atom   0C    basis set group =>   1
Atom   1C    basis set group =>   1
Atom   2C    basis set group =>   1
Atom   3C    basis set group =>   1
Atom   4C    basis set group =>   1
Atom   5C    basis set group =>   1
Atom   6C    basis set group =>   1
Atom   7C    basis set group =>   1
Atom   8F    basis set group =>   2
Atom   9F    basis set group =>   2
Atom  10F    basis set group =>   2
Atom  11F    basis set group =>   2
Atom  12F    basis set group =>   2
Atom  13F    basis set group =>   2
Atom  14F    basis set group =>   2
Atom  15F    basis set group =>   2
Atom  16F    basis set group =>   2
Atom  17F    basis set group =>   2
Atom  18F    basis set group =>   2
Atom  19F    basis set group =>   2
Atom  20F    basis set group =>   2
Atom  21F    basis set group =>   2
Atom  22F    basis set group =>   2
Atom  23O    basis set group =>   3
Atom  24O    basis set group =>   3
Atom  25O    basis set group =>   3
Atom  26H    basis set group =>   4
Atom  27H    basis set group =>   4
Atom  28H    basis set group =>   4
Atom  29O    basis set group =>   3
Atom  30H    basis set group =>   4
---------------------------------
AUXILIARY/J BASIS SET INFORMATION
---------------------------------
There are 4 groups of distinct atoms

 Group   1 Type C   : 12s5p4d2f1g contracted to 6s4p3d1f1g pattern {711111/2111/211/2/1}
 Group   2 Type F   : 12s5p4d2f1g contracted to 6s4p3d1f1g pattern {711111/2111/211/2/1}
 Group   3 Type O   : 12s5p4d2f1g contracted to 6s4p3d1f1g pattern {711111/2111/211/2/1}
 Group   4 Type H   : 5s2p1d contracted to 3s1p1d pattern {311/2/1}

Atom   0C    basis set group =>   1
Atom   1C    basis set group =>   1
Atom   2C    basis set group =>   1
Atom   3C    basis set group =>   1
Atom   4C    basis set group =>   1
Atom   5C    basis set group =>   1
Atom   6C    basis set group =>   1
Atom   7C    basis set group =>   1
Atom   8F    basis set group =>   2
Atom   9F    basis set group =>   2
Atom  10F    basis set group =>   2
Atom  11F    basis set group =>   2
Atom  12F    basis set group =>   2
Atom  13F    basis set group =>   2
Atom  14F    basis set group =>   2
Atom  15F    basis set group =>   2
Atom  16F    basis set group =>   2
Atom  17F    basis set group =>   2
Atom  18F    basis set group =>   2
Atom  19F    basis set group =>   2
Atom  20F    basis set group =>   2
Atom  21F    basis set group =>   2
Atom  22F    basis set group =>   2
Atom  23O    basis set group =>   3
Atom  24O    basis set group =>   3
Atom  25O    basis set group =>   3
Atom  26H    basis set group =>   4
Atom  27H    basis set group =>   4
Atom  28H    basis set group =>   4
Atom  29O    basis set group =>   3
Atom  30H    basis set group =>   4


           ************************************************************
           *        Program running with 20 parallel MPI-processes    *
           *              working on a common directory               *
           ************************************************************
------------------------------------------------------------------------------
                             ORCA STARTUP CALCULATIONS
                           -- RI-GTO INTEGRALS CHOSEN --
------------------------------------------------------------------------------
------------------------------------------------------------------------------
                   ___                                                        
                  /   \      - P O W E R E D   B Y -                         
                 /     \                                                     
                 |  |  |   _    _      __       _____    __    __             
                 |  |  |  | |  | |    /  \     |  _  \  |  |  /  |          
                  \  \/   | |  | |   /    \    | | | |  |  | /  /          
                 / \  \   | |__| |  /  /\  \   | |_| |  |  |/  /          
                |  |  |   |  __  | /  /__\  \  |    /   |      \           
                |  |  |   | |  | | |   __   |  |    \   |  |\   \          
                \     /   | |  | | |  |  |  |  | |\  \  |  | \   \       
                 \___/    |_|  |_| |__|  |__|  |_| \__\ |__|  \__/        
                                                                              
                      - O R C A' S   B I G   F R I E N D -                    
                                      &                                       
                       - I N T E G R A L  F E E D E R -                       
                                                                              
 v1 FN, 2020, v2 2021, v3 2022-2024                                           
------------------------------------------------------------------------------


----------------------
SHARK INTEGRAL PACKAGE
----------------------

Number of atoms                             ...     31
Number of basis functions                   ...    861
Number of shells                            ...    313
Maximum angular momentum                    ...      3
Integral batch strategy                     ... SHARK/LIBINT Hybrid
RI-J (if used) integral strategy            ... SPLIT-RIJ (Revised 2003 algorithm where possible)
Printlevel                                  ...      1
Contraction scheme used                     ... SEGMENTED contraction
Prescreening option                         ... SCHWARTZ
   Thresh                                   ... 2.500e-11
   Tcut                                     ... 2.500e-12
   Tpresel                                  ... 2.500e-12 
Coulomb Range Separation                    ... NOT USED
Exchange Range Separation                   ... NOT USED
Multipole approximations                    ... NOT USED
Finite Nucleus Model                        ... NOT USED
CABS basis                                  ... NOT available
Auxiliary Coulomb fitting basis             ... AVAILABLE
   # of basis functions in Aux-J            ...   1367
   # of shells in Aux-J                     ...    425
   Maximum angular momentum in Aux-J        ...      4
Auxiliary J/K fitting basis                 ... NOT available
Auxiliary Correlation fitting basis         ... NOT available
Auxiliary 'external' fitting basis          ... NOT available

Checking pre-screening integrals            ... done (  0.0 sec) Dimension = 313
Check shell pair data                       ... done (  0.0 sec)
Shell pair information
Shell pair cut-off parameter TPreSel        ...   2.5e-12
Total number of shell pairs                 ...     49141
Shell pairs after pre-screening             ...     28222
Total number of primitive shell pairs       ...    159936
Primitive shell pairs kept                  ...     58409
          la=0 lb=0:   5724 shell pairs
          la=1 lb=0:   7898 shell pairs
          la=1 lb=1:   2645 shell pairs
          la=2 lb=0:   4116 shell pairs
          la=2 lb=1:   2907 shell pairs
          la=2 lb=2:    784 shell pairs
          la=3 lb=0:   1868 shell pairs
          la=3 lb=1:   1393 shell pairs
          la=3 lb=2:    715 shell pairs
          la=3 lb=3:    172 shell pairs

Calculating one electron integrals          ... done (  0.0 sec)
Calculating RI/J V-Matrix + Cholesky decomp.... done (  0.1 sec)
Calculating Nuclear repulsion               ... done (  0.0 sec) ENN=   3284.297936206694 Eh

Diagonalization of the overlap matrix:
Smallest eigenvalue                        ... 5.857e-05
Time for diagonalization                   ...    0.139 sec
Threshold for overlap eigenvalues          ... 1.000e-07
Number of eigenvalues below threshold      ... 0
Time for construction of square roots      ...    0.068 sec
Total time needed                          ...    0.214 sec

-------------------
DFT GRID GENERATION
-------------------

General Integration Accuracy     IntAcc      ... 4.388
Radial Grid Type                 RadialGrid  ... OptM3 with GC (2021)
Angular Grid (max. ang.)         AngularGrid ... 4 (Lebedev-302)
Angular grid pruning method      GridPruning ... 4 (adaptive)
Weight generation scheme         WeightScheme... mBecke (2022)
Basis function cutoff            BFCut       ... 1.0000e-11
Integration weight cutoff        WCut        ... 1.0000e-14
Partially contracted basis set               ... off
Rotationally invariant grid construction     ... off
Angular grids for H and He will be reduced by one unit

Total number of grid points                  ...   176562
Total number of batches                      ...     2775
Average number of points per batch           ...       63
Average number of grid points per atom       ...     5696

--------------------
COSX GRID GENERATION
--------------------

GRIDX 1
-------
General Integration Accuracy     IntAcc      ... 3.816
Radial Grid Type                 RadialGrid  ... OptM3 with GC (2021)
Angular Grid (max. ang.)         AngularGrid ... 1 (Lebedev-50)
Angular grid pruning method      GridPruning ... 4 (adaptive)
Weight generation scheme         WeightScheme... mBecke (2022)
Basis function cutoff            BFCut       ... 1.0000e-11
Integration weight cutoff        WCut        ... 1.0000e-14
Partially contracted basis set               ... on
Rotationally invariant grid construction     ... off
Angular grids for H and He will be reduced by one unit

Total number of grid points                  ...    22271
Total number of batches                      ...      188
Average number of points per batch           ...      118
Average number of grid points per atom       ...      718
UseSFitting                                  ... on

GRIDX 2
-------
General Integration Accuracy     IntAcc      ... 4.020
Radial Grid Type                 RadialGrid  ... OptM3 with GC (2021)
Angular Grid (max. ang.)         AngularGrid ... 2 (Lebedev-110)
Angular grid pruning method      GridPruning ... 4 (adaptive)
Weight generation scheme         WeightScheme... mBecke (2022)
Basis function cutoff            BFCut       ... 1.0000e-11
Integration weight cutoff        WCut        ... 1.0000e-14
Partially contracted basis set               ... on
Rotationally invariant grid construction     ... off
Angular grids for H and He will be reduced by one unit

Total number of grid points                  ...    51588
Total number of batches                      ...      416
Average number of points per batch           ...      124
Average number of grid points per atom       ...     1664
UseSFitting                                  ... on

GRIDX 3
-------
General Integration Accuracy     IntAcc      ... 4.338
Radial Grid Type                 RadialGrid  ... OptM3 with GC (2021)
Angular Grid (max. ang.)         AngularGrid ... 3 (Lebedev-194)
Angular grid pruning method      GridPruning ... 4 (adaptive)
Weight generation scheme         WeightScheme... mBecke (2022)
Basis function cutoff            BFCut       ... 1.0000e-11
Integration weight cutoff        WCut        ... 1.0000e-14
Partially contracted basis set               ... on
Rotationally invariant grid construction     ... off
Angular grids for H and He will be reduced by one unit

Total number of grid points                  ...   113938
Total number of batches                      ...      903
Average number of points per batch           ...      126
Average number of grid points per atom       ...     3675
UseSFitting                                  ... on
Initializing property integral containers    ... done (  0.0 sec)

SHARK setup successfully completed in   3.2 seconds

Maximum memory used throughout the entire STARTUP-calculation: 69.1 MB


           ************************************************************
           *        Program running with 20 parallel MPI-processes    *
           *              working on a common directory               *
           ************************************************************
-------------------------------------------------------------------------------
                                 ORCA GUESS
                   Start orbitals & Density for SCF / CASSCF
-------------------------------------------------------------------------------

------------
SCF SETTINGS
------------
Hamiltonian:
 Density Functional     Method          .... DFT(GTOs)
 Exchange Functional    Exchange        .... TPSS
 Correlation Functional Correlation     .... TPSS
 LDA part of GGA corr.  LDAOpt          .... PW91-LDA
 Gradients option       PostSCFGGA      .... off
 Hybrid DFT is turned on
   Fraction HF Exchange ScalHFX         ....  0.100000
   Scaling of DF-GGA-X  ScalDFX         ....  0.900000
   Scaling of DF-GGA-C  ScalDFC         ....  1.000000
   Scaling of DF-LDA-C  ScalLDAC        ....  1.000000
   Perturbative correction              ....  0.000000
   NL short-range parameter             ....  5.200000
 RI-approximation to the Coulomb term is turned on
   Number of AuxJ basis functions       .... 1367
   RIJ-COSX (HFX calculated with COS-X)).... on


General Settings:
 Integral files         IntName         .... rf_mecn_2H2O_freq_TP_con_01
 Hartree-Fock type      HFTyp           .... RHF
 Total Charge           Charge          ....   -1
 Multiplicity           Mult            ....    1
 Number of Electrons    NEL             ....  220
 Basis Dimension        Dim             ....  861
 Nuclear Repulsion      ENuc            ....   3284.2979362067 Eh

Convergence Acceleration:
 AO-DIIS                CNVDIIS         .... on
   Start iteration      DIISMaxIt       ....     0
   Startup error        DIISStart       ....  0.200000
   # of expansion vecs  DIISMaxEq       ....     5
   Bias factor          DIISBfac        ....   1.050
   Max. coefficient     DIISMaxC        ....  10.000
 MO-DIIS                CNVKDIIS        .... off
 Trust-Rad. Augm. Hess. CNVTRAH         .... auto
   Auto Start mean grad. ratio tolernc. ....  1.125000
   Auto Start start iteration           ....    50
   Auto Start num. interpolation iter.  ....    10
   Max. Number of Micro iterations      ....    24
   Max. Number of Macro iterations      .... Maxiter - #DIIS iter
   Number of Davidson start vectors     ....     2
   Converg. threshold    (grad. norm)   ....   1.000e-05
   Grad. Scal. Fac. for Micro threshold ....   0.100
   Minimum threshold for Micro iter.    ....   1.000e-02
   NR start threshold (gradient norm)   ....   1.000e-04
   Initial trust radius                 ....   0.400
   Minimum AH scaling param. (alpha)    ....   1.000
   Maximum AH scaling param. (alpha)    .... 1000.000
   Quad. conv. algorithm                .... NR
   White noise on init. David. guess    .... on
   Maximum white noise                  ....   0.010
   Pseudo random numbers                .... off
   Inactive MOs                         .... canonical
   Orbital update algorithm             .... Taylor
   Preconditioner                       .... Diag
   Full preconditioner red. dimension   ....   250
 SOSCF                  CNVSOSCF        .... on
   Start iteration      SOSCFMaxIt      ....   150
   Startup grad/error   SOSCFStart      ....  0.001000
   Hessian update       SOSCFHessUp     .... L-BFGS
 Level Shifting         CNVShift        .... on
   Level shift para.    LevelShift      ....    0.2500
   Turn off err/grad.   ShiftErr        ....    0.0000
 Zerner damping         CNVZerner       .... off
 Static damping         CNVDamp         .... on
   Fraction old density DampFac         ....    0.8500
   Max. Damping (<1)    DampMax         ....    0.9800
   Min. Damping (>=0)   DampMin         ....    0.0000
   Turn off err/grad.   DampErr         ....    0.0300

SCF Procedure:
 Maximum # iterations   MaxIter         ....  1500
 SCF integral mode      SCFMode         .... Direct
   Integral package                     .... SHARK and LIBINT hybrid scheme
 Reset frequency        DirectResetFreq ....    20
 Integral Threshold     Thresh          ....  2.500e-11 Eh
 Primitive CutOff       TCut            ....  2.500e-12 Eh

Convergence Tolerance:
 Convergence Check Mode ConvCheckMode   .... Total+1el-Energy
 Convergence forced     ConvForced      .... 0
 Energy Change          TolE            ....  1.000e-08 Eh
 1-El. energy change                    ....  1.000e-05 Eh
 Orbital Gradient       TolG            ....  1.000e-05
 Orbital Rotation angle TolX            ....  1.000e-05
 DIIS Error             TolErr          ....  5.000e-07

------------------------------
INITIAL GUESS: MODEL POTENTIAL
------------------------------
Loading Hartree-Fock densities                     ... done
Calculating cut-offs                               ... done
Initializing the effective Hamiltonian             ... done
Setting up the integral package (SHARK)            ... done
Starting the Coulomb interaction                   ... done (   0.2 sec)
Making the grid                                    ... done (   0.4 sec)
Mapping shells                                     ... done
Starting the XC term evaluation                    ... done (   0.1 sec)
  promolecular density results
     # of electrons  =    218.995545346
     EX              =   -224.690567635
     EC              =     -7.647823201
     EX+EC           =   -232.338390836
Transforming the Hamiltonian                       ... done (   0.1 sec)
Diagonalizing the Hamiltonian                      ... done (   0.1 sec)
Back transforming the eigenvectors                 ... done (   0.0 sec)
Now organizing SCF variables                       ... done
                      ------------------
                      INITIAL GUESS DONE (   1.1 sec)
                      ------------------
             **** ENERGY FILE WAS UPDATED (rf_mecn_2H2O_freq_TP_con_01.en.tmp) ****
Finished Guess after   1.7 sec
Maximum memory used throughout the entire GUESS-calculation: 58.3 MB


           ************************************************************
           *        Program running with 20 parallel MPI-processes    *
           *              working on a common directory               *
           ************************************************************

-------------------------------------------------------------------------------------------
                                      ORCA LEAN-SCF
                              memory conserving SCF solver
-------------------------------------------------------------------------------------------

--------------------
CPCM SOLVATION MODEL
--------------------
CPCM parameters:
  Epsilon                                         ...      35.6880
  Refrac                                          ...       1.3442
  Rsolv                                           ...       1.3000
  Surface type                                    ... GAUSSIAN VDW
  Discretization scheme                           ... Constant charge density
    Threshold for H atoms                         ...       5.0000 (charges/Ang^2)
    Threshold for non-H atoms                     ...       5.0000 (charges/Ang^2)
  Epsilon function type                           ...         CPCM
Solvent:                                          ... ACETONITRILE
SMD-CDS solvent descriptors:
  Soln                                            ...       1.3442
  Soln25                                          ...       1.3416
  Sola                                            ...       0.0700
  Solb                                            ...       0.3200
  Solg                                            ...      41.2500
  Solc                                            ...       0.0000
  Solh                                            ...       0.0000
Radii:
  Scheme                                          ... Element-dependent radii
  Radius for C  used is    3.4960 Bohr (=   1.8500 Ang.)
  Radius for F  used is    3.2692 Bohr (=   1.7300 Ang.)
  Radius for O  used is    4.0969 Bohr (=   2.1680 Ang.)
  Radius for H  used is    2.2677 Bohr (=   1.2000 Ang.)
Calculating surface                               ...        done! (  0.0s)
Cavity surface points                             ...         2635
Cavity Volume                                     ...    2640.0263
Cavity Surface-area                               ...    1346.2869
Calculating surface distance matrix               ...        done! (  0.0s)
Performing Cholesky decomposition & store         ...        done! (  0.1s)
Overall time for CPCM initialization              ...                 0.2s

----------------------------------------D-I-I-S--------------------------------------------
Iteration    Energy (Eh)           Delta-E    RMSDP     MaxDP     DIISErr   Damp  Time(sec)
-------------------------------------------------------------------------------------------
               ***  Starting incremental Fock matrix formation  ***
    1    -2106.1895267245326977     0.00e+00  4.62e-04  4.66e-02  3.27e-01  0.850   6.6
Warning: op=0 Small HOMO/LUMO gap (   0.049) - skipping pre-diagonalization
         Will do a full diagonalization
    2    -2106.3842228194762356    -1.95e-01  5.50e-04  9.99e-02  2.28e-01  0.850   4.2
                               ***Turning on AO-DIIS***
    3    -2106.4890506923411522    -1.05e-01  2.87e-04  5.53e-02  1.41e-01  0.850   3.7
    4    -2106.5516213965001953    -6.26e-02  1.61e-04  2.50e-02  1.05e-01  0.850   3.7
    5    -2106.5958993219346667    -4.43e-02  1.02e-04  8.60e-03  8.54e-02  0.850   3.5
    6    -2106.6308034201902046    -3.49e-02  7.69e-05  6.59e-03  7.23e-02  0.850   3.4
    7    -2106.6596987181101213    -2.89e-02  6.63e-05  6.09e-03  6.21e-02  0.850   3.4
    8    -2106.6840228542923796    -2.43e-02  5.81e-05  5.37e-03  5.28e-02  0.850   3.3
    9    -2106.7043195792966799    -2.03e-02  4.99e-05  4.58e-03  4.41e-02  0.850   3.4
   10    -2106.7211693450926759    -1.68e-02  4.21e-05  3.88e-03  3.64e-02  0.850   3.3
   11    -2106.7351971958023569    -1.40e-02  3.54e-05  3.30e-03  3.03e-02  0.850   3.2
   12    -2106.7469314437357752    -1.17e-02  2.99e-05  2.82e-03  2.54e-02  0.850   3.2
   13    -2106.7567831764481525    -9.85e-03  1.69e-04  1.62e-02  2.13e-02  0.000   3.1
   14    -2106.8106910120313842    -5.39e-02  9.91e-06  1.13e-03  1.91e-03  0.000   3.5
                              *** Initializing SOSCF ***
---------------------------------------S-O-S-C-F--------------------------------------
Iteration    Energy (Eh)           Delta-E    RMSDP     MaxDP     MaxGrad    Time(sec)
--------------------------------------------------------------------------------------
   15    -2106.8107121290549912    -2.11e-05  6.08e-06  1.21e-03  5.17e-04     3.3
               *** Restarting incremental Fock matrix formation ***
   16    -2106.8107217401338858    -9.61e-06  4.86e-06  4.91e-04  7.22e-05     6.5
   17    -2106.8107214409419612     2.99e-07  1.49e-06  1.73e-04  1.14e-04     3.7
   18    -2106.8107220346319082    -5.94e-07  5.39e-07  9.93e-05  7.25e-06     3.2
   19    -2106.8107220657375365    -3.11e-08  2.84e-07  4.80e-05  1.29e-05     2.8
   20    -2106.8107220686006258    -2.86e-09  2.11e-07  3.27e-05  1.48e-06     2.7
                 **** Energy Check signals convergence ****

               *****************************************************
               *                     SUCCESS                       *
               *           SCF CONVERGED AFTER  20 CYCLES          *
               *****************************************************

Recomputing exchange energy using gridx3       ... done (    8.266 sec)
Old exchange energy                            :    -22.699415431 Eh
New exchange energy                            :    -22.699421924 Eh
Exchange energy change after final integration :     -0.000006493 Eh
Total energy after final integration           :  -2106.810728562 Eh

SMD CDS free energy correction energy :                 2.76642     Kcal/mol
Total Energy after SMD CDS correction =             -2106.806319998 Eh
             **** ENERGY FILE WAS UPDATED (rf_mecn_2H2O_freq_TP_con_01.en.tmp) ****

----------------
TOTAL SCF ENERGY
----------------

Total Energy       :      -2106.80631999778552 Eh          -57329.11452 eV

Components:
Nuclear Repulsion  :       3284.29793620669352 Eh           89370.29034 eV
Electronic Energy  :      -5391.02971023789087 Eh         -146697.37637 eV
One Electron Energy:      -9492.52971475951927 Eh         -258304.86550 eV
Two Electron Energy:       4101.50000452162840 Eh          111607.48914 eV
CPCM Dielectric    :         -0.07894803740307 Eh              -2.14829 eV
SMD CDS (Gcds)     :          0.00440856393863 Eh               0.11996 eV

Virial components:
Potential Energy   :      -4206.42327036706956 Eh         -114462.59635 eV
Kinetic Energy     :       2099.61695036928404 Eh           57133.48183 eV
Virial Ratio       :          2.00342413392464

DFT components:
N(Alpha)           :      109.999861193068 electrons
N(Beta)            :      109.999861193068 electrons
N(Total)           :      219.999722386136 electrons
E(X)               :     -206.270401361582 Eh       
E(C)               :       -7.715400336997 Eh       
E(XC)              :     -213.985801698579 Eh       

CPCM Solvation Model Properties:
Surface-charge          :          0.99066740696795
Corrected charge        :          1.00000000000000
Outlying charge corr.   :          0.00000437327388 Eh               0.00012 eV
Free-energy (cav+disp)  :          0.00440856393863 Eh               0.11996 eV

---------------
SCF CONVERGENCE
---------------

  Last Energy change         ...    2.8631e-09  Tolerance :   1.0000e-08
  Last MAX-Density change    ...    3.2656e-05  Tolerance :   1.0000e-07
  Last RMS-Density change    ...    2.1079e-07  Tolerance :   5.0000e-09
  Last DIIS Error            ...    5.1691e-04  Tolerance :   5.0000e-07
  Last Orbital Gradient      ...    1.4756e-06  Tolerance :   1.0000e-05
  Last Orbital Rotation      ...    4.9538e-06  Tolerance :   1.0000e-05


----------------
ORBITAL ENERGIES
----------------

  NO   OCC          E(Eh)            E(eV) 
   0   2.0000     -24.660750      -671.0531 
   1   2.0000     -24.659776      -671.0266 
   2   2.0000     -24.659749      -671.0259 
   3   2.0000     -24.659590      -671.0216 
   4   2.0000     -24.659525      -671.0198 
   5   2.0000     -24.659139      -671.0093 
   6   2.0000     -24.658517      -670.9924 
   7   2.0000     -24.657598      -670.9674 
   8   2.0000     -24.657348      -670.9605 
   9   2.0000     -24.653332      -670.8513 
  10   2.0000     -24.652831      -670.8376 
  11   2.0000     -24.644755      -670.6179 
  12   2.0000     -24.643710      -670.5894 
  13   2.0000     -24.623980      -670.0526 
  14   2.0000     -24.622534      -670.0132 
  15   2.0000     -19.015109      -517.4274 
  16   2.0000     -19.014854      -517.4205 
  17   2.0000     -19.011532      -517.3301 
  18   2.0000     -19.011144      -517.3195 
  19   2.0000     -10.395447      -282.8745 
  20   2.0000     -10.344576      -281.4902 
  21   2.0000     -10.343535      -281.4619 
  22   2.0000     -10.341921      -281.4180 
  23   2.0000     -10.336418      -281.2682 
  24   2.0000     -10.323605      -280.9196 
  25   2.0000     -10.292237      -280.0660 
  26   2.0000     -10.211438      -277.8674 
  27   2.0000      -1.322005       -35.9736 
  28   2.0000      -1.300024       -35.3754 
  29   2.0000      -1.285793       -34.9882 
  30   2.0000      -1.277180       -34.7538 
  31   2.0000      -1.274527       -34.6816 
  32   2.0000      -1.265671       -34.4407 
  33   2.0000      -1.242326       -33.8054 
  34   2.0000      -1.237549       -33.6754 
  35   2.0000      -1.231676       -33.5156 
  36   2.0000      -1.230971       -33.4964 
  37   2.0000      -1.225023       -33.3346 
  38   2.0000      -1.221334       -33.2342 
  39   2.0000      -1.218566       -33.1589 
  40   2.0000      -1.209367       -32.9085 
  41   2.0000      -1.186007       -32.2729 
  42   2.0000      -1.020773       -27.7766 
  43   2.0000      -0.951798       -25.8997 
  44   2.0000      -0.949080       -25.8258 
  45   2.0000      -0.935635       -25.4599 
  46   2.0000      -0.824365       -22.4321 
  47   2.0000      -0.803672       -21.8690 
  48   2.0000      -0.775025       -21.0895 
  49   2.0000      -0.737570       -20.0703 
  50   2.0000      -0.694610       -18.9013 
  51   2.0000      -0.663796       -18.0628 
  52   2.0000      -0.647430       -17.6175 
  53   2.0000      -0.623308       -16.9611 
  54   2.0000      -0.618730       -16.8365 
  55   2.0000      -0.610412       -16.6101 
  56   2.0000      -0.603338       -16.4177 
  57   2.0000      -0.599089       -16.3020 
  58   2.0000      -0.597921       -16.2703 
  59   2.0000      -0.585323       -15.9274 
  60   2.0000      -0.582093       -15.8395 
  61   2.0000      -0.577635       -15.7183 
  62   2.0000      -0.570238       -15.5170 
  63   2.0000      -0.559854       -15.2344 
  64   2.0000      -0.558029       -15.1847 
  65   2.0000      -0.553089       -15.0503 
  66   2.0000      -0.547873       -14.9084 
  67   2.0000      -0.530774       -14.4431 
  68   2.0000      -0.491681       -13.3793 
  69   2.0000      -0.486766       -13.2456 
  70   2.0000      -0.483600       -13.1594 
  71   2.0000      -0.478254       -13.0139 
  72   2.0000      -0.475559       -12.9406 
  73   2.0000      -0.474498       -12.9117 
  74   2.0000      -0.470421       -12.8008 
  75   2.0000      -0.467443       -12.7198 
  76   2.0000      -0.464369       -12.6361 
  77   2.0000      -0.457774       -12.4567 
  78   2.0000      -0.454273       -12.3614 
  79   2.0000      -0.452096       -12.3022 
  80   2.0000      -0.449560       -12.2331 
  81   2.0000      -0.443972       -12.0811 
  82   2.0000      -0.442386       -12.0379 
  83   2.0000      -0.439120       -11.9491 
  84   2.0000      -0.433980       -11.8092 
  85   2.0000      -0.432616       -11.7721 
  86   2.0000      -0.424355       -11.5473 
  87   2.0000      -0.423221       -11.5164 
  88   2.0000      -0.420806       -11.4507 
  89   2.0000      -0.417644       -11.3647 
  90   2.0000      -0.416388       -11.3305 
  91   2.0000      -0.414177       -11.2703 
  92   2.0000      -0.411985       -11.2107 
  93   2.0000      -0.410382       -11.1671 
  94   2.0000      -0.408473       -11.1151 
  95   2.0000      -0.404481       -11.0065 
  96   2.0000      -0.399301       -10.8655 
  97   2.0000      -0.396645       -10.7933 
  98   2.0000      -0.390474       -10.6253 
  99   2.0000      -0.382854       -10.4180 
 100   2.0000      -0.380461       -10.3529 
 101   2.0000      -0.353196        -9.6109 
 102   2.0000      -0.337273        -9.1777 
 103   2.0000      -0.334104        -9.0914 
 104   2.0000      -0.322265        -8.7693 
 105   2.0000      -0.263809        -7.1786 
 106   2.0000      -0.260847        -7.0980 
 107   2.0000      -0.251351        -6.8396 
 108   2.0000      -0.239738        -6.5236 
 109   2.0000      -0.238870        -6.5000 
 110   0.0000      -0.025896        -0.7047 
 111   0.0000      -0.009149        -0.2489 
 112   0.0000       0.006940         0.1889 
 113   0.0000       0.028445         0.7740 
 114   0.0000       0.042630         1.1600 
 115   0.0000       0.059503         1.6191 
 116   0.0000       0.070422         1.9163 
 117   0.0000       0.080364         2.1868 
 118   0.0000       0.087554         2.3825 
 119   0.0000       0.099402         2.7049 
 120   0.0000       0.117199         3.1892 
*Only the first 10 virtual orbitals were printed.

                    ********************************
                    * MULLIKEN POPULATION ANALYSIS *
                    ********************************

-----------------------
MULLIKEN ATOMIC CHARGES
-----------------------
   0 C :    0.408492
   1 C :    0.296339
   2 C :    0.272589
   3 C :    0.294570
   4 C :    0.294952
   5 C :    0.264537
   6 C :    0.291448
   7 C :    0.286494
   8 F :   -0.136035
   9 F :   -0.132996
  10 F :   -0.132660
  11 F :   -0.146770
  12 F :   -0.143728
  13 F :   -0.148918
  14 F :   -0.148529
  15 F :   -0.149131
  16 F :   -0.149886
  17 F :   -0.152824
  18 F :   -0.156261
  19 F :   -0.165814
  20 F :   -0.164273
  21 F :   -0.188027
  22 F :   -0.190979
  23 O :   -0.494698
  24 O :   -0.505958
  25 O :   -0.736246
  26 H :    0.333062
  27 H :    0.352430
  28 H :    0.346162
  29 O :   -0.730709
  30 H :    0.333366
Sum of atomic charges:   -1.0000000

--------------------------------
MULLIKEN REDUCED ORBITAL CHARGES
--------------------------------
  0 C s       :     3.020462  s :     3.020462
      pz      :     0.659695  p :     2.167502
      px      :     0.713242
      py      :     0.794565
      dz2     :     0.079488  d :     0.363097
      dxz     :     0.069055
      dyz     :     0.077883
      dx2y2   :     0.071603
      dxy     :     0.065068
      f0      :     0.008150  f :     0.040447
      f+1     :     0.005406
      f-1     :     0.004473
      f+2     :     0.005444
      f-2     :     0.007691
      f+3     :     0.003741
      f-3     :     0.005543

  1 C s       :     3.102324  s :     3.102324
      pz      :     0.632991  p :     2.275498
      px      :     0.743732
      py      :     0.898776
      dz2     :     0.079339  d :     0.297314
      dxz     :     0.057751
      dyz     :     0.059812
      dx2y2   :     0.040540
      dxy     :     0.059872
      f0      :     0.005898  f :     0.028524
      f+1     :     0.004654
      f-1     :     0.002933
      f+2     :     0.005676
      f-2     :     0.004543
      f+3     :     0.002536
      f-3     :     0.002284

  2 C s       :     3.133718  s :     3.133718
      pz      :     0.615231  p :     2.261692
      px      :     0.718405
      py      :     0.928056
      dz2     :     0.071975  d :     0.303509
      dxz     :     0.064261
      dyz     :     0.067373
      dx2y2   :     0.035666
      dxy     :     0.064233
      f0      :     0.004799  f :     0.028492
      f+1     :     0.006838
      f-1     :     0.003746
      f+2     :     0.003732
      f-2     :     0.004121
      f+3     :     0.002470
      f-3     :     0.002786

  3 C s       :     3.128984  s :     3.128984
      pz      :     0.669493  p :     2.244204
      px      :     0.688566
      py      :     0.886145
      dz2     :     0.064003  d :     0.303755
      dxz     :     0.075013
      dyz     :     0.056038
      dx2y2   :     0.044395
      dxy     :     0.064306
      f0      :     0.004841  f :     0.028487
      f+1     :     0.006787
      f-1     :     0.003320
      f+2     :     0.003618
      f-2     :     0.003048
      f+3     :     0.003218
      f-3     :     0.003654

  4 C s       :     3.133806  s :     3.133806
      pz      :     0.671496  p :     2.241677
      px      :     0.650567
      py      :     0.919614
      dz2     :     0.050816  d :     0.301182
      dxz     :     0.079078
      dyz     :     0.062597
      dx2y2   :     0.044416
      dxy     :     0.064275
      f0      :     0.005627  f :     0.028383
      f+1     :     0.005073
      f-1     :     0.004036
      f+2     :     0.004384
      f-2     :     0.001940
      f+3     :     0.002298
      f-3     :     0.005024

  5 C s       :     3.137810  s :     3.137810
      pz      :     0.739892  p :     2.273133
      px      :     0.620093
      py      :     0.913147
      dz2     :     0.058605  d :     0.296301
      dxz     :     0.067346
      dyz     :     0.050578
      dx2y2   :     0.056456
      dxy     :     0.063316
      f0      :     0.005429  f :     0.028219
      f+1     :     0.004107
      f-1     :     0.003032
      f+2     :     0.005618
      f-2     :     0.002543
      f+3     :     0.002527
      f-3     :     0.004963

  6 C s       :     3.115728  s :     3.115728
      pz      :     0.725742  p :     2.294856
      px      :     0.582642
      py      :     0.986471
      dz2     :     0.052221  d :     0.270938
      dxz     :     0.055099
      dyz     :     0.050034
      dx2y2   :     0.053620
      dxy     :     0.059963
      f0      :     0.003632  f :     0.027031
      f+1     :     0.005609
      f-1     :     0.001965
      f+2     :     0.004300
      f-2     :     0.004284
      f+3     :     0.003089
      f-3     :     0.004152

  7 C s       :     3.040186  s :     3.040186
      pz      :     0.823150  p :     2.380927
      px      :     0.680512
      py      :     0.877264
      dz2     :     0.012591  d :     0.267891
      dxz     :     0.073564
      dyz     :     0.016500
      dx2y2   :     0.080403
      dxy     :     0.084834
      f0      :     0.002174  f :     0.024502
      f+1     :     0.002403
      f-1     :     0.001307
      f+2     :     0.002527
      f-2     :     0.003213
      f+3     :     0.008169
      f-3     :     0.004710

  8 F s       :     3.912945  s :     3.912945
      pz      :     1.656797  p :     5.206159
      px      :     1.685394
      py      :     1.863968
      dz2     :     0.003367  d :     0.016173
      dxz     :     0.006178
      dyz     :     0.002249
      dx2y2   :     0.002145
      dxy     :     0.002234
      f0      :     0.000090  f :     0.000759
      f+1     :     0.000226
      f-1     :     0.000050
      f+2     :     0.000163
      f-2     :     0.000140
      f+3     :     0.000041
      f-3     :     0.000049

  9 F s       :     3.911390  s :     3.911390
      pz      :     1.560910  p :     5.204480
      px      :     1.770958
      py      :     1.872612
      dz2     :     0.004992  d :     0.016351
      dxz     :     0.005703
      dyz     :     0.003165
      dx2y2   :     0.001151
      dxy     :     0.001340
      f0      :     0.000146  f :     0.000774
      f+1     :     0.000266
      f-1     :     0.000108
      f+2     :     0.000104
      f-2     :     0.000117
      f+3     :     0.000015
      f-3     :     0.000019

 10 F s       :     3.911241  s :     3.911241
      pz      :     1.875774  p :     5.204410
      px      :     1.736441
      py      :     1.592194
      dz2     :     0.002221  d :     0.016240
      dxz     :     0.001507
      dyz     :     0.002429
      dx2y2   :     0.003813
      dxy     :     0.006269
      f0      :     0.000070  f :     0.000770
      f+1     :     0.000060
      f-1     :     0.000097
      f+2     :     0.000026
      f-2     :     0.000117
      f+3     :     0.000229
      f-3     :     0.000170

 11 F s       :     3.918086  s :     3.918086
      pz      :     1.606278  p :     5.211977
      px      :     1.741802
      py      :     1.863897
      dz2     :     0.004038  d :     0.015996
      dxz     :     0.005544
      dyz     :     0.003070
      dx2y2   :     0.001485
      dxy     :     0.001859
      f0      :     0.000102  f :     0.000711
      f+1     :     0.000223
      f-1     :     0.000089
      f+2     :     0.000110
      f-2     :     0.000137
      f+3     :     0.000021
      f-3     :     0.000028

 12 F s       :     3.915649  s :     3.915649
      pz      :     1.651060  p :     5.211222
      px      :     1.706879
      py      :     1.853283
      dz2     :     0.003298  d :     0.016133
      dxz     :     0.005592
      dyz     :     0.002879
      dx2y2   :     0.001942
      dxy     :     0.002422
      f0      :     0.000084  f :     0.000725
      f+1     :     0.000194
      f-1     :     0.000075
      f+2     :     0.000127
      f-2     :     0.000164
      f+3     :     0.000036
      f-3     :     0.000045

 13 F s       :     3.918755  s :     3.918755
      pz      :     1.490859  p :     5.213385
      px      :     1.838912
      py      :     1.883614
      dz2     :     0.006701  d :     0.016066
      dxz     :     0.004242
      dyz     :     0.003785
      dx2y2   :     0.000574
      dxy     :     0.000765
      f0      :     0.000239  f :     0.000711
      f+1     :     0.000206
      f-1     :     0.000151
      f+2     :     0.000045
      f-2     :     0.000062
      f+3     :     0.000004
      f-3     :     0.000004

 14 F s       :     3.918726  s :     3.918726
      pz      :     1.738485  p :     5.213005
      px      :     1.580743
      py      :     1.893777
      dz2     :     0.002271  d :     0.016086
      dxz     :     0.005983
      dyz     :     0.001401
      dx2y2   :     0.003566
      dxy     :     0.002865
      f0      :     0.000078  f :     0.000713
      f+1     :     0.000157
      f-1     :     0.000011
      f+2     :     0.000199
      f-2     :     0.000103
      f+3     :     0.000085
      f-3     :     0.000080

 15 F s       :     3.918196  s :     3.918196
      pz      :     1.484372  p :     5.214169
      px      :     1.882960
      py      :     1.846837
      dz2     :     0.007016  d :     0.016053
      dxz     :     0.002988
      dyz     :     0.004925
      dx2y2   :     0.000601
      dxy     :     0.000522
      f0      :     0.000254  f :     0.000712
      f+1     :     0.000117
      f-1     :     0.000239
      f+2     :     0.000050
      f-2     :     0.000045
      f+3     :     0.000004
      f-3     :     0.000004

 16 F s       :     3.918379  s :     3.918379
      pz      :     1.845044  p :     5.214791
      px      :     1.489606
      py      :     1.880141
      dz2     :     0.002091  d :     0.016007
      dxz     :     0.004268
      dyz     :     0.000613
      dx2y2   :     0.005112
      dxy     :     0.003923
      f0      :     0.000076  f :     0.000710
      f+1     :     0.000116
      f-1     :     0.000012
      f+2     :     0.000139
      f-2     :     0.000059
      f+3     :     0.000155
      f-3     :     0.000152

 17 F s       :     3.917425  s :     3.917425
      pz      :     1.471336  p :     5.218731
      px      :     1.868332
      py      :     1.879063
      dz2     :     0.007280  d :     0.015957
      dxz     :     0.003539
      dyz     :     0.004199
      dx2y2   :     0.000502
      dxy     :     0.000436
      f0      :     0.000272  f :     0.000711
      f+1     :     0.000169
      f-1     :     0.000186
      f+2     :     0.000039
      f-2     :     0.000039
      f+3     :     0.000003
      f-3     :     0.000003

 18 F s       :     3.921694  s :     3.921694
      pz      :     1.881069  p :     5.218047
      px      :     1.434115
      py      :     1.902864
      dz2     :     0.002162  d :     0.015816
      dxz     :     0.003427
      dyz     :     0.000204
      dx2y2   :     0.006266
      dxy     :     0.003757
      f0      :     0.000061  f :     0.000703
      f+1     :     0.000138
      f-1     :     0.000011
      f+2     :     0.000109
      f-2     :     0.000008
      f+3     :     0.000227
      f-3     :     0.000150

 19 F s       :     3.918474  s :     3.918474
      pz      :     1.572922  p :     5.231047
      px      :     1.801361
      py      :     1.856764
      dz2     :     0.004652  d :     0.015598
      dxz     :     0.004550
      dyz     :     0.003823
      dx2y2   :     0.001260
      dxy     :     0.001314
      f0      :     0.000124  f :     0.000695
      f+1     :     0.000196
      f-1     :     0.000130
      f+2     :     0.000091
      f-2     :     0.000121
      f+3     :     0.000016
      f-3     :     0.000018

 20 F s       :     3.920289  s :     3.920289
      pz      :     1.873345  p :     5.227676
      px      :     1.453863
      py      :     1.900468
      dz2     :     0.002091  d :     0.015612
      dxz     :     0.003661
      dyz     :     0.000306
      dx2y2   :     0.005952
      dxy     :     0.003601
      f0      :     0.000065  f :     0.000696
      f+1     :     0.000132
      f-1     :     0.000008
      f+2     :     0.000114
      f-2     :     0.000022
      f+3     :     0.000213
      f-3     :     0.000142

 21 F s       :     3.917056  s :     3.917056
      pz      :     1.646514  p :     5.255312
      px      :     1.713403
      py      :     1.895395
      dz2     :     0.003119  d :     0.014982
      dxz     :     0.005707
      dyz     :     0.002381
      dx2y2   :     0.001950
      dxy     :     0.001825
      f0      :     0.000077  f :     0.000676
      f+1     :     0.000211
      f-1     :     0.000047
      f+2     :     0.000151
      f-2     :     0.000118
      f+3     :     0.000038
      f-3     :     0.000034

 22 F s       :     3.917180  s :     3.917180
      pz      :     1.831386  p :     5.258331
      px      :     1.525760
      py      :     1.901185
      dz2     :     0.001756  d :     0.014807
      dxz     :     0.004390
      dyz     :     0.000754
      dx2y2   :     0.004599
      dxy     :     0.003308
      f0      :     0.000069  f :     0.000660
      f+1     :     0.000102
      f-1     :     0.000003
      f+2     :     0.000154
      f-2     :     0.000062
      f+3     :     0.000152
      f-3     :     0.000118

 23 O s       :     3.839003  s :     3.839003
      pz      :     1.532843  p :     4.627777
      px      :     1.416259
      py      :     1.678676
      dz2     :     0.003303  d :     0.026154
      dxz     :     0.006129
      dyz     :     0.002580
      dx2y2   :     0.006317
      dxy     :     0.007825
      f0      :     0.000152  f :     0.001763
      f+1     :     0.000268
      f-1     :     0.000074
      f+2     :     0.000177
      f-2     :     0.000266
      f+3     :     0.000426
      f-3     :     0.000400

 24 O s       :     3.834865  s :     3.834865
      pz      :     1.562932  p :     4.643634
      px      :     1.348725
      py      :     1.731977
      dz2     :     0.002438  d :     0.025687
      dxz     :     0.007458
      dyz     :     0.001267
      dx2y2   :     0.006968
      dxy     :     0.007557
      f0      :     0.000202  f :     0.001773
      f+1     :     0.000204
      f-1     :     0.000041
      f+2     :     0.000262
      f-2     :     0.000135
      f+3     :     0.000477
      f-3     :     0.000452

 25 O s       :     3.807180  s :     3.807180
      pz      :     1.926195  p :     4.907675
      px      :     1.441676
      py      :     1.539805
      dz2     :     0.003544  d :     0.020070
      dxz     :     0.001658
      dyz     :     0.001793
      dx2y2   :     0.007270
      dxy     :     0.005806
      f0      :     0.000210  f :     0.001321
      f+1     :     0.000240
      f-1     :     0.000278
      f+2     :     0.000129
      f-2     :     0.000056
      f+3     :     0.000386
      f-3     :     0.000022

 26 H s       :     0.622023  s :     0.622023
      pz      :     0.015663  p :     0.044915
      px      :     0.012756
      py      :     0.016496

 27 H s       :     0.595197  s :     0.595197
      pz      :     0.015411  p :     0.052373
      px      :     0.026016
      py      :     0.010946

 28 H s       :     0.600679  s :     0.600679
      pz      :     0.014726  p :     0.053159
      px      :     0.026102
      py      :     0.012331

 29 O s       :     3.802563  s :     3.802563
      pz      :     1.892131  p :     4.906819
      px      :     1.603948
      py      :     1.410739
      dz2     :     0.002569  d :     0.020015
      dxz     :     0.003147
      dyz     :     0.003237
      dx2y2   :     0.009590
      dxy     :     0.001471
      f0      :     0.000266  f :     0.001313
      f+1     :     0.000134
      f-1     :     0.000181
      f+2     :     0.000259
      f-2     :     0.000057
      f+3     :     0.000012
      f-3     :     0.000404

 30 H s       :     0.621447  s :     0.621447
      pz      :     0.015722  p :     0.045187
      px      :     0.012076
      py      :     0.017390



                     *******************************
                     * LOEWDIN POPULATION ANALYSIS *
                     *******************************

----------------------
LOEWDIN ATOMIC CHARGES
----------------------
   0 C :   -0.668270
   1 C :   -0.466388
   2 C :   -0.460354
   3 C :   -0.459412
   4 C :   -0.458327
   5 C :   -0.458679
   6 C :   -0.445025
   7 C :   -0.645250
   8 F :    0.226222
   9 F :    0.228816
  10 F :    0.227147
  11 F :    0.225192
  12 F :    0.226472
  13 F :    0.226580
  14 F :    0.226686
  15 F :    0.226352
  16 F :    0.225135
  17 F :    0.222262
  18 F :    0.220155
  19 F :    0.212070
  20 F :    0.213755
  21 F :    0.177427
  22 F :    0.174474
  23 O :   -0.021669
  24 O :   -0.025804
  25 O :   -0.369904
  26 H :    0.156837
  27 H :    0.140248
  28 H :    0.137495
  29 O :   -0.365655
  30 H :    0.151413

-------------------------------
LOEWDIN REDUCED ORBITAL CHARGES
-------------------------------
  0 C s       :     2.761309  s :     2.761309
      pz      :     0.789766  p :     2.506117
      px      :     0.831915
      py      :     0.884437
      dz2     :     0.242031  d :     1.145303
      dxz     :     0.271196
      dyz     :     0.199266
      dx2y2   :     0.177352
      dxy     :     0.255456
      f0      :     0.044102  f :     0.255542
      f+1     :     0.042418
      f-1     :     0.031152
      f+2     :     0.036510
      f-2     :     0.042095
      f+3     :     0.027551
      f-3     :     0.031713

  1 C s       :     2.766714  s :     2.766714
      pz      :     0.770415  p :     2.598324
      px      :     0.853088
      py      :     0.974821
      dz2     :     0.205915  d :     0.923000
      dxz     :     0.231471
      dyz     :     0.174013
      dx2y2   :     0.108986
      dxy     :     0.202614
      f0      :     0.032260  f :     0.178350
      f+1     :     0.035595
      f-1     :     0.020214
      f+2     :     0.034632
      f-2     :     0.028105
      f+3     :     0.014027
      f-3     :     0.013518

  2 C s       :     2.763215  s :     2.763215
      pz      :     0.754486  p :     2.594605
      px      :     0.841718
      py      :     0.998401
      dz2     :     0.229227  d :     0.924269
      dxz     :     0.221625
      dyz     :     0.156175
      dx2y2   :     0.123984
      dxy     :     0.193259
      f0      :     0.032026  f :     0.178265
      f+1     :     0.040824
      f-1     :     0.023887
      f+2     :     0.028408
      f-2     :     0.023228
      f+3     :     0.014640
      f-3     :     0.015251

  3 C s       :     2.763184  s :     2.763184
      pz      :     0.802222  p :     2.594548
      px      :     0.819342
      py      :     0.972984
      dz2     :     0.214112  d :     0.923524
      dxz     :     0.193885
      dyz     :     0.175105
      dx2y2   :     0.152514
      dxy     :     0.187907
      f0      :     0.033237  f :     0.178157
      f+1     :     0.036635
      f-1     :     0.023828
      f+2     :     0.025157
      f-2     :     0.017315
      f+3     :     0.020579
      f-3     :     0.021406

  4 C s       :     2.764010  s :     2.764010
      pz      :     0.805949  p :     2.594751
      px      :     0.786099
      py      :     1.002704
      dz2     :     0.206769  d :     0.921940
      dxz     :     0.197191
      dyz     :     0.171105
      dx2y2   :     0.184576
      dxy     :     0.162299
      f0      :     0.035680  f :     0.177626
      f+1     :     0.033967
      f-1     :     0.024090
      f+2     :     0.024310
      f-2     :     0.013542
      f+3     :     0.019614
      f-3     :     0.026422

  5 C s       :     2.766300  s :     2.766300
      pz      :     0.857310  p :     2.594963
      px      :     0.754654
      py      :     0.983000
      dz2     :     0.184139  d :     0.920911
      dxz     :     0.196995
      dyz     :     0.171016
      dx2y2   :     0.207922
      dxy     :     0.160839
      f0      :     0.029742  f :     0.176505
      f+1     :     0.032310
      f-1     :     0.018136
      f+2     :     0.029564
      f-2     :     0.018084
      f+3     :     0.021369
      f-3     :     0.027301

  6 C s       :     2.781960  s :     2.781960
      pz      :     0.837965  p :     2.599680
      px      :     0.721186
      py      :     1.040528
      dz2     :     0.150441  d :     0.891790
      dxz     :     0.217829
      dyz     :     0.176654
      dx2y2   :     0.205611
      dxy     :     0.141254
      f0      :     0.023178  f :     0.171595
      f+1     :     0.036804
      f-1     :     0.011892
      f+2     :     0.028332
      f-2     :     0.025592
      f+3     :     0.020743
      f-3     :     0.025054

  7 C s       :     2.772201  s :     2.772201
      pz      :     0.803205  p :     2.703964
      px      :     0.979608
      py      :     0.921151
      dz2     :     0.075305  d :     1.016827
      dxz     :     0.235134
      dyz     :     0.069181
      dx2y2   :     0.351145
      dxy     :     0.286061
      f0      :     0.010026  f :     0.152258
      f+1     :     0.017898
      f-1     :     0.006050
      f+2     :     0.013967
      f-2     :     0.023483
      f+3     :     0.052497
      f-3     :     0.028337

  8 F s       :     3.600835  s :     3.600835
      pz      :     1.668545  p :     5.140454
      px      :     1.680845
      py      :     1.791064
      dz2     :     0.006096  d :     0.030864
      dxz     :     0.012556
      dyz     :     0.004216
      dx2y2   :     0.003632
      dxy     :     0.004364
      f0      :     0.000216  f :     0.001625
      f+1     :     0.000459
      f-1     :     0.000107
      f+2     :     0.000331
      f-2     :     0.000313
      f+3     :     0.000079
      f-3     :     0.000121

  9 F s       :     3.599263  s :     3.599263
      pz      :     1.603411  p :     5.139131
      px      :     1.734858
      py      :     1.800861
      dz2     :     0.009362  d :     0.031141
      dxz     :     0.011556
      dyz     :     0.005817
      dx2y2   :     0.002005
      dxy     :     0.002401
      f0      :     0.000312  f :     0.001650
      f+1     :     0.000541
      f-1     :     0.000233
      f+2     :     0.000224
      f-2     :     0.000266
      f+3     :     0.000030
      f-3     :     0.000042

 10 F s       :     3.600765  s :     3.600765
      pz      :     1.804079  p :     5.139419
      px      :     1.718598
      py      :     1.616742
      dz2     :     0.004261  d :     0.031021
      dxz     :     0.002660
      dyz     :     0.004050
      dx2y2   :     0.007460
      dxy     :     0.012589
      f0      :     0.000153  f :     0.001647
      f+1     :     0.000117
      f-1     :     0.000194
      f+2     :     0.000058
      f-2     :     0.000255
      f+3     :     0.000468
      f-3     :     0.000402

 11 F s       :     3.598920  s :     3.598920
      pz      :     1.633408  p :     5.143313
      px      :     1.711828
      py      :     1.798077
      dz2     :     0.007601  d :     0.031031
      dxz     :     0.010969
      dyz     :     0.006136
      dx2y2   :     0.002567
      dxy     :     0.003758
      f0      :     0.000245  f :     0.001544
      f+1     :     0.000438
      f-1     :     0.000194
      f+2     :     0.000238
      f-2     :     0.000314
      f+3     :     0.000045
      f-3     :     0.000069

 12 F s       :     3.597936  s :     3.597936
      pz      :     1.663616  p :     5.142734
      px      :     1.688692
      py      :     1.790427
      dz2     :     0.006033  d :     0.031290
      dxz     :     0.011105
      dyz     :     0.005767
      dx2y2   :     0.003592
      dxy     :     0.004792
      f0      :     0.000197  f :     0.001568
      f+1     :     0.000388
      f-1     :     0.000159
      f+2     :     0.000285
      f-2     :     0.000354
      f+3     :     0.000086
      f-3     :     0.000100

 13 F s       :     3.597747  s :     3.597747
      pz      :     1.557911  p :     5.142979
      px      :     1.776963
      py      :     1.808105
      dz2     :     0.012978  d :     0.031149
      dxz     :     0.008021
      dyz     :     0.007925
      dx2y2   :     0.000818
      dxy     :     0.001407
      f0      :     0.000493  f :     0.001544
      f+1     :     0.000430
      f-1     :     0.000356
      f+2     :     0.000091
      f-2     :     0.000155
[...]
 39:    352.60   0.000099    0.50  0.000088  (-0.003793  0.001606 -0.008414)
 40:    355.97   0.000449    2.27  0.000393  (-0.011291 -0.016070 -0.002772)
 41:    363.51   0.002770   14.00  0.002378  (-0.030162 -0.036977 -0.010037)
 42:    364.83   0.003075   15.54  0.002630  (-0.038283 -0.031291 -0.013613)
 43:    371.13   0.000062    0.31  0.000052  ( 0.001859 -0.005928 -0.003653)
 44:    397.66   0.003002   15.17  0.002355  (-0.044070 -0.002024 -0.020229)
 45:    411.25   0.013760   69.54  0.010442  ( 0.096368  0.028484  0.018534)
 46:    442.12   0.016609   83.93  0.011723  (-0.086006 -0.065756 -0.001516)
 47:    462.03   0.002138   10.80  0.001444  ( 0.014994  0.029253 -0.019064)
 48:    507.54   0.010943   55.30  0.006728  (-0.007361  0.075353  0.031562)
 49:    514.35   0.007360   37.19  0.004465  ( 0.019685 -0.057636 -0.027496)
 50:    533.55   0.015666   79.17  0.009163  (-0.010391 -0.075544 -0.057862)
 51:    546.00   0.010503   53.08  0.006003  ( 0.044183  0.061158 -0.017616)
 52:    552.87   0.000524    2.65  0.000296  (-0.009291 -0.008929 -0.011396)
 53:    569.40   0.002048   10.35  0.001122  ( 0.010223 -0.031765  0.002968)
 54:    587.56   0.002463   12.45  0.001308  ( 0.008872  0.032729  0.012580)
 55:    598.52   0.001158    5.85  0.000604  (-0.009534  0.019374  0.011727)
 56:    626.62   0.020620  104.20  0.010269  ( 0.014510  0.096029  0.028927)
 57:    651.88   0.017294   87.40  0.008279  (-0.004124  0.087955  0.022928)
 58:    664.20   0.023067  116.57  0.010838  ( 0.033726  0.002694 -0.098453)
 59:    670.80   0.003866   19.54  0.001798  ( 0.008233  0.038880  0.014797)
 60:    684.63   0.024888  125.77  0.011344  (-0.047766  0.028790  0.090740)
 61:    712.84   0.000896    4.53  0.000392  ( 0.005140 -0.019034  0.001864)
 62:    717.35   0.005163   26.09  0.002246  ( 0.002605  0.042771  0.020250)
 63:    759.31   0.001138    5.75  0.000468  (-0.009300  0.019507 -0.000862)
 64:    796.54   0.017569   88.79  0.006883  (-0.018025 -0.070706  0.039482)
 65:    866.81   0.004481   22.65  0.001613  ( 0.002661 -0.039987 -0.002708)
 66:    991.83   0.009740   49.22  0.003065  ( 0.001358  0.043769  0.033868)
 67:   1079.72   0.018479   93.38  0.005341  ( 0.055288  0.040964 -0.024617)
 68:   1102.38   0.024474  123.68  0.006928  ( 0.077846 -0.009901  0.027748)
 69:   1106.90   0.012942   65.40  0.003649  ( 0.019084 -0.006271 -0.056966)
 70:   1112.77   0.025139  127.04  0.007050  ( 0.038746 -0.015016  0.072961)
 71:   1121.55   0.067769  342.48  0.018856  ( 0.112185  0.037755 -0.069608)
 72:   1128.92   0.083841  423.70  0.023176  (-0.147959  0.000001  0.035830)
 73:   1138.98   0.004283   21.64  0.001173  (-0.006984 -0.003497  0.033354)
 74:   1140.55   0.042745  216.01  0.011695  (-0.100732  0.006419 -0.038821)
 75:   1147.98   0.142752  721.41  0.038805  (-0.097981  0.046894 -0.164335)
 76:   1154.45   0.085652  432.85  0.023153  ( 0.102029 -0.017073 -0.111586)
 77:   1159.96   0.074040  374.17  0.019919  (-0.079700  0.061421 -0.098966)
 78:   1174.30   0.076495  386.58  0.020328  ( 0.019258 -0.053359  0.130806)
 79:   1184.04   0.006739   34.05  0.001776  (-0.030282  0.011793 -0.026832)
 80:   1211.02   0.011826   59.76  0.003047  ( 0.026477 -0.046253  0.014390)
 81:   1239.55   0.002848   14.39  0.000717  (-0.025065  0.009272 -0.001631)
 82:   1261.55   0.004244   21.45  0.001050  (-0.020776  0.024221  0.005606)
 83:   1279.34   0.006837   34.55  0.001668  (-0.006371  0.020123  0.034961)
 84:   1332.52   0.033941  171.52  0.007949  ( 0.013803  0.087494  0.010149)
 85:   1379.10   0.030295  153.10  0.006855  ( 0.009845  0.081690 -0.009217)
 86:   1662.70   0.016313   82.44  0.003062  ( 0.013528 -0.052905  0.008926)
 87:   1670.37   0.042890  216.75  0.008013  ( 0.075303 -0.037096  0.031085)
 88:   1705.79   0.210569  1064.13  0.038522  ( 0.194550 -0.006531  0.025100)
 89:   3418.26   0.305279  1542.76  0.027870  (-0.159589 -0.026653 -0.041121)
 90:   3448.88   0.094543  477.78  0.008554  ( 0.088074 -0.015396  0.023673)
 91:   3789.91   0.017734   89.62  0.001460  (-0.031664 -0.020283 -0.006797)
 92:   3793.20   0.011448   57.85  0.000942  (-0.017577 -0.025046  0.002355)

* The epsilon (eps) is given for a Dirac delta lineshape.
** The dipole moment derivative (T) already includes vibrational overlap.

The first frequency considered to be a vibration is 6
The total number of vibrations considered is 87


--------------------------
THERMOCHEMISTRY AT 298.15K
--------------------------

Temperature         ...   298.15 K
Pressure            ...     1.00 atm
Total Mass          ...   449.09 AMU
Quasi RRHO          ...     True
Cut-Off Frequency   ...     1.00 cm^-1

Throughout the following assumptions are being made:
  (1) The electronic state is orbitally nondegenerate
  (2) There are no thermally accessible electronically excited states
  (3) Hindered rotations indicated by low frequency modes are not
      treated as such but are treated as vibrations and this may
      cause some error
  (4) All equations used are the standard statistical mechanics
      equations for an ideal gas
  (5) All vibrations are strictly harmonic

freq.      18.00  E(vib)   ...       0.57 
freq.      22.32  E(vib)   ...       0.56 
freq.      28.21  E(vib)   ...       0.55 
freq.      36.53  E(vib)   ...       0.54 
freq.      39.34  E(vib)   ...       0.54 
freq.      45.07  E(vib)   ...       0.53 
freq.      50.28  E(vib)   ...       0.52 
freq.      58.11  E(vib)   ...       0.51 
freq.      61.79  E(vib)   ...       0.51 
freq.      66.74  E(vib)   ...       0.50 
freq.      71.64  E(vib)   ...       0.50 
freq.      75.07  E(vib)   ...       0.49 
freq.      88.87  E(vib)   ...       0.47 
freq.     114.52  E(vib)   ...       0.44 
freq.     118.57  E(vib)   ...       0.44 
freq.     130.63  E(vib)   ...       0.43 
freq.     151.92  E(vib)   ...       0.40 
freq.     163.00  E(vib)   ...       0.39 
freq.     182.12  E(vib)   ...       0.37 
freq.     189.38  E(vib)   ...       0.36 
freq.     196.68  E(vib)   ...       0.36 
freq.     200.06  E(vib)   ...       0.35 
freq.     206.18  E(vib)   ...       0.35 
freq.     225.84  E(vib)   ...       0.33 
freq.     234.67  E(vib)   ...       0.32 
freq.     246.04  E(vib)   ...       0.31 
freq.     247.99  E(vib)   ...       0.31 
freq.     265.29  E(vib)   ...       0.29 
freq.     278.03  E(vib)   ...       0.28 
freq.     296.48  E(vib)   ...       0.27 
freq.     305.14  E(vib)   ...       0.26 
freq.     327.19  E(vib)   ...       0.24 
freq.     341.23  E(vib)   ...       0.23 
freq.     352.60  E(vib)   ...       0.22 
freq.     355.97  E(vib)   ...       0.22 
freq.     363.51  E(vib)   ...       0.22 
freq.     364.83  E(vib)   ...       0.22 
freq.     371.13  E(vib)   ...       0.21 
freq.     397.66  E(vib)   ...       0.20 
freq.     411.25  E(vib)   ...       0.19 
freq.     442.12  E(vib)   ...       0.17 
freq.     462.03  E(vib)   ...       0.16 
freq.     507.54  E(vib)   ...       0.14 
freq.     514.35  E(vib)   ...       0.13 
freq.     533.55  E(vib)   ...       0.13 
freq.     546.00  E(vib)   ...       0.12 
freq.     552.87  E(vib)   ...       0.12 
freq.     569.40  E(vib)   ...       0.11 
freq.     587.56  E(vib)   ...       0.10 
freq.     598.52  E(vib)   ...       0.10 
freq.     626.62  E(vib)   ...       0.09 
freq.     651.88  E(vib)   ...       0.08 
freq.     664.20  E(vib)   ...       0.08 
freq.     670.80  E(vib)   ...       0.08 
freq.     684.63  E(vib)   ...       0.07 
freq.     712.84  E(vib)   ...       0.07 
freq.     717.35  E(vib)   ...       0.07 
freq.     759.31  E(vib)   ...       0.06 
freq.     796.54  E(vib)   ...       0.05 
freq.     866.81  E(vib)   ...       0.04 
freq.     991.83  E(vib)   ...       0.02 
freq.    1079.72  E(vib)   ...       0.02 
freq.    1102.38  E(vib)   ...       0.02 
freq.    1106.90  E(vib)   ...       0.02 
freq.    1112.77  E(vib)   ...       0.01 
freq.    1121.55  E(vib)   ...       0.01 
freq.    1128.92  E(vib)   ...       0.01 
freq.    1138.98  E(vib)   ...       0.01 
freq.    1140.55  E(vib)   ...       0.01 
freq.    1147.98  E(vib)   ...       0.01 
freq.    1154.45  E(vib)   ...       0.01 
freq.    1159.96  E(vib)   ...       0.01 
freq.    1174.30  E(vib)   ...       0.01 
freq.    1184.04  E(vib)   ...       0.01 
freq.    1211.02  E(vib)   ...       0.01 
freq.    1239.55  E(vib)   ...       0.01 
freq.    1261.55  E(vib)   ...       0.01 
freq.    1279.34  E(vib)   ...       0.01 
freq.    1332.52  E(vib)   ...       0.01 
freq.    1379.10  E(vib)   ...       0.01 
freq.    1662.70  E(vib)   ...       0.00 
freq.    1670.37  E(vib)   ...       0.00 
freq.    1705.79  E(vib)   ...       0.00 
freq.    3418.26  E(vib)   ...       0.00 
freq.    3448.88  E(vib)   ...       0.00 
freq.    3789.91  E(vib)   ...       0.00 
freq.    3793.20  E(vib)   ...       0.00 

------------
INNER ENERGY
------------

The inner energy is: U= E(el) + E(ZPE) + E(vib) + E(rot) + E(trans)
    E(el)   - is the total energy from the electronic structure calculation
              = E(kin-el) + E(nuc-el) + E(el-el) + E(nuc-nuc)
    E(ZPE)  - the the zero temperature vibrational energy from the frequency calculation
    E(vib)  - the the finite temperature correction to E(ZPE) due to population
              of excited vibrational states
    E(rot)  - is the rotational thermal energy
    E(trans)- is the translational thermal energy

Summary of contributions to the inner energy U:
Electronic energy                ...  -2106.84196001 Eh
Zero point energy                ...      0.14375541 Eh      90.21 kcal/mol
Thermal vibrational correction   ...      0.02744631 Eh      17.22 kcal/mol
Thermal rotational correction    ...      0.00141627 Eh       0.89 kcal/mol
Thermal translational correction ...      0.00141627 Eh       0.89 kcal/mol
-----------------------------------------------------------------------
Total thermal energy                  -2106.66792575 Eh


Summary of corrections to the electronic energy:
(perhaps to be used in another calculation)
Total thermal correction                  0.03027885 Eh      19.00 kcal/mol
Non-thermal (ZPE) correction              0.14375541 Eh      90.21 kcal/mol
-----------------------------------------------------------------------
Total correction                          0.17403426 Eh     109.21 kcal/mol


--------
ENTHALPY
--------

The enthalpy is H = U + kB*T
                kB is Boltzmann's constant
Total thermal energy              ...  -2106.66792575 Eh 
Thermal Enthalpy correction       ...      0.00094421 Eh       0.59 kcal/mol
-----------------------------------------------------------------------
Total Enthalpy                    ...  -2106.66698154 Eh


Note: Only C1 symmetry has been detected, increase convergence thresholds 
      if your molecule has a higher symmetry. Symmetry factor of 1.0 is   
      used for the rotational entropy correction. 
 

Note: Rotational entropy computed according to Herzberg 
Infrared and Raman Spectra, Chapter V,1, Van Nostrand Reinhold, 1945 
Point Group:  C1, Symmetry Number:   1  
Rotational constants in cm-1:     0.013190     0.003225     0.002949 

Vibrational entropy computed according to the QRRHO of S. Grimme
Chem.Eur.J. 2012 18 9955 using a reference frequency of 100.0 cm-1


-------
ENTROPY
-------

The entropy contributions are T*S = T*(S(el)+S(vib)+S(rot)+S(trans))
     S(el)   - electronic entropy
     S(vib)  - vibrational entropy
     S(rot)  - rotational entropy
     S(trans)- translational entropy
The entropies will be listed as multiplied by the temperature to get
units of energy

Electronic entropy                ...      0.00000000 Eh      0.00 kcal/mol
Vibrational entropy               ...      0.05060497 Eh     31.76 kcal/mol
Rotational entropy                ...      0.01701308 Eh     10.68 kcal/mol
Translational entropy             ...      0.02099854 Eh     13.18 kcal/mol
-----------------------------------------------------------------------
Final entropy term                ...      0.08861660 Eh     55.61 kcal/mol

In case the symmetry of your molecule has not been determined correctly
or in case you have a reason to use a different symmetry number we print 
out the resulting rotational entropy values for sn=1,12:

 non-linear molecules -----------------------------------
|  sn= 1 | S(rot)=       0.01701308 Eh     10.68 kcal/mol|
|  sn= 2 | S(rot)=       0.01635863 Eh     10.27 kcal/mol|
|  sn= 3 | S(rot)=       0.01597580 Eh     10.02 kcal/mol|
|  sn= 4 | S(rot)=       0.01570417 Eh      9.85 kcal/mol|
|  sn= 5 | S(rot)=       0.01549348 Eh      9.72 kcal/mol|
|  sn= 6 | S(rot)=       0.01532134 Eh      9.61 kcal/mol|
|  sn= 7 | S(rot)=       0.01517579 Eh      9.52 kcal/mol|
|  sn= 8 | S(rot)=       0.01504972 Eh      9.44 kcal/mol|
|  sn= 9 | S(rot)=       0.01493851 Eh      9.37 kcal/mol|
|  sn=10 | S(rot)=       0.01483903 Eh      9.31 kcal/mol|
|  sn=11 | S(rot)=       0.01474904 Eh      9.26 kcal/mol|
|  sn=12 | S(rot)=       0.01466688 Eh      9.20 kcal/mol|
 linear molecules ---------------------------------------
|  Dinfh | S(rot)=       0.01082694 Eh      6.79 kcal/mol|
|  Cinfv | S(rot)=       0.01148139 Eh      7.20 kcal/mol|
 --------------------------------------------------------


-------------------
GIBBS FREE ENERGY
-------------------

The Gibbs free energy is G = H - T*S

Total enthalpy                    ...  -2106.66698154 Eh 
Total entropy correction          ...     -0.08861660 Eh    -55.61 kcal/mol
-----------------------------------------------------------------------
Final Gibbs free energy         ...  -2106.75559814 Eh

For completeness - the Gibbs free energy minus the electronic energy
G-E(el)                           ...      0.08636187 Eh     54.19 kcal/mol


Maximum memory used throughout the entire PROP-calculation: 426.2 MB

--------------------------------
SUGGESTED CITATIONS FOR THIS RUN
--------------------------------

Below you find a list of papers that are relevant to this ORCA run
We neither can nor want to force you to cite these papers, but we appreciate if you do
You receive ORCA, which is the product of decades of hard work by many enthusiastic individuals, for free
The only thing we kindly ask in return is that you cite our papers,
We deeply appreciate it, if you show your appreciation for ORCA by not just citing the generic ORCA reference.

Please note that relegating all ORCA citations to the supporting information does *not* help us.
SI sections are not indexed - citations you put there will not count into any citation statistics
But we need these citations in order to attract the funding resources that allow us to do what we are doing

Therefore, if you are a happy ORCA user, please consider citing a few of the papers listed below in the main body of your paper

In addition to the list printed below, the program has created the file rf_mecn_2H2O_freq_TP_con_01.bibtex that contains the list in bibtex format
You can import this file easily into all common literature databanks and citation aid programs


List of essential papers. We consider these as the minimum necessary citations

  1. Neese,F.
     Software update: the ORCA program system, version 5.0
     WIRES Comput. Molec. Sci., 2022 12(1)e1606
     doi.org/10.1002/wcms.1606

List of papers to cite with high priority. The work reported in these papers was absolutely
necessary for this run to complete.
Our perspective: the developers of density functionals and basis sets usually get cited in chemistry papers
Good! But without the algorithms to do something with them, the functionals or basis sets would not do anything.
Hence, in our opinion, the algorithm design and method developments papers are equally worthy of getting cited

  1. Neese,F.
     An improvement of the resolution of the identity approximation for the formation of the Coulomb matrix
     J. Comp. Chem., 2003 24(14)1740-1747
     doi.org/10.1002/jcc.10318
  2. Neese,F.; Wennmohs,F.; Hansen,A.; Becker,U.
     Efficient, approximate and parallel Hartree-Fock and hybrid DFT calculations. A 'chain-of-spheres' algorithm for the Hartree-Fock exchange
     Chem. Phys., 2009 356(1-3)98-109
     doi.org/10.1016/j.chemphys.2008.10.036
  3. Bykov,D.; Petrenko,T.; Izsak,R.; Kossmann,S.; Becker,U.; Valeev,E.; Neese,F.
     Efficient implementation of the analytic second derivatives of Hartree-Fock and hybrid DFT energies: a detailed analysis of different approximations
     Molec. Phys., 2015 113 1961-1977
     doi.org/10.1080/00268976.2015.1025114
  4. Garcia-Rates,M.; Neese,F.
     Efficient implementation of the analytical second derivatives of hartree-fock and hybrid DFT energies within the framework of the conductor-like polarizable continuum model
     J. Comput. Chem., 2019 40 1816-1828
     doi.org/10.1002/jcc.25833
  5. Garcia-Rates,M.; Neese,F.
     Effect of the Solute Cavity on the Solvation Energy and its Derivatives within the Framework of the Gaussian Charge Scheme
     J. Comput. Chem., 2020 41 922-939
     doi.org/10.1002/jcc.26139
  6. Helmich-Paris,B.; de Souza,B.; Neese,F.; Izsák,R.
     An improved chain of spheres for exchange algorithm
     J. Chem. Phys., 2021 155 104109
     doi.org/doi: 10.1063/5.0058766.
  7. Neese,F.
     The SHARK Integral Generation and Digestion System
     J. Comp. Chem., 2022  1-16
     doi.org/10.1002/jcc.26942
  8. Grimme,S.; Antony,J.; Ehrlich,S.; Krieg,H.
     A consistent and accurate ab initio parametrization of density functional dispersion correction (DFT-D) for the 94 elements H-Pu
     J. Chem. Phys., 2010 132 154104
     doi.org/10.1063/1.3382344
  9. Grimme,S.; Ehrlich,S.; Goerigk,L.
     Effect of the damping function in dispersion corrected density functional theory
     J. Comput. Chem., 2011 32(7)1456-1465
     doi.org/10.1002/jcc.21759

List of suggested additional citations. These are papers that are important in the 'surrounding' of 
of this run, or papers that preceded the highly important papers. If you like your results we are grateful for a citation.

  1. Izsak,R.; Neese,F.
     An overlap fitted chain of spheres exchange method
     J. Chem. Phys., 2011 135 144105
     doi.org/10.1063/1.3646921
  2. Izsak,R.; Hansen,A.; Neese,F.
     The resolution of identity and chain of spheres approximations for the LPNO-CCSD singles Fock term
     Molec. Phys., 2012 110 2413-2417
     doi.org/10.1080/00268976.2012.687466
  3. Neese,F.
     The ORCA program system
     WIRES Comput. Molec. Sci., 2012 2(1)73-78
     doi.org/10.1002/wcms.81
  4. Izsak,R.; Neese,F.; Klopper,W.
     Robust fitting techniques in the chain of spheres approximation to the Fock exchange: The role of the complementary space
     J. Chem. Phys., 2013 139 
     doi.org/10.1063/1.4819264
  5. Neese,F.
     Software update: the ORCA program system, version 4.0
     WIRES Comput. Molec. Sci., 2018 8(1)1-6
     doi.org/10.1002/wcms.1327
  6. Neese,F.; Wennmohs,F.; Becker,U.; Riplinger,C.
     The ORCA quantum chemistry program package
     J. Chem. Phys., 2020 152 Art. No. L224108
     doi.org/10.1063/5.0004608

List of optional additional citations

  1. Neese,F.
     Approximate second-order SCF convergence for spin unrestricted wavefunctions
     Chem. Phys. Lett., 2000 325(1-3)93-98
     doi.org/10.1016/s0009-2614(00)00662-x

Timings for individual modules:

Sum of individual times          ...     1036.918 sec (=  17.282 min)
Startup calculation              ...        3.978 sec (=   0.066 min)   0.4 %
SCF iterations                   ...       86.494 sec (=   1.442 min)   8.3 %
Property integrals               ...      285.587 sec (=   4.760 min)  27.5 %
SCF Response                     ...      425.106 sec (=   7.085 min)  41.0 %
Property calculations            ...      235.753 sec (=   3.929 min)  22.7 %
                             ****ORCA TERMINATED NORMALLY****
TOTAL RUN TIME: 0 days 0 hours 17 minutes 17 seconds 673 msec
