
                                 *****************
                                 * O   R   C   A *
                                 *****************

                                            #,                                       
                                            ###                                      
                                            ####                                     
                                            #####                                    
                                            ######                                   
                                           ########,                                 
                                     ,,################,,,,,                         
                               ,,#################################,,                 
                          ,,##########################################,,             
                       ,#########################################, ''#####,          
                    ,#############################################,,   '####,        
                  ,##################################################,,,,####,       
                ,###########''''           ''''###############################       
              ,#####''   ,,,,##########,,,,          '''####'''          '####       
            ,##' ,,,,###########################,,,                        '##       
           ' ,,###''''                  '''############,,,                           
         ,,##''                                '''############,,,,        ,,,,,,###''
      ,#''                                            '''#######################'''  
     '                                                          ''''####''''         
             ,#######,   #######,   ,#######,      ##                                
            ,#'     '#,  ##    ##  ,#'     '#,    #''#        ,####,   ,####,        
            ##       ##  ##   ,#'  ##            #'  '#       #'       #'  '#        
            ##       ##  #######   ##           ,######,      #####,   #    #        
            '#,     ,#'  ##    ##  '#,     ,#' ,#      #,     #,   #   #,  ,#        
             '#######'   ##     ##  '#######'  #'      '#     '####' # '####'        



                #########################################################
                #                        -***-                          #
                #          Department of theory and spectroscopy        #
                #                                                       #
                #                      Frank Neese                      #
                #                                                       #
                #     Directorship, Architecture, Infrastructure        #
                #                    SHARK, DRIVERS                     #
                #        Core code/Algorithms in most modules           #
                #                                                       #
                #        Max Planck Institute fuer Kohlenforschung      #
                #                Kaiser Wilhelm Platz 1                 #
                #                 D-45470 Muelheim/Ruhr                 #
                #                      Germany                          #
                #                                                       #
                #                  All rights reserved                  #
                #                        -***-                          #
                #########################################################


                         Program Version 6.0.1  -  RELEASE   -


 With contributions from (in alphabetic order):
[Max-Planck-Institut fuer Kohlenforschung]                               
  Daniel Aravena         : Magnetic Suceptibility                        
  Michael Atanasov       : Ab Initio Ligand Field Theory (pilot matlab implementation)
  Alexander A. Auer      : GIAO ZORA, VPT2 properties, NMR spectrum      
  Ute Becker             : All parallelization in ORCA, NUMFREQ, NUMCALC 
  Giovanni Bistoni       : ED, misc. LED, open-shell LED, HFLD           
  Martin Brehm           : Molecular dynamics                            
  Dmytro Bykov           : pre 5.0 version of the SCF Hessian            
  Marcos Casanova-Páez   : Triplet and SCS-CIS(D). UHF-(DLPNO)-IP/EA/STEOM-CCSD. UHF-CVS-IP/STEOM-CCSD   
  Vijay G. Chilkuri      : MRCI spin determinant printing, contributions to CSF-ICE 
  Pauline Colinet        : FMM embedding                                 
  Dipayan Datta          : RHF DLPNO-CCSD density                        
  Achintya Kumar Dutta   : EOM-CC, STEOM-CC                              
  Nicolas Foglia         : Exact transition moments, OPA infrastructure, MCD improvements    
  Dmitry Ganyushin       : Spin-Orbit,Spin-Spin,Magnetic field MRCI      
  Miquel Garcia-Rates    : C-PCM and meta-GGA Hessian, CCSD/C-PCM, Gaussian charge scheme 
  Tiago L. C. Gouveia    : GS-ROHF, GS-ROCIS                             
  Yang Guo               : DLPNO-NEVPT2, F12-NEVPT2, CIM, IAO-localization        
  Andreas Hansen         : Spin unrestricted coupled pair/coupled cluster methods 
  Ingolf Harden          : AUTO-CI MPn and infrastructure                
  Benjamin Helmich-Paris : MC-RPA, TRAH-(SCF,CASSCF), AVAS, COSX integrals, SCF dyn. polar. 
  Lee Huntington         : MR-EOM, pCC                                   
  Robert Izsak           : Overlap fitted RIJCOSX, COSX-SCS-MP3, EOM     
  Riya Kayal             : Wick's Theorem for AUTO-CI, AUTO-CI UHF-CCSDT 
  Emily Kempfer          : AUTO-CI, RHF CISDT and CCSDT                  
  Christian Kollmar      : KDIIS, OOCD, Brueckner-CCSD(T), CCSD density, CASPT2, CASPT2-K, improved NEVPT2 
  Axel Koslowski         : Symmetry handling                             
  Simone Kossmann        : meta-GGA functionals, TD-DFT gradient, OOMP2, (MP2 Hessian; deprecated post 5.0) 
  Lucas Lang             : DCDCAS                                        
  Marvin Lechner         : AUTO-CI (C++ implementation), FIC-MRCC        
  Spencer Leger          : CASSCF response                               
  Dagmar Lenk            : GEPOL surface, SMD, ORCA-2-JSON               
  Dimitrios Liakos       : Extrapolation schemes; Compound Job, initial MDCI parallelization 
  Dimitrios Manganas     : Further ROCIS development; embedding schemes. LFT, Crystal Embedding 
  Dimitrios Pantazis     : SARC Basis sets                               
  Anastasios Papadopoulos: AUTO-CI, single reference methods and gradients 
  Taras Petrenko         : pre 6.0 DFT Hessian and TD-DFT gradient, (ASA, deprecated), ECA, 1-Electron XAS/XES, NRVS 
  Peter Pinski           : DLPNO-MP2, DLPNO-MP2 Gradient                 
  Christoph Reimann      : Effective Core Potentials                     
  Marius Retegan         : Local ZFS, SOC                                
  Christoph Riplinger    : Optimizer, TS searches, QM/MM, DLPNO-CCSD(T), (RO)-DLPNO pert. Triples 
  Michael Roemelt        : Original ROCIS implementation                 
  Masaaki Saitow         : Open-shell DLPNO-CCSD energy and density      
  Barbara Sandhoefer     : DKH picture change effects                    
  Kantharuban Sivalingam : CASSCF convergence/infrastructure, NEVPT2 and variants, FIC-MRCI 
  Bernardo de Souza      : ESD, SOC TD-DFT                               
  Georgi L. Stoychev     : AutoAux, RI-MP2 NMR, DLPNO-MP2 response, X2C  
  Van Anh Tran           : RI-MP2 g-tensors                              
  Willem Van den Heuvel  : Paramagnetic NMR                              
  Zikuan Wang            : NOTCH, Electric field optimization            
  Frank Wennmohs         : Technical directorship and infrastructure     
  Hang Xu                : AUTO-CI-Response properties                   
                                                                         
[FACCTs GmbH]                                                            
  Markus Bursch, Miquel Garcia-Rates, Christoph Riplinger, Bernardo de Souza, Georgi L. Stoychev 
                                                                 
  APM, Basis sets (HGBS, AHGBS, def-TZVP (Ac-Lr), def2-XVPD (La-Lu)), CI-OPT, improved COSX, DLPNO-Multilevel,           
  DOCKER, DRACO, updates on ESD, GOAT, IRC, LR-CPCM, MBIS, meta-GGA TD-DFT gradient, ML-optimized integration grids, 
  MM, NACMEs, nearIR, NEB, NEB-TS, NL-DFT gradient (VV10), 2- and 3-layer-ONIOM, interface openCOSMO-RS, QMMM,   
  Crystal-QMMM, SF, symmetry and pop. for TD-DFT, r2SCAN hybrids, SOLVATOR                                   
                                                                         
[Other institutions]                                                     
  V. Asgeirsson          : NEB                                           
  Christoph Bannwarth    : sTDA-DFT, sTD-DFT, PBEh-3c, B97-3c, D3        
  Sebastian Ehlert       : rSCAN, r2SCAN, r2SCAN-3c, D4, dhf basis sets  
  Marvin Friede          : D4 for Fr, Ra, Ac-Lr                          
  Lars Goerigk           : TD-DFT with DH, B97 family of functionals     
  Stefan Grimme          : VdW corrections, initial TS optimization, DFT functionals, gCP, sTDA/sTD-DF 
  Waldemar Hujo          : DFT-NL                                        
  H. Jonsson             : NEB                                           
  Holger Kruse           : gCP                                           
  Marcel Mueller         : wB97X-3c, vDZP basis set                      
  Hagen Neugebauer       : wr2SCAN                                       
  Tobias Risthaus        : range-separated hybrid DFT                    
  Lukas Wittmann         : regularized MP2, r2SCAN double-hybrids, wr2SCAN        
                                                                         
We gratefully acknowledge several colleagues who have allowed us to      
interface, adapt or use parts of their codes:                            
  Ed Valeev, F. Pavosevic, A. Kumar             : LibInt (2-el integral package), F12 methods 
  Garnet Chan, S. Sharma, J. Yang, R. Olivares  : DMRG                   
  Ulf Ekstrom                                   : XCFun DFT Library      
  Mihaly Kallay                                 : mrcc  (arbitrary order and MRCC methods)
  Frank Weinhold                                : gennbo (NPA and NBO analysis)           
  Simon Mueller                                 : openCOSMO-RS                            
  Christopher J. Cramer and Donald G. Truhlar   : smd solvation model                     
  S Lehtola, MJT Oliveira, MAL Marques          : LibXC Library                           
  Liviu Ungur et al                             : ANISO software                          


 Your calculation uses the libint2 library for the computation of 2-el integrals
 For citations please refer to: http://libint.valeyev.net

 Your ORCA version has been built with support for libXC version: 6.2.2
 For citations please refer to: https://libxc.gitlab.io

 This ORCA versions uses:
   CBLAS   interface :  Fast vector & matrix operations
   LAPACKE interface :  Fast linear algebra routines
   SCALAPACK package :  Parallel linear algebra routines
   Shared memory     :  Shared parallel matrices
   BLAS/LAPACK       :  OpenBLAS 0.3.27  USE64BITINT DYNAMIC_ARCH NO_AFFINITY SkylakeX SINGLE_THREADED
        Core in use  :  SkylakeX
   Copyright (c) 2011-2014, The OpenBLAS Project


NOTE: MaxCore=8000 MB was set to SCF,MP2,MDCI,CIPSI,MRCI and CIS
      => If you want to overwrite this, your respective input block should be placed after the MaxCore statement
Your calculation utilizes the atom-pairwise dispersion correction
with the Becke-Johnson damping scheme (D3BJ)


Your calculation utilizes the SMD solvation module
Please cite in your paper:
A.V. Marenich, C.J. Cramer, D.G. Truhlar J. Phys. Chem. B, 113, (2009), 6378 

Warning: RI is on but no J-basis has been assigned. Assigning Def2/J (nothing to worry about!)
================================================================================

----- Orbital basis set information -----
Your calculation utilizes the basis: def2-TZVP
   F. Weigend and R. Ahlrichs, Phys. Chem. Chem. Phys. 7, 3297 (2005).

----- AuxJ basis set information -----
Your calculation utilizes the auxiliary basis: def2/J
   F. Weigend, Phys. Chem. Chem. Phys. 8, 1057 (2006).

================================================================================
                                        WARNINGS
                       Please study these warnings very carefully!
================================================================================



WARNING: SCAN, rSCAN, or r2SCAN functional requested.
  ===> : libXC variant has now been activated.



WARNING: Geometry Optimization
  ===> : Switching off AutoStart
         For restart on a previous wavefunction, please use MOREAD

================================================================================
                                       INPUT FILE
================================================================================
NAME = rf_mecn_2H2O_opt_r2s_con_001.inp
|  1> !r2scanh def2-TZVP opt d3 TightSCF SlowConv defgrid2
|  2>  
|  3> %pal
|  4> nprocs 20
|  5> end
|  6>  
|  7> %scf
|  8> MaxIter 1500
|  9> end
| 10>  
| 11> %maxcore 8000
| 12>  
| 13> !CPCM
| 14> %cpcm smd true
| 15> SMDsolvent "ACETONITRILE"
| 16> end
| 17>  
| 18> * xyz -1 1
| 19> 6        7.061480798     27.780530965      3.106576640
| 20> 6        6.358244798     26.583375965      2.416992640
| 21> 6        7.290739798     25.361615965      2.191470640
| 22> 6        6.503816798     24.050508965      1.905927640
| 23> 6        7.390081798     22.949036965      1.254848640
| 24> 6        6.769590798     21.526080965      1.366223640
| 25> 6        7.389881798     20.495443965      0.400529640
| 26> 6        7.047594798     19.000380965      0.790287640
| 27> 9        8.211006798     28.061334965      2.509442640
| 28> 9        7.286980798     27.526353965      4.384782640
| 29> 9        6.271788798     28.845445965      3.024205640
| 30> 9        5.320618798     26.239799965      3.188367640
| 31> 9        5.906995798     27.014763965      1.236217640
| 32> 9        8.092105798     25.656497965      1.162788640
| 33> 9        8.034091798     25.196969965      3.293178640
| 34> 9        6.010694798     23.624429965      3.072509640
| 35> 9        5.491631798     24.352956965      1.082460640
| 36> 9        7.554809798     23.292706965     -0.028459360
| 37> 9        8.581822798     22.977688965      1.870991640
| 38> 9        6.960326798     21.133942965      2.637027640
| 39> 9        5.455181798     21.663434965      1.139465640
| 40> 9        6.910796798     20.782536965     -0.839488360
| 41> 9        8.723370798     20.748082965      0.370020640
| 42> 8        8.017941798     18.242246965      0.795072640
| 43> 8        5.838755798     18.846145965      1.003745640
| 44> 8        3.022589945     18.615377681      1.418469618
| 45> 1        2.921133959     17.670398128      1.249412630
| 46> 1        3.952270754     18.785006115      1.221543930
| 47> 1        9.651244624     17.272645385      0.841919800
| 48> 8       10.455174784     16.738287734      0.846178529
| 49> 1       10.221449611     15.976809483      1.391507198
| 50> *
| 51> 
| 52>                          ****END OF INPUT****
================================================================================

                       *****************************
                       * Geometry Optimization Run *
                       *****************************

Geometry optimization settings:
Update method            Update   .... BFGS
Choice of coordinates    CoordSys .... (2022) Redundant Internals
Initial Hessian          InHess   .... Almloef's Model
Max. no of cycles        MaxIter  .... 93

Convergence Tolerances:
Energy Change            TolE     ....  5.0000e-06 Eh
Max. Gradient            TolMAXG  ....  3.0000e-04 Eh/bohr
RMS Gradient             TolRMSG  ....  1.0000e-04 Eh/bohr
Max. Displacement        TolMAXD  ....  4.0000e-03 bohr
RMS Displacement         TolRMSD  ....  2.0000e-03 bohr
Strict Convergence                .... False

------------------------------------------------------------------------------
                        ORCA OPTIMIZATION COORDINATE SETUP
------------------------------------------------------------------------------

The optimization will be done in redundant internal coordinates (2022)
Making redundant internal coordinates   ...  (2022 redundants) done
Evaluating the initial hessian          ...  (Almloef) done
Evaluating the coordinates              ...  done
Calculating the B-matrix                .... done
Calculating the G-matrix                .... done
Diagonalizing the G-matrix              .... done
Small eigenvalue found = 2.044e-03
Small eigenvalue found = 6.984e-03
Small eigenvalue found = 8.997e-03
Small eigenvalue found = 1.096e-02
Small eigenvalue found = 1.565e-02
The first mode is                       ....   43
The number of degrees of freedom        ....   87

    -----------------------------------------------------------------
                    Redundant Internal Coordinates


    -----------------------------------------------------------------
         Definition                    Initial Value    Approx d2E/dq
    -----------------------------------------------------------------
      1. B(C   1,C   0)                  1.5502         0.346804   
      2. B(C   2,C   1)                  1.5534         0.342781   
      3. B(C   3,C   2)                  1.5556         0.340086   
      4. B(C   4,C   3)                  1.5565         0.338954   
      5. B(C   5,C   4)                  1.5563         0.339111   
      6. B(C   6,C   5)                  1.5426         0.356709   
      7. B(C   7,C   6)                  1.5825         0.308055   
      8. B(F   8,C   0)                  1.3255         0.659090   
      9. B(F   9,C   0)                  1.3226         0.666042   
     10. B(F  10,C   0)                  1.3283         0.652181   
     11. B(F  11,C   1)                  1.3378         0.629847   
     12. B(F  12,C   1)                  1.3356         0.634870   
     13. B(F  13,C   2)                  1.3369         0.631928   
     14. B(F  14,C   2)                  1.3392         0.626649   
     15. B(F  15,C   3)                  1.3363         0.633409   
     16. B(F  16,C   3)                  1.3394         0.626090   
     17. B(F  17,C   4)                  1.3387         0.627782   
     18. B(F  18,C   4)                  1.3419         0.620447   
     19. B(F  19,C   5)                  1.3435         0.616728   
     20. B(F  20,C   5)                  1.3409         0.622782   
     21. B(F  21,C   6)                  1.3600         0.580545   
     22. B(F  22,C   6)                  1.3576         0.585779   
     23. B(O  23,C   7)                  1.2314         1.002075   
     24. B(O  24,C   7)                  1.2372         0.981004   
     25. B(H  26,O  25)                  0.9653         0.509876   
     26. B(H  27,O  24)                  1.9000         0.016453   
     27. B(H  27,O  25)                  0.9653         0.509876   
     28. B(H  28,O  23)                  1.9000         0.016453   
     29. B(O  29,H  28)                  0.9653         0.509876   
     30. B(H  30,O  29)                  0.9653         0.509876   
     31. A(F   8,C   0,F   9)          109.1619         0.434870   
     32. A(F   9,C   0,F  10)          108.3827         0.434046   
     33. A(F   8,C   0,F  10)          108.5307         0.433227   
     34. A(C   1,C   0,F  10)          108.7739         0.390821   
     35. A(C   1,C   0,F   9)          111.0282         0.392261   
     36. A(C   1,C   0,F   8)          110.8930         0.391542   
     37. A(C   2,C   1,F  11)          110.3230         0.387660   
     38. A(C   0,C   1,F  11)          107.0787         0.388450   
     39. A(C   0,C   1,C   2)          113.5553         0.353571   
     40. A(F  11,C   1,F  12)          109.3079         0.427641   
     41. A(C   2,C   1,F  12)          109.1769         0.388197   
     42. A(C   0,C   1,F  12)          107.2827         0.388989   
     43. A(C   3,C   2,F  13)          110.3587         0.387350   
     44. A(F  13,C   2,F  14)          109.1107         0.426896   
     45. A(C   1,C   2,F  14)          108.0873         0.387316   
     46. A(C   1,C   2,C   3)          112.6983         0.352402   
     47. A(C   1,C   2,F  13)          107.3405         0.387883   
     48. A(C   3,C   2,F  14)          109.1587         0.386784   
     49. A(F  15,C   3,F  16)          109.2595         0.427007   
     50. A(C   2,C   3,C   4)          112.6559         0.351734   
     51. A(C   4,C   3,F  15)          110.4668         0.387282   
     52. A(C   2,C   3,F  15)          107.1682         0.387508   
     53. A(C   4,C   3,F  16)          109.4458         0.386499   
     54. A(C   2,C   3,F  16)          107.7470         0.386724   
     55. A(C   3,C   4,F  18)          107.3682         0.385890   
     56. A(C   5,C   4,F  17)          110.6326         0.386712   
     57. A(C   3,C   4,F  17)          106.8213         0.386681   
     58. A(C   3,C   4,C   5)          112.9589         0.351563   
     59. A(F  17,C   4,F  18)          108.9895         0.425634   
     60. A(C   5,C   4,F  18)          109.9216         0.385921   
     61. A(C   4,C   5,C   6)          113.9380         0.354615   
     62. A(F  19,C   5,F  20)          109.2091         0.424568   
     63. A(C   6,C   5,F  20)          110.9006         0.389596   
     64. A(C   4,C   5,F  20)          106.5622         0.386174   
     65. A(C   6,C   5,F  19)          109.8795         0.388932   
     66. A(C   4,C   5,F  19)          106.1374         0.385517   
     67. A(C   5,C   6,C   7)          112.9578         0.348903   
     68. A(F  21,C   6,F  22)          106.6335         0.415450   
     69. A(C   7,C   6,F  22)          113.1920         0.375779   
     70. A(C   5,C   6,F  22)          106.5420         0.385457   
     71. A(C   7,C   6,F  21)          110.3532         0.375197   
     72. A(C   5,C   6,F  21)          106.7446         0.384856   
     73. A(O  23,C   7,O  24)          133.8297         0.508781   
     74. A(C   6,C   7,O  24)          111.8150         0.413089   
     75. A(C   6,C   7,O  23)          114.3410         0.414652   
     76. A(C   7,O  23,H  28)          172.5992         0.232430   
     77. A(C   7,O  24,H  27)          173.6796         0.231741   
     78. A(H  26,O  25,H  27)          103.7396         0.319780   
     79. A(O  24,H  27,O  25)          170.1504         0.195092   
     80. L(O  23,H  28,O  29,H  30, 2) 175.8870         0.195092   
     81. L(O  23,H  28,O  29,H  30, 1) 178.2261         0.195092   
     82. A(H  28,O  29,H  30)          103.7396         0.319780   
     83. D(C   2,C   1,C   0,F  10)    168.2729         0.009705   
     84. D(F  11,C   1,C   0,F   9)     49.4768         0.009705   
     85. D(F  11,C   1,C   0,F   8)    171.0207         0.009705   
     86. D(F  11,C   1,C   0,F  10)    -69.7011         0.009705   
     87. D(C   2,C   1,C   0,F   9)    -72.5492         0.009705   
     88. D(C   2,C   1,C   0,F   8)     48.9947         0.009705   
     89. D(C   3,C   2,C   1,C   0)    162.7875         0.009500   
     90. D(F  13,C   2,C   1,F  11)    164.2939         0.009500   
     91. D(F  13,C   2,C   1,C   0)    -75.4998         0.009500   
     92. D(F  13,C   2,C   1,F  12)     44.1537         0.009500   
     93. D(C   3,C   2,C   1,F  11)     42.5812         0.009500   
     94. D(C   3,C   2,C   1,F  12)    -77.5590         0.009500   
     95. D(C   4,C   3,C   2,F  13)     42.1846         0.009364   
     96. D(C   4,C   3,C   2,F  14)    -77.7232         0.009364   
     97. D(C   4,C   3,C   2,C   1)    162.1720         0.009364   
     98. D(F  15,C   3,C   2,F  14)     43.9807         0.009364   
     99. D(F  15,C   3,C   2,F  13)    163.8885         0.009364   
    100. D(F  15,C   3,C   2,C   1)    -76.1241         0.009364   
    101. D(F  17,C   4,C   3,F  16)     43.8732         0.009308   
    102. D(F  17,C   4,C   3,F  15)    164.2137         0.009308   
    103. D(F  17,C   4,C   3,C   2)    -75.9715         0.009308   
    104. D(C   5,C   4,C   3,F  16)    -77.9884         0.009308   
    105. D(C   5,C   4,C   3,F  15)     42.3521         0.009308   
    106. D(C   5,C   4,C   3,C   2)    162.1669         0.009308   
    107. D(F  19,C   5,C   4,F  18)     44.0726         0.009315   
    108. D(F  19,C   5,C   4,F  17)    164.4895         0.009315   
    109. D(F  19,C   5,C   4,C   3)    -75.8189         0.009315   
    110. D(C   6,C   5,C   4,F  18)    -76.9753         0.009315   
    111. D(C   6,C   5,C   4,F  17)     43.4416         0.009315   
    112. D(C   6,C   5,C   4,C   3)    163.1331         0.009315   
    113. D(C   7,C   6,C   5,C   4)    164.0956         0.010222   
    114. D(F  21,C   6,C   5,F  20)     45.7788         0.010222   
    115. D(F  21,C   6,C   5,F  19)    166.6154         0.010222   
    116. D(F  21,C   6,C   5,C   4)    -74.4447         0.010222   
    117. D(C   7,C   6,C   5,F  20)    -75.6808         0.010222   
    118. D(C   7,C   6,C   5,F  19)     45.1557         0.010222   
    119. D(O  24,C   7,C   6,F  21)    -70.5516         0.007386   
    120. D(O  24,C   7,C   6,C   5)     48.8461         0.007386   
    121. D(O  23,C   7,C   6,F  22)    -11.1459         0.007386   
    122. D(O  23,C   7,C   6,F  21)    108.2663         0.007386   
    123. D(O  23,C   7,C   6,C   5)   -132.3360         0.007386   
    124. D(H  28,O  23,C   7,O  24)   -156.6482         0.082309   
    125. D(H  28,O  23,C   7,C   6)     24.8732         0.082309   
    126. D(H  27,O  24,C   7,O  23)   -158.3762         0.078375   
    127. D(H  27,O  24,C   7,C   6)     20.1307         0.078375   
    128. D(O  24,H  27,O  25,H  26)    -44.6419         0.289652   
    129. D(O  25,H  27,O  24,C   7)    180.0000         0.001625   
    130. D(H  30,O  29,O  23,C   7)    137.7355         0.001500   
    -----------------------------------------------------------------

Number of atoms                         .... 31
Number of degrees of freedom            .... 130


         *************************************************************
         *                GEOMETRY OPTIMIZATION CYCLE   1            *
         *************************************************************
---------------------------------
CARTESIAN COORDINATES (ANGSTROEM)
---------------------------------
  C      7.061481   27.780531    3.106577
  C      6.358245   26.583376    2.416993
  C      7.290740   25.361616    2.191471
  C      6.503817   24.050509    1.905928
  C      7.390082   22.949037    1.254849
  C      6.769591   21.526081    1.366224
  C      7.389882   20.495444    0.400530
  C      7.047595   19.000381    0.790288
  F      8.211007   28.061335    2.509443
  F      7.286981   27.526354    4.384783
  F      6.271789   28.845446    3.024206
  F      5.320619   26.239800    3.188368
  F      5.906996   27.014764    1.236218
  F      8.092106   25.656498    1.162789
  F      8.034092   25.196970    3.293179
  F      6.010695   23.624430    3.072510
  F      5.491632   24.352957    1.082461
  F      7.554810   23.292707   -0.028459
  F      8.581823   22.977689    1.870992
  F      6.960327   21.133943    2.637028
  F      5.455182   21.663435    1.139466
  F      6.910797   20.782537   -0.839488
  F      8.723371   20.748083    0.370021
  O      8.017942   18.242247    0.795073
  O      5.838756   18.846146    1.003746
  O      3.022590   18.615378    1.418470
  H      2.921134   17.670398    1.249413
  H      3.952271   18.785006    1.221544
  H      9.651245   17.272645    0.841920
  O     10.455175   16.738288    0.846179
  H     10.221450   15.976809    1.391507

----------------------------
CARTESIAN COORDINATES (A.U.)
----------------------------
  NO LB      ZA    FRAG     MASS         X           Y           Z
   0 C     6.0000    0    12.011   13.344265   52.497595    5.870579
   1 C     6.0000    0    12.011   12.015341   50.235300    4.567454
   2 C     6.0000    0    12.011   13.777502   47.926508    4.141279
   3 C     6.0000    0    12.011   12.290433   45.448875    3.601681
   4 C     6.0000    0    12.011   13.965231   43.367395    2.371320
   5 C     6.0000    0    12.011   12.792673   40.678398    2.581789
   6 C     6.0000    0    12.011   13.964853   38.730776    0.756891
   7 C     6.0000    0    12.011   13.318024   35.905516    1.493427
   8 F     9.0000    0    18.998   15.516554   53.028238    4.742159
   9 F     9.0000    0    18.998   13.770398   52.017270    8.286038
  10 F     9.0000    0    18.998   11.851963   54.509993    5.714920
  11 F     9.0000    0    18.998   10.054512   49.586036    6.025142
  12 F     9.0000    0    18.998   11.162604   51.050505    2.336113
  13 F     9.0000    0    18.998   15.291864   48.483755    2.197352
  14 F     9.0000    0    18.998   15.182233   47.615373    6.223206
  15 F     9.0000    0    18.998   11.358567   44.643703    5.806202
  16 F     9.0000    0    18.998   10.377680   46.020419    2.045554
  17 F     9.0000    0    18.998   14.276522   44.016837   -0.053780
  18 F     9.0000    0    18.998   16.217295   43.421539    3.535662
  19 F     9.0000    0    18.998   13.153111   39.937364    4.983260
  20 F     9.0000    0    18.998   10.308800   40.937959    2.153278
  21 F     9.0000    0    18.998   13.059513   39.273303   -1.586403
  22 F     9.0000    0    18.998   16.484782   39.208195    0.699238
  23 O     8.0000    0    15.999   15.151714   34.472851    1.502470
  24 O     8.0000    0    15.999   11.033649   35.614055    1.896804
  25 O     8.0000    0    15.999    5.711867   35.177966    2.680519
  26 H     1.0000    0     1.008    5.520143   33.392213    2.361048
  27 H     1.0000    0     1.008    7.468709   35.498517    2.308383
  28 H     1.0000    0     1.008   18.238209   32.640569    1.590998
  29 O     8.0000    0    15.999   19.757417   31.630780    1.599046
  30 H     1.0000    0     1.008   19.315740   30.191794    2.629568

--------------------------------
INTERNAL COORDINATES (ANGSTROEM)
--------------------------------
 C      0   0   0     0.000000000000     0.00000000     0.00000000
 C      1   0   0     1.550240967971     0.00000000     0.00000000
 C      2   1   0     1.553417070561   113.55533844     0.00000000
 C      3   2   1     1.555565549319   112.69827683   162.78749478
 C      4   3   2     1.556473604418   112.65593685   162.17204174
 C      5   4   3     1.556347406475   112.95890429   162.16693919
 C      6   5   4     1.542575266263   113.93798420   163.13314068
 C      7   6   5     1.582493305800   112.95775891   164.09560104
 F      1   2   3     1.325454610708   110.89295443    48.99470066
 F      1   2   3     1.322598493786   111.02821211   287.45080856
 F      1   2   3     1.328323151093   108.77385697   168.27294708
 F      2   1   3     1.337808496862   107.07872998   122.02597894
 F      2   1   3     1.335646235786   107.28270546   239.27402584
 F      3   2   1     1.336910437166   107.34054952   284.50021141
 F      3   2   1     1.339194167581   108.08730739    42.06766241
 F      4   3   2     1.336273244456   107.16821115   283.87589533
 F      4   3   2     1.339436884298   107.74698212    41.35047990
 F      5   4   3     1.338702284210   106.82131950   284.02853646
 F      5   4   3     1.341901540589   107.36821732    40.81959257
 F      6   5   4     1.343538328131   106.13743735   284.18106314
 F      6   5   4     1.340878939786   106.56217547    40.50128759
 F      7   6   5     1.359996128008   106.74461671   285.55525164
 F      7   6   5     1.357553010576   106.54195382    39.20780969
 O      8   7   6     1.231407064536   114.34099629   227.66396244
 O      8   7   6     1.237192176224   111.81500307    48.84611502
 O     25   8   7     2.855878164494   176.99440113    20.13066459
 H     26  25   8     0.965328927296    99.05067288   136.27702780
 H     26  25   8     0.965328927795     6.53484144     0.00000000
 H     24   8   7     1.900000000463   172.59922467    24.87320924
 O     29  24   8     0.965328927419   176.86204995   192.48080421
 H     30  29  24     0.965328928642   103.73958492   302.80250789

---------------------------
INTERNAL COORDINATES (A.U.)
---------------------------
 C      0   0   0     0.000000000000     0.00000000     0.00000000
 C      1   0   0     2.929530871051     0.00000000     0.00000000
 C      2   1   0     2.935532835118   113.55533844     0.00000000
 C      3   2   1     2.939592871575   112.69827683   162.78749478
 C      4   3   2     2.941308847027   112.65593685   162.17204174
 C      5   4   3     2.941070367477   112.95890429   162.16693919
 C      6   5   4     2.915044794197   113.93798420   163.13314068
 C      7   6   5     2.990478956726   112.95775891   164.09560104
 F      1   2   3     2.504746217182   110.89295443    48.99470066
 F      1   2   3     2.499348938392   111.02821211   287.45080856
 F      1   2   3     2.510166972913   108.77385697   168.27294708
 F      2   1   3     2.528091678703   107.07872998   122.02597894
 F      2   1   3     2.524005597439   107.28270546   239.27402584
 F      3   2   1     2.526394591825   107.34054952   284.50021141
 F      3   2   1     2.530710216873   108.08730739    42.06766241
 F      4   3   2     2.525190472108   107.16821115   283.87589533
 F      4   3   2     2.531168884996   107.74698212    41.35047990
 F      5   4   3     2.529780692011   106.82131950   284.02853646
 F      5   4   3     2.535826410399   107.36821732    40.81959257
 F      6   5   4     2.538919490593   106.13743735   284.18106314
 F      6   5   4     2.533893974938   106.56217547    40.50128759
 F      7   6   5     2.570020225129   106.74461671   285.55525164
 F      7   6   5     2.565403402268   106.54195382    39.20780969
 O      8   7   6     2.327022111350   114.34099629   227.66396244
 O      8   7   6     2.337954388093   111.81500307    48.84611502
 O     25   8   7     5.396827602739   176.99440113    20.13066459
 H     26  25   8     1.824207301742    99.05067288   136.27702780
 H     26  25   8     1.824207302685     6.53484144     0.00000000
 H     24   8   7     3.590479655325   172.59922467    24.87320924
 O     29  24   8     1.824207301974   176.86204995   192.48080421
 H     30  29  24     1.824207304285   103.73958492   302.80250789

---------------------
BASIS SET INFORMATION
---------------------
There are 4 groups of distinct atoms

 Group   1 Type C   : 11s6p2d1f contracted to 5s3p2d1f pattern {62111/411/11/1}
 Group   2 Type F   : 11s6p2d1f contracted to 5s3p2d1f pattern {62111/411/11/1}
 Group   3 Type O   : 11s6p2d1f contracted to 5s3p2d1f pattern {62111/411/11/1}
 Group   4 Type H   : 5s1p contracted to 3s1p pattern {311/1}

Atom   0C    basis set group =>   1
Atom   1C    basis set group =>   1
Atom   2C    basis set group =>   1
Atom   3C    basis set group =>   1
Atom   4C    basis set group =>   1
Atom   5C    basis set group =>   1
Atom   6C    basis set group =>   1
Atom   7C    basis set group =>   1
Atom   8F    basis set group =>   2
Atom   9F    basis set group =>   2
Atom  10F    basis set group =>   2
Atom  11F    basis set group =>   2
Atom  12F    basis set group =>   2
Atom  13F    basis set group =>   2
Atom  14F    basis set group =>   2
Atom  15F    basis set group =>   2
Atom  16F    basis set group =>   2
Atom  17F    basis set group =>   2
Atom  18F    basis set group =>   2
Atom  19F    basis set group =>   2
Atom  20F    basis set group =>   2
Atom  21F    basis set group =>   2
Atom  22F    basis set group =>   2
Atom  23O    basis set group =>   3
Atom  24O    basis set group =>   3
Atom  25O    basis set group =>   3
Atom  26H    basis set group =>   4
Atom  27H    basis set group =>   4
Atom  28H    basis set group =>   4
Atom  29O    basis set group =>   3
Atom  30H    basis set group =>   4
---------------------------------
AUXILIARY/J BASIS SET INFORMATION
---------------------------------
There are 4 groups of distinct atoms

 Group   1 Type C   : 12s5p4d2f1g contracted to 6s4p3d1f1g pattern {711111/2111/211/2/1}
 Group   2 Type F   : 12s5p4d2f1g contracted to 6s4p3d1f1g pattern {711111/2111/211/2/1}
 Group   3 Type O   : 12s5p4d2f1g contracted to 6s4p3d1f1g pattern {711111/2111/211/2/1}
 Group   4 Type H   : 5s2p1d contracted to 3s1p1d pattern {311/2/1}

Atom   0C    basis set group =>   1
Atom   1C    basis set group =>   1
Atom   2C    basis set group =>   1
Atom   3C    basis set group =>   1
Atom   4C    basis set group =>   1
Atom   5C    basis set group =>   1
Atom   6C    basis set group =>   1
Atom   7C    basis set group =>   1
Atom   8F    basis set group =>   2
Atom   9F    basis set group =>   2
Atom  10F    basis set group =>   2
Atom  11F    basis set group =>   2
Atom  12F    basis set group =>   2
Atom  13F    basis set group =>   2
Atom  14F    basis set group =>   2
Atom  15F    basis set group =>   2
Atom  16F    basis set group =>   2
Atom  17F    basis set group =>   2
Atom  18F    basis set group =>   2
Atom  19F    basis set group =>   2
Atom  20F    basis set group =>   2
Atom  21F    basis set group =>   2
Atom  22F    basis set group =>   2
Atom  23O    basis set group =>   3
Atom  24O    basis set group =>   3
Atom  25O    basis set group =>   3
Atom  26H    basis set group =>   4
Atom  27H    basis set group =>   4
Atom  28H    basis set group =>   4
Atom  29O    basis set group =>   3
Atom  30H    basis set group =>   4


           ************************************************************
           *        Program running with 20 parallel MPI-processes    *
           *              working on a common directory               *
           ************************************************************
------------------------------------------------------------------------------
                             ORCA STARTUP CALCULATIONS
                           -- RI-GTO INTEGRALS CHOSEN --
------------------------------------------------------------------------------
------------------------------------------------------------------------------
                   ___                                                        
                  /   \      - P O W E R E D   B Y -                         
                 /     \                                                     
                 |  |  |   _    _      __       _____    __    __             
                 |  |  |  | |  | |    /  \     |  _  \  |  |  /  |          
                  \  \/   | |  | |   /    \    | | | |  |  | /  /          
                 / \  \   | |__| |  /  /\  \   | |_| |  |  |/  /          
                |  |  |   |  __  | /  /__\  \  |    /   |      \           
                |  |  |   | |  | | |   __   |  |    \   |  |\   \          
                \     /   | |  | | |  |  |  |  | |\  \  |  | \   \       
                 \___/    |_|  |_| |__|  |__|  |_| \__\ |__|  \__/        
                                                                              
                      - O R C A' S   B I G   F R I E N D -                    
                                      &                                       
                       - I N T E G R A L  F E E D E R -                       
                                                                              
 v1 FN, 2020, v2 2021, v3 2022-2024                                           
------------------------------------------------------------------------------


----------------------
SHARK INTEGRAL PACKAGE
----------------------

Number of atoms                             ...     31
Number of basis functions                   ...    861
Number of shells                            ...    313
Maximum angular momentum                    ...      3
Integral batch strategy                     ... SHARK/LIBINT Hybrid
RI-J (if used) integral strategy            ... SPLIT-RIJ (Revised 2003 algorithm where possible)
Printlevel                                  ...      1
Contraction scheme used                     ... SEGMENTED contraction
Prescreening option                         ... SCHWARTZ
   Thresh                                   ... 2.500e-11
   Tcut                                     ... 2.500e-12
   Tpresel                                  ... 2.500e-12 
Coulomb Range Separation                    ... NOT USED
Exchange Range Separation                   ... NOT USED
Multipole approximations                    ... NOT USED
Finite Nucleus Model                        ... NOT USED
CABS basis                                  ... NOT available
Auxiliary Coulomb fitting basis             ... AVAILABLE
   # of basis functions in Aux-J            ...   1367
   # of shells in Aux-J                     ...    425
   Maximum angular momentum in Aux-J        ...      4
Auxiliary J/K fitting basis                 ... NOT available
Auxiliary Correlation fitting basis         ... NOT available
Auxiliary 'external' fitting basis          ... NOT available

Checking pre-screening integrals            ... done (  0.0 sec) Dimension = 313
Check shell pair data                       ... done (  0.0 sec)
Shell pair information
Shell pair cut-off parameter TPreSel        ...   2.5e-12
Total number of shell pairs                 ...     49141
Shell pairs after pre-screening             ...     27192
Total number of primitive shell pairs       ...    159936
Primitive shell pairs kept                  ...     56401
          la=0 lb=0:   5438 shell pairs
          la=1 lb=0:   7571 shell pairs
          la=1 lb=1:   2560 shell pairs
          la=2 lb=0:   3977 shell pairs
          la=2 lb=1:   2845 shell pairs
          la=2 lb=2:    769 shell pairs
          la=3 lb=0:   1804 shell pairs
          la=3 lb=1:   1357 shell pairs
          la=3 lb=2:    701 shell pairs
          la=3 lb=3:    170 shell pairs

Calculating one electron integrals          ... done (  0.0 sec)
Calculating RI/J V-Matrix + Cholesky decomp.... done (  0.1 sec)
Calculating Nuclear repulsion               ... done (  0.0 sec) ENN=   3250.117469041217 Eh

Diagonalization of the overlap matrix:
Smallest eigenvalue                        ... 5.042e-05
Time for diagonalization                   ...    0.148 sec
Threshold for overlap eigenvalues          ... 1.000e-07
Number of eigenvalues below threshold      ... 0
Time for construction of square roots      ...    0.069 sec
Total time needed                          ...    0.224 sec

-------------------
DFT GRID GENERATION
-------------------

General Integration Accuracy     IntAcc      ... 4.388
Radial Grid Type                 RadialGrid  ... OptM3 with GC (2021)
Angular Grid (max. ang.)         AngularGrid ... 4 (Lebedev-302)
Angular grid pruning method      GridPruning ... 4 (adaptive)
Weight generation scheme         WeightScheme... mBecke (2022)
Basis function cutoff            BFCut       ... 1.0000e-11
Integration weight cutoff        WCut        ... 1.0000e-14
Partially contracted basis set               ... off
Rotationally invariant grid construction     ... off
Angular grids for H and He will be reduced by one unit

Total number of grid points                  ...   176704
Total number of batches                      ...     2775
Average number of points per batch           ...       63
Average number of grid points per atom       ...     5700

--------------------
COSX GRID GENERATION
--------------------

GRIDX 1
-------
General Integration Accuracy     IntAcc      ... 3.816
Radial Grid Type                 RadialGrid  ... OptM3 with GC (2021)
Angular Grid (max. ang.)         AngularGrid ... 1 (Lebedev-50)
Angular grid pruning method      GridPruning ... 4 (adaptive)
Weight generation scheme         WeightScheme... mBecke (2022)
Basis function cutoff            BFCut       ... 1.0000e-11
Integration weight cutoff        WCut        ... 1.0000e-14
Partially contracted basis set               ... on
Rotationally invariant grid construction     ... off
Angular grids for H and He will be reduced by one unit

Total number of grid points                  ...    22295
Total number of batches                      ...      187
Average number of points per batch           ...      119
Average number of grid points per atom       ...      719
UseSFitting                                  ... on

GRIDX 2
-------
General Integration Accuracy     IntAcc      ... 4.020
Radial Grid Type                 RadialGrid  ... OptM3 with GC (2021)
Angular Grid (max. ang.)         AngularGrid ... 2 (Lebedev-110)
Angular grid pruning method      GridPruning ... 4 (adaptive)
Weight generation scheme         WeightScheme... mBecke (2022)
Basis function cutoff            BFCut       ... 1.0000e-11
Integration weight cutoff        WCut        ... 1.0000e-14
Partially contracted basis set               ... on
Rotationally invariant grid construction     ... off
Angular grids for H and He will be reduced by one unit

Total number of grid points                  ...    51718
Total number of batches                      ...      420
Average number of points per batch           ...      123
Average number of grid points per atom       ...     1668
UseSFitting                                  ... on

GRIDX 3
-------
General Integration Accuracy     IntAcc      ... 4.338
Radial Grid Type                 RadialGrid  ... OptM3 with GC (2021)
Angular Grid (max. ang.)         AngularGrid ... 3 (Lebedev-194)
Angular grid pruning method      GridPruning ... 4 (adaptive)
Weight generation scheme         WeightScheme... mBecke (2022)
Basis function cutoff            BFCut       ... 1.0000e-11
Integration weight cutoff        WCut        ... 1.0000e-14
Partially contracted basis set               ... on
Rotationally invariant grid construction     ... off
Angular grids for H and He will be reduced by one unit

Total number of grid points                  ...   114352
Total number of batches                      ...      907
Average number of points per batch           ...      126
Average number of grid points per atom       ...     3689
UseSFitting                                  ... on
Initializing property integral containers    ... done (  0.0 sec)

SHARK setup successfully completed in   3.4 seconds

Maximum memory used throughout the entire STARTUP-calculation: 68.0 MB


           ************************************************************
           *        Program running with 20 parallel MPI-processes    *
           *              working on a common directory               *
           ************************************************************
-------------------------------------------------------------------------------
                                 ORCA GUESS
                   Start orbitals & Density for SCF / CASSCF
-------------------------------------------------------------------------------

------------
SCF SETTINGS
------------
Hamiltonian:
 Density Functional     Method          .... DFT(GTOs)
  Functional kind                       .... Exchange
  Functional name                       .... Re-regularized SCAN exchange by Furness et al
  Functional family                     .... MGGA
  Functional refs                              
    [ 0] J. W. Furness, A. D. Kaplan, J. Ning, J. P. Perdew, and J. Sun.,  J. Phys. Chem. Lett. 11, 8208-8215 (2020), doi: 10.1021/acs.jpclett.0c02405
    [ 1] J. W. Furness, A. D. Kaplan, J. Ning, J. P. Perdew, and J. Sun.,  J. Phys. Chem. Lett. 11, 9248-9248 (2020), doi: 10.1021/acs.jpclett.0c03077
  Functional external parameters        .... 6
    Parameter  0 _c1        =  6.670000e-01 : c1 parameter        
    Parameter  1 _c2        =  8.000000e-01 : c2 parameter        
    Parameter  2 _d         =  1.240000e+00 : d parameter         
    Parameter  3 _k1        =  6.500000e-02 : k1 parameter        
    Parameter  4 _eta       =  1.000000e-03 : eta parameter       
    Parameter  5 _dp2       =  3.610000e-01 : dp2 parameter       
  Functional kind                       .... Correlation
  Functional name                       .... Re-regularized SCAN correlation by Furness et al
  Functional family                     .... MGGA
  Functional refs                              
    [ 0] J. W. Furness, A. D. Kaplan, J. Ning, J. P. Perdew, and J. Sun.,  J. Phys. Chem. Lett. 11, 8208-8215 (2020), doi: 10.1021/acs.jpclett.0c02405
    [ 1] J. W. Furness, A. D. Kaplan, J. Ning, J. P. Perdew, and J. Sun.,  J. Phys. Chem. Lett. 11, 9248-9248 (2020), doi: 10.1021/acs.jpclett.0c03077
  Functional external parameters        .... 1
    Parameter  0 _eta       =  1.000000e-03 : Regularization parameter
 Gradients option       PostSCFGGA      .... off
 Hybrid DFT is turned on
   Fraction HF Exchange ScalHFX         ....  0.100000
   Scaling of DF-GGA-X  ScalDFX         ....  0.900000
   Scaling of DF-GGA-C  ScalDFC         ....  1.000000
   Scaling of DF-LDA-C  ScalLDAC        ....  1.000000
   Perturbative correction              ....  0.000000
   NL short-range parameter             .... 11.900000
 RI-approximation to the Coulomb term is turned on
   Number of AuxJ basis functions       .... 1367
   RIJ-COSX (HFX calculated with COS-X)).... on


General Settings:
 Integral files         IntName         .... rf_mecn_2H2O_opt_r2s_con_001
 Hartree-Fock type      HFTyp           .... RHF
 Total Charge           Charge          ....   -1
 Multiplicity           Mult            ....    1
 Number of Electrons    NEL             ....  220
 Basis Dimension        Dim             ....  861
 Nuclear Repulsion      ENuc            ....   3250.1174690412 Eh

Convergence Acceleration:
 AO-DIIS                CNVDIIS         .... on
   Start iteration      DIISMaxIt       ....     0
   Startup error        DIISStart       ....  0.200000
   # of expansion vecs  DIISMaxEq       ....     5
   Bias factor          DIISBfac        ....   1.050
   Max. coefficient     DIISMaxC        ....  10.000
 MO-DIIS                CNVKDIIS        .... off
 Trust-Rad. Augm. Hess. CNVTRAH         .... auto
   Auto Start mean grad. ratio tolernc. ....  1.125000
   Auto Start start iteration           ....    50
   Auto Start num. interpolation iter.  ....    10
   Max. Number of Micro iterations      ....    24
   Max. Number of Macro iterations      .... Maxiter - #DIIS iter
   Number of Davidson start vectors     ....     2
   Converg. threshold    (grad. norm)   ....   1.000e-05
   Grad. Scal. Fac. for Micro threshold ....   0.100
   Minimum threshold for Micro iter.    ....   1.000e-02
   NR start threshold (gradient norm)   ....   1.000e-04
   Initial trust radius                 ....   0.400
   Minimum AH scaling param. (alpha)    ....   1.000
   Maximum AH scaling param. (alpha)    .... 1000.000
   Quad. conv. algorithm                .... NR
   White noise on init. David. guess    .... on
   Maximum white noise                  ....   0.010
   Pseudo random numbers                .... off
   Inactive MOs                         .... canonical
   Orbital update algorithm             .... Taylor
   Preconditioner                       .... Diag
   Full preconditioner red. dimension   ....   250
 SOSCF                  CNVSOSCF        .... on
   Start iteration      SOSCFMaxIt      ....   150
   Startup grad/error   SOSCFStart      ....  0.001000
   Hessian update       SOSCFHessUp     .... L-BFGS
 Level Shifting         CNVShift        .... on
   Level shift para.    LevelShift      ....    0.2500
   Turn off err/grad.   ShiftErr        ....    0.0000
 Zerner damping         CNVZerner       .... off
 Static damping         CNVDamp         .... on
   Fraction old density DampFac         ....    0.8500
   Max. Damping (<1)    DampMax         ....    0.9800
   Min. Damping (>=0)   DampMin         ....    0.0000
   Turn off err/grad.   DampErr         ....    0.0300

SCF Procedure:
 Maximum # iterations   MaxIter         ....  1500
 SCF integral mode      SCFMode         .... Direct
   Integral package                     .... SHARK and LIBINT hybrid scheme
 Reset frequency        DirectResetFreq ....    20
 Integral Threshold     Thresh          ....  2.500e-11 Eh
 Primitive CutOff       TCut            ....  2.500e-12 Eh

Convergence Tolerance:
 Convergence Check Mode ConvCheckMode   .... Total+1el-Energy
 Convergence forced     ConvForced      .... 0
 Energy Change          TolE            ....  1.000e-08 Eh
 1-El. energy change                    ....  1.000e-05 Eh
 Orbital Gradient       TolG            ....  1.000e-05
 Orbital Rotation angle TolX            ....  1.000e-05
 DIIS Error             TolErr          ....  5.000e-07

------------------------------
INITIAL GUESS: MODEL POTENTIAL
------------------------------
Loading Hartree-Fock densities                     ... done
Calculating cut-offs                               ... done
Initializing the effective Hamiltonian             ... done
Setting up the integral package (SHARK)            ... done
Starting the Coulomb interaction                   ... done (   0.2 sec)
Making the grid                                    ... done (   0.5 sec)
Mapping shells                                     ... done
Starting the XC term evaluation                    ... done (   0.2 sec)
  promolecular density results
     # of electrons  =    218.998411492
     EX              =   -224.782579629
     EC              =     -7.659009825
     EX+EC           =   -232.441589455
Transforming the Hamiltonian                       ... done (   0.1 sec)
Diagonalizing the Hamiltonian                      ... done (   0.2 sec)
Back transforming the eigenvectors                 ... done (   0.0 sec)
Now organizing SCF variables                       ... done
                      ------------------
                      INITIAL GUESS DONE (   1.2 sec)
                      ------------------
             **** ENERGY FILE WAS UPDATED (rf_mecn_2H2O_opt_r2s_con_001.en.tmp) ****
Finished Guess after   1.8 sec
Maximum memory used throughout the entire GUESS-calculation: 56.2 MB


           ************************************************************
           *        Program running with 20 parallel MPI-processes    *
           *              working on a common directory               *
           ************************************************************

-------------------------------------------------------------------------------------------
                                      ORCA LEAN-SCF
                              memory conserving SCF solver
-------------------------------------------------------------------------------------------

--------------------
CPCM SOLVATION MODEL
--------------------
CPCM parameters:
  Epsilon                                         ...      35.6880
  Refrac                                          ...       1.3442
  Rsolv                                           ...       1.3000
  Surface type                                    ... GAUSSIAN VDW
  Discretization scheme                           ... Constant charge density
    Threshold for H atoms                         ...       5.0000 (charges/Ang^2)
    Threshold for non-H atoms                     ...       5.0000 (charges/Ang^2)
  Epsilon function type                           ...         CPCM
Solvent:                                          ... ACETONITRILE
SMD-CDS solvent descriptors:
  Soln                                            ...       1.3442
  Soln25                                          ...       1.3416
  Sola                                            ...       0.0700
  Solb                                            ...       0.3200
  Solg                                            ...      41.2500
  Solc                                            ...       0.0000
  Solh                                            ...       0.0000
Radii:
  Scheme                                          ... Element-dependent radii
  Radius for C  used is    3.4960 Bohr (=   1.8500 Ang.)
  Radius for F  used is    3.2692 Bohr (=   1.7300 Ang.)
  Radius for O  used is    4.0969 Bohr (=   2.1680 Ang.)
  Radius for H  used is    2.2677 Bohr (=   1.2000 Ang.)
Calculating surface                               ...        done! (  0.0s)
Cavity surface points                             ...         2638
Cavity Volume                                     ...    2625.5818
Cavity Surface-area                               ...    1382.6254
Calculating surface distance matrix               ...        done! (  0.1s)
Performing Cholesky decomposition & store         ...        done! (  0.1s)
Overall time for CPCM initialization              ...                 0.2s

----------------------------------------D-I-I-S--------------------------------------------
Iteration    Energy (Eh)           Delta-E    RMSDP     MaxDP     DIISErr   Damp  Time(sec)
-------------------------------------------------------------------------------------------
               ***  Starting incremental Fock matrix formation  ***
    1    -2105.2704700926510668     0.00e+00  4.82e-04  6.64e-02  3.24e-01  0.850   7.0
Warning: op=0 Small HOMO/LUMO gap (   0.078) - skipping pre-diagonalization
         Will do a full diagonalization
    2    -2105.4514102863754488    -1.81e-01  5.97e-04  1.34e-01  2.30e-01  0.850   4.4
                               ***Turning on AO-DIIS***
    3    -2105.5532293139181093    -1.02e-01  2.99e-04  6.14e-02  1.46e-01  0.850   4.0
    4    -2105.6153016074708830    -6.21e-02  1.66e-04  2.38e-02  1.11e-01  0.850   3.8
    5    -2105.6596025114927215    -4.43e-02  1.12e-04  8.73e-03  9.06e-02  0.850   3.8
    6    -2105.6945592103961644    -3.50e-02  8.91e-05  8.25e-03  7.66e-02  0.850   3.6
    7    -2105.7234219752076569    -2.89e-02  7.79e-05  7.45e-03  6.55e-02  0.850   3.4
    8    -2105.7476047717423171    -2.42e-02  6.78e-05  6.51e-03  5.56e-02  0.850   3.5
    9    -2105.7677227607778150    -2.01e-02  5.76e-05  5.57e-03  4.64e-02  0.850   3.4
   10    -2105.7844079037145093    -1.67e-02  4.86e-05  4.74e-03  3.85e-02  0.850   3.3
   11    -2105.7982899477779029    -1.39e-02  4.10e-05  4.04e-03  3.21e-02  0.850   3.3
   12    -2105.8098928710974178    -1.16e-02  3.47e-05  3.46e-03  2.69e-02  0.850   3.4
   13    -2105.8196255398684116    -9.73e-03  1.97e-04  1.98e-02  2.26e-02  0.000   3.3
   14    -2105.8727387049416393    -5.31e-02  1.17e-05  2.27e-03  1.97e-03  0.000   3.7
                              *** Initializing SOSCF ***
---------------------------------------S-O-S-C-F--------------------------------------
Iteration    Energy (Eh)           Delta-E    RMSDP     MaxDP     MaxGrad    Time(sec)
--------------------------------------------------------------------------------------
   15    -2105.8727603921229274    -2.17e-05  6.16e-06  1.25e-03  4.54e-04     3.4
               *** Restarting incremental Fock matrix formation ***
   16    -2105.8727357085167569     2.47e-05  4.35e-06  5.34e-04  8.45e-05     6.8
   17    -2105.8727355043552052     2.04e-07  1.18e-06  1.06e-04  1.20e-04     3.8
   18    -2105.8727359654935753    -4.61e-07  7.33e-07  1.65e-04  7.97e-06     3.4
   19    -2105.8727359606959908     4.80e-09  3.43e-07  6.32e-05  1.80e-05     3.0
                 **** Energy Check signals convergence ****

               *****************************************************
               *                     SUCCESS                       *
               *           SCF CONVERGED AFTER  19 CYCLES          *
               *****************************************************

Recomputing exchange energy using gridx3       ... done (    8.686 sec)
Old exchange energy                            :    -22.720094423 Eh
New exchange energy                            :    -22.720085375 Eh
Exchange energy change after final integration :      0.000009048 Eh
Total energy after final integration           :  -2105.872726912 Eh

SMD CDS free energy correction energy :                 2.87112     Kcal/mol
Total Energy after SMD CDS correction =             -2105.868151484 Eh
             **** ENERGY FILE WAS UPDATED (rf_mecn_2H2O_opt_r2s_con_001.en.tmp) ****

----------------
TOTAL SCF ENERGY
----------------

Total Energy       :      -2105.86815148439155 Eh          -57303.58566 eV

Components:
Nuclear Repulsion  :       3250.11746904121674 Eh           88440.19255 eV
Electronic Energy  :      -5355.91391328994268 Eh         -145741.82695 eV
One Electron Energy:      -9424.61411607393529 Eh         -256456.78811 eV
Two Electron Energy:       4068.70020278399261 Eh          110714.96116 eV
CPCM Dielectric    :         -0.07629171197002 Eh              -2.07600 eV
SMD CDS (Gcds)     :          0.00457542783860 Eh               0.12450 eV

Virial components:
Potential Energy   :      -4204.87169399668164 Eh         -114420.37581 eV
Kinetic Energy     :       2099.00354251228964 Eh           57116.79015 eV
Virial Ratio       :          2.00327041323803

DFT components:
N(Alpha)           :      109.999961728008 electrons
N(Beta)            :      109.999961728008 electrons
N(Total)           :      219.999923456017 electrons
E(X)               :     -205.559137885971 Eh       
E(C)               :       -7.626535435140 Eh       
E(XC)              :     -213.185673321111 Eh       

CPCM Solvation Model Properties:
Surface-charge          :          0.99074562371449
Corrected charge        :          1.00000000000000
Outlying charge corr.   :          0.00000416793341 Eh               0.00011 eV
Free-energy (cav+disp)  :          0.00457542783860 Eh               0.12450 eV

---------------
SCF CONVERGENCE
---------------

  Last Energy change         ...   -4.7976e-09  Tolerance :   1.0000e-08
  Last MAX-Density change    ...    6.3206e-05  Tolerance :   1.0000e-07
  Last RMS-Density change    ...    3.4265e-07  Tolerance :   5.0000e-09
  Last DIIS Error            ...    4.5429e-04  Tolerance :   5.0000e-07
  Last Orbital Gradient      ...    1.8017e-05  Tolerance :   1.0000e-05
  Last Orbital Rotation      ...    2.2178e-05  Tolerance :   1.0000e-05


----------------
ORBITAL ENERGIES
----------------

  NO   OCC          E(Eh)            E(eV) 
   0   2.0000     -24.731346      -672.9741 
   1   2.0000     -24.730997      -672.9646 
   2   2.0000     -24.730923      -672.9626 
   3   2.0000     -24.730170      -672.9421 
   4   2.0000     -24.730033      -672.9384 
   5   2.0000     -24.729282      -672.9180 
   6   2.0000     -24.728509      -672.8969 
   7   2.0000     -24.728338      -672.8923 
   8   2.0000     -24.727997      -672.8830 
   9   2.0000     -24.722924      -672.7450 
  10   2.0000     -24.722816      -672.7420 
  11   2.0000     -24.713545      -672.4898 
  12   2.0000     -24.713298      -672.4830 
  13   2.0000     -24.692848      -671.9265 
  14   2.0000     -24.692144      -671.9074 
  15   2.0000     -19.084370      -519.3121 
  16   2.0000     -19.084090      -519.3045 
  17   2.0000     -19.071372      -518.9584 
  18   2.0000     -19.069456      -518.9063 
  19   2.0000     -10.437608      -284.0218 
  20   2.0000     -10.383759      -282.5564 
  21   2.0000     -10.382523      -282.5228 
  22   2.0000     -10.380848      -282.4772 
  23   2.0000     -10.374121      -282.2942 
  24   2.0000     -10.361044      -281.9384 
  25   2.0000     -10.328709      -281.0585 
  26   2.0000     -10.255285      -279.0605 
  27   2.0000      -1.362393       -37.0726 
  28   2.0000      -1.339707       -36.4553 
  29   2.0000      -1.324069       -36.0297 
  30   2.0000      -1.315371       -35.7931 
  31   2.0000      -1.312150       -35.7054 
  32   2.0000      -1.301849       -35.4251 
  33   2.0000      -1.276441       -34.7337 
  34   2.0000      -1.274325       -34.6761 
  35   2.0000      -1.267561       -34.4921 
  36   2.0000      -1.265307       -34.4308 
  37   2.0000      -1.260240       -34.2929 
  38   2.0000      -1.256726       -34.1973 
  39   2.0000      -1.253393       -34.1066 
  40   2.0000      -1.243670       -33.8420 
  41   2.0000      -1.217721       -33.1359 
  42   2.0000      -1.050518       -28.5861 
  43   2.0000      -0.986955       -26.8564 
  44   2.0000      -0.985883       -26.8272 
  45   2.0000      -0.968977       -26.3672 
  46   2.0000      -0.844739       -22.9865 
  47   2.0000      -0.822720       -22.3873 
  48   2.0000      -0.793278       -21.5862 
  49   2.0000      -0.754553       -20.5324 
  50   2.0000      -0.711111       -19.3503 
  51   2.0000      -0.681817       -18.5532 
  52   2.0000      -0.665427       -18.1072 
  53   2.0000      -0.642026       -17.4704 
  54   2.0000      -0.637339       -17.3429 
  55   2.0000      -0.629446       -17.1281 
  56   2.0000      -0.620904       -16.8956 
  57   2.0000      -0.616560       -16.7774 
  58   2.0000      -0.615696       -16.7539 
  59   2.0000      -0.602941       -16.4068 
  60   2.0000      -0.598807       -16.2944 
  61   2.0000      -0.594900       -16.1881 
  62   2.0000      -0.587839       -15.9959 
  63   2.0000      -0.576320       -15.6825 
  64   2.0000      -0.573596       -15.6083 
  65   2.0000      -0.568004       -15.4562 
  66   2.0000      -0.563195       -15.3253 
  67   2.0000      -0.546157       -14.8617 
  68   2.0000      -0.504967       -13.7409 
  69   2.0000      -0.502448       -13.6723 
  70   2.0000      -0.500528       -13.6201 
  71   2.0000      -0.495703       -13.4888 
  72   2.0000      -0.494700       -13.4615 
  73   2.0000      -0.490880       -13.3575 
  74   2.0000      -0.486414       -13.2360 
  75   2.0000      -0.483336       -13.1522 
  76   2.0000      -0.479589       -13.0503 
  77   2.0000      -0.474240       -12.9047 
  78   2.0000      -0.469765       -12.7830 
  79   2.0000      -0.467422       -12.7192 
  80   2.0000      -0.465019       -12.6538 
  81   2.0000      -0.460262       -12.5244 
  82   2.0000      -0.457565       -12.4510 
  83   2.0000      -0.454195       -12.3593 
  84   2.0000      -0.447700       -12.1825 
  85   2.0000      -0.446195       -12.1416 
  86   2.0000      -0.438363       -11.9285 
  87   2.0000      -0.437554       -11.9065 
  88   2.0000      -0.434644       -11.8273 
  89   2.0000      -0.430987       -11.7277 
  90   2.0000      -0.429191       -11.6789 
  91   2.0000      -0.427246       -11.6260 
  92   2.0000      -0.425260       -11.5719 
  93   2.0000      -0.423458       -11.5229 
  94   2.0000      -0.421927       -11.4812 
  95   2.0000      -0.419338       -11.4108 
  96   2.0000      -0.412849       -11.2342 
  97   2.0000      -0.404314       -11.0019 
  98   2.0000      -0.403980       -10.9929 
  99   2.0000      -0.392084       -10.6691 
 100   2.0000      -0.387550       -10.5458 
 101   2.0000      -0.358015        -9.7421 
 102   2.0000      -0.355271        -9.6674 
 103   2.0000      -0.352168        -9.5830 
 104   2.0000      -0.324619        -8.8333 
 105   2.0000      -0.280493        -7.6326 
 106   2.0000      -0.279241        -7.5985 
 107   2.0000      -0.263231        -7.1629 
 108   2.0000      -0.250314        -6.8114 
 109   2.0000      -0.238174        -6.4811 
 110   0.0000      -0.011648        -0.3169 
 111   0.0000       0.001700         0.0463 
 112   0.0000       0.015789         0.4296 
 113   0.0000       0.048394         1.3169 
 114   0.0000       0.054783         1.4907 
 115   0.0000       0.073376         1.9967 
 116   0.0000       0.081660         2.2221 
 117   0.0000       0.096652         2.6300 
 118   0.0000       0.106696         2.9033 
 119   0.0000       0.115372         3.1394 
 120   0.0000       0.127379         3.4662 
*Only the first 10 virtual orbitals were printed.

                    ********************************
                    * MULLIKEN POPULATION ANALYSIS *
                    ********************************

-----------------------
MULLIKEN ATOMIC CHARGES
-----------------------
   0 C :    0.469090
   1 C :    0.328414
   2 C :    0.296116
   3 C :    0.322169
   4 C :    0.323676
   5 C :    0.335549
   6 C :    0.317570
   7 C :    0.272074
   8 F :   -0.156272
   9 F :   -0.154332
  10 F :   -0.156106
  11 F :   -0.162636
  12 F :   -0.160067
  13 F :   -0.163218
  14 F :   -0.164660
  15 F :   -0.163962
  16 F :   -0.166200
  17 F :   -0.168765
  18 F :   -0.171450
  19 F :   -0.183981
  20 F :   -0.178866
  21 F :   -0.208260
  22 F :   -0.203189
  23 O :   -0.512350
  24 O :   -0.535308
  25 O :   -0.741253
  26 H :    0.345166
  27 H :    0.369344
  28 H :    0.368275
  29 O :   -0.742393
  30 H :    0.345822
Sum of atomic charges:   -1.0000000

--------------------------------
MULLIKEN REDUCED ORBITAL CHARGES
--------------------------------
  0 C s       :     3.020078  s :     3.020078
      pz      :     0.669068  p :     2.110465
      px      :     0.664345
      py      :     0.777052
      dz2     :     0.065997  d :     0.359389
      dxz     :     0.080877
      dyz     :     0.075927
      dx2y2   :     0.070362
      dxy     :     0.066226
      f0      :     0.006332  f :     0.040979
      f+1     :     0.008963
      f-1     :     0.004954
      f+2     :     0.003128
      f-2     :     0.006051
      f+3     :     0.004584
      f-3     :     0.006967

  1 C s       :     3.098612  s :     3.098612
      pz      :     0.631964  p :     2.253345
      px      :     0.720868
      py      :     0.900513
      dz2     :     0.072924  d :     0.291173
      dxz     :     0.063376
      dyz     :     0.058082
      dx2y2   :     0.038410
      dxy     :     0.058381
      f0      :     0.005148  f :     0.028456
      f+1     :     0.006125
      f-1     :     0.002787
      f+2     :     0.004677
      f-2     :     0.004274
      f+3     :     0.002809
      f-3     :     0.002635

  2 C s       :     3.141731  s :     3.141731
      pz      :     0.590101  p :     2.238532
      px      :     0.720746
      py      :     0.927685
      dz2     :     0.080569  d :     0.295247
      dxz     :     0.055789
      dyz     :     0.067158
      dx2y2   :     0.032696
      dxy     :     0.059035
      f0      :     0.006304  f :     0.028374
      f+1     :     0.004341
      f-1     :     0.003342
      f+2     :     0.004935
      f-2     :     0.005187
      f+3     :     0.002220
      f-3     :     0.002045

  3 C s       :     3.133144  s :     3.133144
      pz      :     0.624289  p :     2.221597
      px      :     0.708766
      py      :     0.888542
      dz2     :     0.076981  d :     0.294731
      dxz     :     0.062783
      dyz     :     0.057333
      dx2y2   :     0.039558
      dxy     :     0.058076
      f0      :     0.005312  f :     0.028359
      f+1     :     0.005925
      f-1     :     0.002744
      f+2     :     0.004663
      f-2     :     0.004482
      f+3     :     0.002614
      f-3     :     0.002618

  4 C s       :     3.136544  s :     3.136544
      pz      :     0.612334  p :     2.220861
      px      :     0.690583
      py      :     0.917945
      dz2     :     0.063107  d :     0.290754
      dxz     :     0.070293
      dyz     :     0.062212
      dx2y2   :     0.037226
      dxy     :     0.057916
      f0      :     0.004165  f :     0.028164
      f+1     :     0.007813
      f-1     :     0.003735
      f+2     :     0.002947
      f-2     :     0.003468
      f+3     :     0.002302
      f-3     :     0.003736

  5 C s       :     3.125456  s :     3.125456
      pz      :     0.673587  p :     2.224415
      px      :     0.651139
      py      :     0.899689
      dz2     :     0.056669  d :     0.286517
      dxz     :     0.076246
      dyz     :     0.049121
      dx2y2   :     0.043996
      dxy     :     0.060485
      f0      :     0.005552  f :     0.028064
      f+1     :     0.005442
      f-1     :     0.003747
      f+2     :     0.004032
      f-2     :     0.001975
      f+3     :     0.002719
      f-3     :     0.004596

  6 C s       :     3.134400  s :     3.134400
      pz      :     0.672022  p :     2.263760
      px      :     0.618236
      py      :     0.973502
      dz2     :     0.043470  d :     0.257895
      dxz     :     0.062570
      dyz     :     0.048897
      dx2y2   :     0.046822
      dxy     :     0.056135
      f0      :     0.005618  f :     0.026375
      f+1     :     0.003318
      f-1     :     0.003450
      f+2     :     0.004140
      f-2     :     0.002410
      f+3     :     0.002991
      f-3     :     0.004446

  7 C s       :     3.061643  s :     3.061643
      pz      :     0.799712  p :     2.395916
      px      :     0.714302
      py      :     0.881902
      dz2     :     0.011194  d :     0.244548
      dxz     :     0.070805
      dyz     :     0.016092
      dx2y2   :     0.072986
      dxy     :     0.073472
      f0      :     0.002746  f :     0.025819
      f+1     :     0.002347
      f-1     :     0.001226
      f+2     :     0.002331
      f-2     :     0.002901
      f+3     :     0.007095
      f-3     :     0.007174

  8 F s       :     3.924158  s :     3.924158
      pz      :     1.800439  p :     5.213833
      px      :     1.547193
      py      :     1.866200
      dz2     :     0.002387  d :     0.017504
      dxz     :     0.005658
      dyz     :     0.001086
      dx2y2   :     0.004659
      dxy     :     0.003714
      f0      :     0.000087  f :     0.000778
      f+1     :     0.000138
      f-1     :     0.000014
      f+2     :     0.000182
      f-2     :     0.000097
      f+3     :     0.000129
      f-3     :     0.000130

  9 F s       :     3.922697  s :     3.922697
      pz      :     1.465525  p :     5.213180
      px      :     1.872246
      py      :     1.875409
      dz2     :     0.008459  d :     0.017663
      dxz     :     0.003990
      dyz     :     0.004399
      dx2y2   :     0.000338
      dxy     :     0.000477
      f0      :     0.000322  f :     0.000792
      f+1     :     0.000188
      f-1     :     0.000206
      f+2     :     0.000028
      f-2     :     0.000042
      f+3     :     0.000003
      f-3     :     0.000002

 10 F s       :     3.922854  s :     3.922854
      pz      :     1.890356  p :     5.215087
      px      :     1.736279
      py      :     1.588452
      dz2     :     0.002508  d :     0.017386
      dxz     :     0.001417
      dyz     :     0.002442
      dx2y2   :     0.004198
      dxy     :     0.006821
      f0      :     0.000067  f :     0.000779
      f+1     :     0.000065
      f-1     :     0.000106
      f+2     :     0.000016
      f-2     :     0.000104
      f+3     :     0.000240
      f-3     :     0.000182

 11 F s       :     3.928097  s :     3.928097
      pz      :     1.744122  p :     5.216396
      px      :     1.607521
      py      :     1.864753
      dz2     :     0.002542  d :     0.017411
      dxz     :     0.006068
      dyz     :     0.001881
      dx2y2   :     0.003453
      dxy     :     0.003466
      f0      :     0.000078  f :     0.000732
      f+1     :     0.000152
      f-1     :     0.000026
      f+2     :     0.000167
      f-2     :     0.000140
      f+3     :     0.000075
      f-3     :     0.000095

 12 F s       :     3.926053  s :     3.926053
      pz      :     1.537587  p :     5.215752
      px      :     1.829005
      py      :     1.849159
      dz2     :     0.006185  d :     0.017516
      dxz     :     0.004546
      dyz     :     0.004620
      dx2y2   :     0.000939
      dxy     :     0.001226
      f0      :     0.000183  f :     0.000746
      f+1     :     0.000187
      f-1     :     0.000182
      f+2     :     0.000071
      f-2     :     0.000104
      f+3     :     0.000011
      f-3     :     0.000008

 13 F s       :     3.928114  s :     3.928114
      pz      :     1.624389  p :     5.216827
      px      :     1.716590
      py      :     1.875848
      dz2     :     0.004120  d :     0.017541
      dxz     :     0.006336
      dyz     :     0.002984
      dx2y2   :     0.001921
      dxy     :     0.002180
      f0      :     0.000103  f :     0.000735
      f+1     :     0.000229
      f-1     :     0.000068
      f+2     :     0.000134
      f-2     :     0.000138
      f+3     :     0.000029
      f-3     :     0.000035

 14 F s       :     3.928257  s :     3.928257
      pz      :     1.585516  p :     5.218244
      px      :     1.740358
      py      :     1.892369
      dz2     :     0.004879  d :     0.017430
      dxz     :     0.006329
      dyz     :     0.002979
      dx2y2   :     0.001556
      dxy     :     0.001687
      f0      :     0.000128  f :     0.000729
      f+1     :     0.000258
      f-1     :     0.000071
      f+2     :     0.000121
      f-2     :     0.000112
      f+3     :     0.000018
      f-3     :     0.000022

 15 F s       :     3.927579  s :     3.927579
      pz      :     1.548207  p :     5.218108
      px      :     1.819117
      py      :     1.850784
      dz2     :     0.005917  d :     0.017537
      dxz     :     0.004745
      dyz     :     0.004494
      dx2y2   :     0.001036
      dxy     :     0.001346
      f0      :     0.000169  f :     0.000738
      f+1     :     0.000193
      f-1     :     0.000167
      f+2     :     0.000075
      f-2     :     0.000111
      f+3     :     0.000013
      f-3     :     0.000010

 16 F s       :     3.927898  s :     3.927898
      pz      :     1.725764  p :     5.220205
      px      :     1.621904
      py      :     1.872537
      dz2     :     0.002756  d :     0.017369
      dxz     :     0.006303
      dyz     :     0.001987
      dx2y2   :     0.003171
      dxy     :     0.003151
      f0      :     0.000078  f :     0.000728
      f+1     :     0.000170
      f-1     :     0.000028
      f+2     :     0.000171
      f-2     :     0.000137
      f+3     :     0.000064
      f-3     :     0.000080

 17 F s       :     3.926553  s :     3.926553
      pz      :     1.477149  p :     5.224126
      px      :     1.877934
      py      :     1.869043
      dz2     :     0.007982  d :     0.017354
      dxz     :     0.003609
      dyz     :     0.004795
      dx2y2   :     0.000488
      dxy     :     0.000480
      f0      :     0.000290  f :     0.000731
      f+1     :     0.000152
      f-1     :     0.000210
      f+2     :     0.000037
      f-2     :     0.000037
      f+3     :     0.000003
      f-3     :     0.000003

 18 F s       :     3.927149  s :     3.927149
      pz      :     1.797307  p :     5.226394
      px      :     1.529099
      py      :     1.899987
      dz2     :     0.002183  d :     0.017187
      dxz     :     0.005712
      dyz     :     0.000929
      dx2y2   :     0.004926
      dxy     :     0.003437
      f0      :     0.000079  f :     0.000721
      f+1     :     0.000133
      f-1     :     0.000003
      f+2     :     0.000195
      f-2     :     0.000071
      f+3     :     0.000132
      f-3     :     0.000108

 19 F s       :     3.927122  s :     3.927122
      pz      :     1.492686  p :     5.239236
      px      :     1.881969
      py      :     1.864582
      dz2     :     0.007459  d :     0.016906
      dxz     :     0.003388
      dyz     :     0.004891
      dx2y2   :     0.000659
      dxy     :     0.000509
      f0      :     0.000260  f :     0.000716
      f+1     :     0.000140
      f-1     :     0.000215
      f+2     :     0.000050
      f-2     :     0.000044
      f+3     :     0.000003
      f-3     :     0.000005

 20 F s       :     3.927819  s :     3.927819
      pz      :     1.880273  p :     5.233211
[...]
      px      :     1.709580
      py      :     1.824612
      dz2     :     0.006179  d :     0.031010
      dxz     :     0.011383
      dyz     :     0.005468
      dx2y2   :     0.003728
      dxy     :     0.004252
      f0      :     0.000182  f :     0.001508
      f+1     :     0.000428
      f-1     :     0.000122
      f+2     :     0.000303
      f-2     :     0.000310
      f+3     :     0.000090
      f-3     :     0.000073

 22 F s       :     3.601144  s :     3.601144
      pz      :     1.777899  p :     5.185429
      px      :     1.580385
      py      :     1.827145
      dz2     :     0.003186  d :     0.030695
      dxz     :     0.008683
      dyz     :     0.001398
      dx2y2   :     0.009466
      dxy     :     0.007962
      f0      :     0.000135  f :     0.001483
      f+1     :     0.000235
      f-1     :     0.000008
      f+2     :     0.000301
      f-2     :     0.000161
      f+3     :     0.000318
      f-3     :     0.000325

 23 O s       :     3.414186  s :     3.414186
      pz      :     1.451236  p :     4.538619
      px      :     1.511291
      py      :     1.576092
      dz2     :     0.007721  d :     0.063795
      dxz     :     0.012396
      dyz     :     0.004619
      dx2y2   :     0.017384
      dxy     :     0.021676
      f0      :     0.000488  f :     0.005633
      f+1     :     0.000710
      f-1     :     0.000230
      f+2     :     0.000440
      f-2     :     0.000757
      f+3     :     0.001477
      f-3     :     0.001532

 24 O s       :     3.413705  s :     3.413705
      pz      :     1.461049  p :     4.543680
      px      :     1.483812
      py      :     1.598820
      dz2     :     0.007800  d :     0.063869
      dxz     :     0.013692
      dyz     :     0.001572
      dx2y2   :     0.020556
      dxy     :     0.020250
      f0      :     0.000487  f :     0.005613
      f+1     :     0.000830
      f-1     :     0.000162
      f+2     :     0.000632
      f-2     :     0.000276
      f+3     :     0.001593
      f-3     :     0.001633

 25 O s       :     3.461851  s :     3.461851
      pz      :     1.875355  p :     4.872783
      px      :     1.414474
      py      :     1.582954
      dz2     :     0.004733  d :     0.027901
      dxz     :     0.001784
      dyz     :     0.001028
      dx2y2   :     0.009011
      dxy     :     0.011345
      f0      :     0.000162  f :     0.002136
      f+1     :     0.000319
      f-1     :     0.000332
      f+2     :     0.000146
      f-2     :     0.000080
      f+3     :     0.000803
      f-3     :     0.000295

 26 H s       :     0.679486  s :     0.679486
      pz      :     0.047088  p :     0.164984
      px      :     0.042075
      py      :     0.075821

 27 H s       :     0.676096  s :     0.676096
      pz      :     0.049093  p :     0.185913
      px      :     0.097949
      py      :     0.038871

 28 H s       :     0.676606  s :     0.676606
      pz      :     0.046827  p :     0.187532
      px      :     0.099657
      py      :     0.041048

 29 O s       :     3.459072  s :     3.459072
      pz      :     1.808883  p :     4.870066
      px      :     1.597489
      py      :     1.463694
      dz2     :     0.002073  d :     0.027835
      dxz     :     0.003173
      dyz     :     0.007637
      dx2y2   :     0.012073
      dxy     :     0.002880
      f0      :     0.000336  f :     0.002126
      f+1     :     0.000116
      f-1     :     0.000030
      f+2     :     0.000779
      f-2     :     0.000117
      f+3     :     0.000056
      f-3     :     0.000692

 30 H s       :     0.685133  s :     0.685133
      pz      :     0.054507  p :     0.165972
      px      :     0.036229
      py      :     0.075236



                      *****************************
                      * MAYER POPULATION ANALYSIS *
                      *****************************

  NA   - Mulliken gross atomic population
  ZA   - Total nuclear charge
  QA   - Mulliken gross atomic charge
  VA   - Mayer's total valence
  BVA  - Mayer's bonded valence
  FA   - Mayer's free valence

  ATOM       NA         ZA         QA         VA         BVA        FA
  0 C      5.5289     6.0000     0.4711     4.4687     4.4687    -0.0000
  1 C      5.6689     6.0000     0.3311     4.2104     4.2104    -0.0000
  2 C      5.7006     6.0000     0.2994     4.1908     4.1908    -0.0000
  3 C      5.6759     6.0000     0.3241     4.1892     4.1892     0.0000
  4 C      5.6665     6.0000     0.3335     4.1708     4.1708     0.0000
  5 C      5.7232     6.0000     0.2768     4.1556     4.1556     0.0000
  6 C      5.6774     6.0000     0.3226     4.0093     4.0093    -0.0000
  7 C      5.6636     6.0000     0.3364     4.3575     4.3575     0.0000
  8 F      9.1562     9.0000    -0.1562     1.1641     1.1641    -0.0000
  9 F      9.1539     9.0000    -0.1539     1.1669     1.1669    -0.0000
 10 F      9.1534     9.0000    -0.1534     1.1645     1.1645     0.0000
 11 F      9.1630     9.0000    -0.1630     1.1598     1.1598    -0.0000
 12 F      9.1595     9.0000    -0.1595     1.1614     1.1614    -0.0000
 13 F      9.1636     9.0000    -0.1636     1.1596     1.1596     0.0000
 14 F      9.1633     9.0000    -0.1633     1.1589     1.1589     0.0000
 15 F      9.1641     9.0000    -0.1641     1.1585     1.1585     0.0000
 16 F      9.1646     9.0000    -0.1646     1.1564     1.1564    -0.0000
 17 F      9.1676     9.0000    -0.1676     1.1526     1.1526     0.0000
 18 F      9.1710     9.0000    -0.1710     1.1470     1.1470    -0.0000
 19 F      9.1777     9.0000    -0.1777     1.1331     1.1331    -0.0000
 20 F      9.1762     9.0000    -0.1762     1.1406     1.1406     0.0000
 21 F      9.2004     9.0000    -0.2004     1.0923     1.0923    -0.0000
 22 F      9.2056     9.0000    -0.2056     1.0829     1.0829     0.0000
 23 O      8.5248     8.0000    -0.5248     1.9422     1.9422     0.0000
 24 O      8.5372     8.0000    -0.5372     1.9316     1.9316     0.0000
 25 O      8.7415     8.0000    -0.7415     1.7222     1.7222     0.0000
 26 H      0.6627     1.0000     0.3373     0.9037     0.9037     0.0000
 27 H      0.6442     1.0000     0.3558     0.9367     0.9367     0.0000
 28 H      0.6446     1.0000     0.3554     0.9434     0.9434    -0.0000
 29 O      8.7379     8.0000    -0.7379     1.7395     1.7395    -0.0000
 30 H      0.6621     1.0000     0.3379     0.9094     0.9094    -0.0000

  Mayer bond orders larger than 0.100000
B(  0-C ,  1-C ) :   0.9540 B(  0-C ,  8-F ) :   1.1275 B(  0-C ,  9-F ) :   1.1434 
B(  0-C , 10-F ) :   1.1341 B(  1-C ,  2-C ) :   0.9345 B(  1-C , 11-F ) :   1.0826 
B(  1-C , 12-F ) :   1.0978 B(  2-C ,  3-C ) :   0.9306 B(  2-C , 13-F ) :   1.0803 
B(  2-C , 14-F ) :   1.0914 B(  3-C ,  4-C ) :   0.9336 B(  3-C , 15-F ) :   1.0812 
B(  3-C , 16-F ) :   1.0806 B(  4-C ,  5-C ) :   0.9258 B(  4-C , 17-F ) :   1.0820 
B(  4-C , 18-F ) :   1.0671 B(  5-C ,  6-C ) :   0.9251 B(  5-C , 19-F ) :   1.0730 
B(  5-C , 20-F ) :   1.0755 B(  6-C ,  7-C ) :   0.8836 B(  6-C , 21-F ) :   1.0494 
B(  6-C , 22-F ) :   1.0300 B(  7-C , 23-O ) :   1.7142 B(  7-C , 24-O ) :   1.6949 
B( 23-O , 28-H ) :   0.1070 B( 24-O , 27-H ) :   0.1011 B( 25-O , 26-H ) :   0.8981 
B( 25-O , 27-H ) :   0.8201 B( 28-H , 29-O ) :   0.8219 B( 29-O , 30-H ) :   0.8974 


-------
TIMINGS
-------

Total SCF time: 0 days 0 hours 0 min 39 sec 

Total time                  ....      39.396 sec
Sum of individual times     ....      38.459 sec  ( 97.6%)

SCF preparation             ....       1.395 sec  (  3.5%)
Fock matrix formation       ....      33.552 sec  ( 85.2%)
  Startup                   ....       0.143 sec  (  0.4% of F)
  Split-RI-J                ....       2.310 sec  (  6.9% of F)
  Chain of spheres X        ....      23.579 sec  ( 70.3% of F)
  XC integration            ....       5.180 sec  ( 15.4% of F)
    Basis function eval.    ....       0.475 sec  (  9.2% of XC)
    Density eval.           ....       1.225 sec  ( 23.7% of XC)
    XC-Functional eval.     ....       0.156 sec  (  3.0% of XC)
    XC-Potential eval.      ....       1.056 sec  ( 20.4% of XC)
  CPCM terms                ....       2.100 sec  (  6.3% of F)
Diagonalization             ....       0.000 sec  (  0.0%)
Density matrix formation    ....       0.455 sec  (  1.2%)
Total Energy calculation    ....       0.165 sec  (  0.4%)
Population analysis         ....       0.785 sec  (  2.0%)
Orbital Transformation      ....       0.293 sec  (  0.7%)
Orbital Orthonormalization  ....       0.000 sec  (  0.0%)
DIIS solution               ....       0.403 sec  (  1.0%)
SOSCF solution              ....       1.412 sec  (  3.6%)
Finished LeanSCF after  40.3 sec

Maximum memory used throughout the entire LEANSCF-calculation: 123.4 MB


-------------------------------------------------------------------------------
                          DFT DISPERSION CORRECTION                            
                                                                               
                              DFTD3 V3.1  Rev 1                                
                          USING Becke-Johnson damping                          
-------------------------------------------------------------------------------
The R2SCANh functional is recognized
Active option DFTDOPT                   ...         4   

molecular C6(AA) [au] = 8950.024605 


            DFT-D V3
 parameters
 s6 scaling factor         :     1.0000 
 a1 scaling factor         :     0.4709 
 s8 scaling factor         :     1.1236 
 a2 scaling factor         :     5.9157 
 ad hoc parameters k1-k3   :    16.0000     1.3333    -4.0000 

 Edisp/kcal,au: -6.504022272645  -0.010364818139 
 E6   /kcal   :  -4.787772308 
 E8   /kcal   :  -1.716249965 
 % E8         :  26.387516725 

-------------------------   ----------------
Dispersion correction           -0.010364818
-------------------------   ----------------


-------------------------   --------------------
FINAL SINGLE POINT ENERGY     -2105.885886907944
-------------------------   --------------------

                                *** OPTIMIZATION RUN DONE ***



           ************************************************************
           *        Program running with 20 parallel MPI-processes    *
           *              working on a common directory               *
           ************************************************************

------------------------------------------------------------------------------
                              ORCA PROPERTY CALCULATIONS
------------------------------------------------------------------------------

GBWName                                 ... rf_mecn_2H2O_opt_r2s_con_001.gbw
Number of atoms                         ...     31
Number of basis functions               ...    861
Max core memory                         ...   8000 MB

Electric properties:
Dipole moment                           ... YES
Quadrupole moment                       ...  NO
Static polarizability (Dipole/Dipole)   ...  NO
Static polarizability (Dipole/Quad.)    ...  NO
Static polarizability (Quad./Quad.)     ...  NO
Static polarizability (Velocity)        ...  NO

Atomic electric properties:
Dipole moment                           ...  NO
Quadrupole moment                       ...  NO
Static polarizability                   ...  NO

Choice of electric origin               ... Center of mass
Position of electric origin             ...    13.182956    43.572623     3.284338

General magnetic properties:
Magnetizability                         ...  NO

EPR properties:
g-Tensor (aka g-matrix)                 ...  NO
Zero-Field splitting spin-orbit         ...  NO
Zero-field splitting spin-spin          ...  NO
Hyperfine couplings                     ...  NO (   0 nuclei)
Quadrupole couplings                    ...  NO (   0 nuclei)
Contact density                         ...  NO (   0 nuclei)

NMR properties:
Chemical shifts                         ...  NO (   0 nuclei)
Spin-rotation constants                 ...  NO (   0 nuclei)
Spin-spin couplings                     ...  NO (   0 nuclei,    0 pairs)

Choice of magnetic origin               ... GIAO
Position of magnetic origin             ...     0.000000     0.000000     0.000000

Properties with geometric perturbations:
SCF Hessian                             ...  NO
IR spectrum                             ...  NO
VCD spectrum                            ...  NO
X-ray spectroscopy properties:
SCF XES/XAS/RIXS spectra                ...  NO


-------------
DIPOLE MOMENT
-------------

Method             : SCF
Type of density    : Electron Density
Multiplicity       :   1
Irrep              :   0
Energy             : -2105.8755220898051448 Eh
Relativity type    : 
Basis              : AO
                                X                 Y                 Z
Electronic contribution:      2.446426241      37.039783377       6.412728978
Nuclear contribution   :     -2.333054970     -29.307106234      -5.469247620
                        -----------------------------------------
Total Dipole Moment    :      0.113371271       7.732677143       0.943481358
                        -----------------------------------------
Magnitude (a.u.)       :      7.790847574
Magnitude (Debye)      :     19.802760781



--------------------
Rotational spectrum 
--------------------
 
Rotational constants in cm-1:             0.013420             0.003319             0.003032 
Rotational constants in MHz :           402.313810            99.516032            90.889372 

Dipole components along the rotational axes: 
x,y,z [a.u.] :     7.700886    -0.580489    -1.027954 
x,y,z [Debye]:    19.574097    -1.475486    -2.612852 

 

Dipole moment calculation done in   0.3 sec 

Maximum memory used throughout the entire PROP-calculation: 70.6 MB

--------------------------------
SUGGESTED CITATIONS FOR THIS RUN
--------------------------------

Below you find a list of papers that are relevant to this ORCA run
We neither can nor want to force you to cite these papers, but we appreciate if you do
You receive ORCA, which is the product of decades of hard work by many enthusiastic individuals, for free
The only thing we kindly ask in return is that you cite our papers,
We deeply appreciate it, if you show your appreciation for ORCA by not just citing the generic ORCA reference.

Please note that relegating all ORCA citations to the supporting information does *not* help us.
SI sections are not indexed - citations you put there will not count into any citation statistics
But we need these citations in order to attract the funding resources that allow us to do what we are doing

Therefore, if you are a happy ORCA user, please consider citing a few of the papers listed below in the main body of your paper

In addition to the list printed below, the program has created the file rf_mecn_2H2O_opt_r2s_con_001.bibtex that contains the list in bibtex format
You can import this file easily into all common literature databanks and citation aid programs


List of essential papers. We consider these as the minimum necessary citations

  1. Neese,F.
     Software update: the ORCA program system, version 5.0
     WIRES Comput. Molec. Sci., 2022 12(1)e1606
     doi.org/10.1002/wcms.1606

List of papers to cite with high priority. The work reported in these papers was absolutely
necessary for this run to complete.
Our perspective: the developers of density functionals and basis sets usually get cited in chemistry papers
Good! But without the algorithms to do something with them, the functionals or basis sets would not do anything.
Hence, in our opinion, the algorithm design and method developments papers are equally worthy of getting cited

  1. Neese,F.
     An improvement of the resolution of the identity approximation for the formation of the Coulomb matrix
     J. Comp. Chem., 2003 24(14)1740-1747
     doi.org/10.1002/jcc.10318
  2. Neese,F.; Wennmohs,F.; Hansen,A.; Becker,U.
     Efficient, approximate and parallel Hartree-Fock and hybrid DFT calculations. A 'chain-of-spheres' algorithm for the Hartree-Fock exchange
     Chem. Phys., 2009 356(1-3)98-109
     doi.org/10.1016/j.chemphys.2008.10.036
  3. Garcia-Rates,M.; Neese,F.
     Effect of the Solute Cavity on the Solvation Energy and its Derivatives within the Framework of the Gaussian Charge Scheme
     J. Comput. Chem., 2020 41 922-939
     doi.org/10.1002/jcc.26139
  4. Helmich-Paris,B.; de Souza,B.; Neese,F.; Izsák,R.
     An improved chain of spheres for exchange algorithm
     J. Chem. Phys., 2021 155 104109
     doi.org/doi: 10.1063/5.0058766.
  5. Neese,F.
     The SHARK Integral Generation and Digestion System
     J. Comp. Chem., 2022  1-16
     doi.org/10.1002/jcc.26942
  6. Lehtola,S.; Steigemann,C.; Oliveira,M.; Marques,M.
     Recent developments in Libxc - A comprehensive library of functionals for density functional theory
     Software X, 2018 7 
     doi.org/10.1016/j.softx.2017.11.002
  7. Grimme,S.; Antony,J.; Ehrlich,S.; Krieg,H.
     A consistent and accurate ab initio parametrization of density functional dispersion correction (DFT-D) for the 94 elements H-Pu
     J. Chem. Phys., 2010 132 154104
     doi.org/10.1063/1.3382344
  8. Grimme,S.; Ehrlich,S.; Goerigk,L.
     Effect of the damping function in dispersion corrected density functional theory
     J. Comput. Chem., 2011 32(7)1456-1465
     doi.org/10.1002/jcc.21759
  9. Bursch,M.; Neugebauer,H.; Ehlert,S.; Grimme,S.
     Dispersion corrected r2SCAN based global hybrid functionals: r2SCANh, r2SCAN0, and r2SCAN50
     J. Phys. Chem., 2022 156(13)134105
     doi.org/10.1063/5.0086040

List of suggested additional citations. These are papers that are important in the 'surrounding' of 
of this run, or papers that preceded the highly important papers. If you like your results we are grateful for a citation.

  1. Izsak,R.; Neese,F.
     An overlap fitted chain of spheres exchange method
     J. Chem. Phys., 2011 135 144105
     doi.org/10.1063/1.3646921
  2. Izsak,R.; Hansen,A.; Neese,F.
     The resolution of identity and chain of spheres approximations for the LPNO-CCSD singles Fock term
     Molec. Phys., 2012 110 2413-2417
     doi.org/10.1080/00268976.2012.687466
  3. Neese,F.
     The ORCA program system
     WIRES Comput. Molec. Sci., 2012 2(1)73-78
     doi.org/10.1002/wcms.81
  4. Izsak,R.; Neese,F.; Klopper,W.
     Robust fitting techniques in the chain of spheres approximation to the Fock exchange: The role of the complementary space
     J. Chem. Phys., 2013 139 
     doi.org/10.1063/1.4819264
  5. Neese,F.
     Software update: the ORCA program system, version 4.0
     WIRES Comput. Molec. Sci., 2018 8(1)1-6
     doi.org/10.1002/wcms.1327
  6. Neese,F.; Wennmohs,F.; Becker,U.; Riplinger,C.
     The ORCA quantum chemistry program package
     J. Chem. Phys., 2020 152 Art. No. L224108
     doi.org/10.1063/5.0004608
  7. Wittmann,L.; Neugebauer,H.; Grimme,S.; Bursch,M.
     Dispersion-corrected r2SCAN based double-hybrid functionals
     J. Chem. Phys., 2023 159(22)224103
     doi.org/10.1063/5.0174988

List of optional additional citations

  1. Neese,F.
     Approximate second-order SCF convergence for spin unrestricted wavefunctions
     Chem. Phys. Lett., 2000 325(1-3)93-98
     doi.org/10.1016/s0009-2614(00)00662-x

Timings for individual modules:

Sum of individual times          ...     6229.224 sec (= 103.820 min)
Startup calculation              ...      313.119 sec (=   5.219 min)   5.0 %
SCF iterations                   ...     4360.370 sec (=  72.673 min)  70.0 %
Property calculations            ...        1.145 sec (=   0.019 min)   0.0 %
SCF Gradient evaluation          ...     1552.885 sec (=  25.881 min)  24.9 %
Geometry relaxation              ...        1.705 sec (=   0.028 min)   0.0 %
                             ****ORCA TERMINATED NORMALLY****
TOTAL RUN TIME: 0 days 1 hours 44 minutes 41 seconds 761 msec
