
                                 *****************
                                 * O   R   C   A *
                                 *****************

                                            #,                                       
                                            ###                                      
                                            ####                                     
                                            #####                                    
                                            ######                                   
                                           ########,                                 
                                     ,,################,,,,,                         
                               ,,#################################,,                 
                          ,,##########################################,,             
                       ,#########################################, ''#####,          
                    ,#############################################,,   '####,        
                  ,##################################################,,,,####,       
                ,###########''''           ''''###############################       
              ,#####''   ,,,,##########,,,,          '''####'''          '####       
            ,##' ,,,,###########################,,,                        '##       
           ' ,,###''''                  '''############,,,                           
         ,,##''                                '''############,,,,        ,,,,,,###''
      ,#''                                            '''#######################'''  
     '                                                          ''''####''''         
             ,#######,   #######,   ,#######,      ##                                
            ,#'     '#,  ##    ##  ,#'     '#,    #''#        ,####,   ,####,        
            ##       ##  ##   ,#'  ##            #'  '#       #'       #'  '#        
            ##       ##  #######   ##           ,######,      #####,   #    #        
            '#,     ,#'  ##    ##  '#,     ,#' ,#      #,     #,   #   #,  ,#        
             '#######'   ##     ##  '#######'  #'      '#     '####' # '####'        



                #########################################################
                #                        -***-                          #
                #          Department of theory and spectroscopy        #
                #                                                       #
                #                      Frank Neese                      #
                #                                                       #
                #     Directorship, Architecture, Infrastructure        #
                #                    SHARK, DRIVERS                     #
                #        Core code/Algorithms in most modules           #
                #                                                       #
                #        Max Planck Institute fuer Kohlenforschung      #
                #                Kaiser Wilhelm Platz 1                 #
                #                 D-45470 Muelheim/Ruhr                 #
                #                      Germany                          #
                #                                                       #
                #                  All rights reserved                  #
                #                        -***-                          #
                #########################################################


                         Program Version 6.0.1  -  RELEASE   -


 With contributions from (in alphabetic order):
[Max-Planck-Institut fuer Kohlenforschung]                               
  Daniel Aravena         : Magnetic Suceptibility                        
  Michael Atanasov       : Ab Initio Ligand Field Theory (pilot matlab implementation)
  Alexander A. Auer      : GIAO ZORA, VPT2 properties, NMR spectrum      
  Ute Becker             : All parallelization in ORCA, NUMFREQ, NUMCALC 
  Giovanni Bistoni       : ED, misc. LED, open-shell LED, HFLD           
  Martin Brehm           : Molecular dynamics                            
  Dmytro Bykov           : pre 5.0 version of the SCF Hessian            
  Marcos Casanova-Páez   : Triplet and SCS-CIS(D). UHF-(DLPNO)-IP/EA/STEOM-CCSD. UHF-CVS-IP/STEOM-CCSD   
  Vijay G. Chilkuri      : MRCI spin determinant printing, contributions to CSF-ICE 
  Pauline Colinet        : FMM embedding                                 
  Dipayan Datta          : RHF DLPNO-CCSD density                        
  Achintya Kumar Dutta   : EOM-CC, STEOM-CC                              
  Nicolas Foglia         : Exact transition moments, OPA infrastructure, MCD improvements    
  Dmitry Ganyushin       : Spin-Orbit,Spin-Spin,Magnetic field MRCI      
  Miquel Garcia-Rates    : C-PCM and meta-GGA Hessian, CCSD/C-PCM, Gaussian charge scheme 
  Tiago L. C. Gouveia    : GS-ROHF, GS-ROCIS                             
  Yang Guo               : DLPNO-NEVPT2, F12-NEVPT2, CIM, IAO-localization        
  Andreas Hansen         : Spin unrestricted coupled pair/coupled cluster methods 
  Ingolf Harden          : AUTO-CI MPn and infrastructure                
  Benjamin Helmich-Paris : MC-RPA, TRAH-(SCF,CASSCF), AVAS, COSX integrals, SCF dyn. polar. 
  Lee Huntington         : MR-EOM, pCC                                   
  Robert Izsak           : Overlap fitted RIJCOSX, COSX-SCS-MP3, EOM     
  Riya Kayal             : Wick's Theorem for AUTO-CI, AUTO-CI UHF-CCSDT 
  Emily Kempfer          : AUTO-CI, RHF CISDT and CCSDT                  
  Christian Kollmar      : KDIIS, OOCD, Brueckner-CCSD(T), CCSD density, CASPT2, CASPT2-K, improved NEVPT2 
  Axel Koslowski         : Symmetry handling                             
  Simone Kossmann        : meta-GGA functionals, TD-DFT gradient, OOMP2, (MP2 Hessian; deprecated post 5.0) 
  Lucas Lang             : DCDCAS                                        
  Marvin Lechner         : AUTO-CI (C++ implementation), FIC-MRCC        
  Spencer Leger          : CASSCF response                               
  Dagmar Lenk            : GEPOL surface, SMD, ORCA-2-JSON               
  Dimitrios Liakos       : Extrapolation schemes; Compound Job, initial MDCI parallelization 
  Dimitrios Manganas     : Further ROCIS development; embedding schemes. LFT, Crystal Embedding 
  Dimitrios Pantazis     : SARC Basis sets                               
  Anastasios Papadopoulos: AUTO-CI, single reference methods and gradients 
  Taras Petrenko         : pre 6.0 DFT Hessian and TD-DFT gradient, (ASA, deprecated), ECA, 1-Electron XAS/XES, NRVS 
  Peter Pinski           : DLPNO-MP2, DLPNO-MP2 Gradient                 
  Christoph Reimann      : Effective Core Potentials                     
  Marius Retegan         : Local ZFS, SOC                                
  Christoph Riplinger    : Optimizer, TS searches, QM/MM, DLPNO-CCSD(T), (RO)-DLPNO pert. Triples 
  Michael Roemelt        : Original ROCIS implementation                 
  Masaaki Saitow         : Open-shell DLPNO-CCSD energy and density      
  Barbara Sandhoefer     : DKH picture change effects                    
  Kantharuban Sivalingam : CASSCF convergence/infrastructure, NEVPT2 and variants, FIC-MRCI 
  Bernardo de Souza      : ESD, SOC TD-DFT                               
  Georgi L. Stoychev     : AutoAux, RI-MP2 NMR, DLPNO-MP2 response, X2C  
  Van Anh Tran           : RI-MP2 g-tensors                              
  Willem Van den Heuvel  : Paramagnetic NMR                              
  Zikuan Wang            : NOTCH, Electric field optimization            
  Frank Wennmohs         : Technical directorship and infrastructure     
  Hang Xu                : AUTO-CI-Response properties                   
                                                                         
[FACCTs GmbH]                                                            
  Markus Bursch, Miquel Garcia-Rates, Christoph Riplinger, Bernardo de Souza, Georgi L. Stoychev 
                                                                 
  APM, Basis sets (HGBS, AHGBS, def-TZVP (Ac-Lr), def2-XVPD (La-Lu)), CI-OPT, improved COSX, DLPNO-Multilevel,           
  DOCKER, DRACO, updates on ESD, GOAT, IRC, LR-CPCM, MBIS, meta-GGA TD-DFT gradient, ML-optimized integration grids, 
  MM, NACMEs, nearIR, NEB, NEB-TS, NL-DFT gradient (VV10), 2- and 3-layer-ONIOM, interface openCOSMO-RS, QMMM,   
  Crystal-QMMM, SF, symmetry and pop. for TD-DFT, r2SCAN hybrids, SOLVATOR                                   
                                                                         
[Other institutions]                                                     
  V. Asgeirsson          : NEB                                           
  Christoph Bannwarth    : sTDA-DFT, sTD-DFT, PBEh-3c, B97-3c, D3        
  Sebastian Ehlert       : rSCAN, r2SCAN, r2SCAN-3c, D4, dhf basis sets  
  Marvin Friede          : D4 for Fr, Ra, Ac-Lr                          
  Lars Goerigk           : TD-DFT with DH, B97 family of functionals     
  Stefan Grimme          : VdW corrections, initial TS optimization, DFT functionals, gCP, sTDA/sTD-DF 
  Waldemar Hujo          : DFT-NL                                        
  H. Jonsson             : NEB                                           
  Holger Kruse           : gCP                                           
  Marcel Mueller         : wB97X-3c, vDZP basis set                      
  Hagen Neugebauer       : wr2SCAN                                       
  Tobias Risthaus        : range-separated hybrid DFT                    
  Lukas Wittmann         : regularized MP2, r2SCAN double-hybrids, wr2SCAN        
                                                                         
We gratefully acknowledge several colleagues who have allowed us to      
interface, adapt or use parts of their codes:                            
  Ed Valeev, F. Pavosevic, A. Kumar             : LibInt (2-el integral package), F12 methods 
  Garnet Chan, S. Sharma, J. Yang, R. Olivares  : DMRG                   
  Ulf Ekstrom                                   : XCFun DFT Library      
  Mihaly Kallay                                 : mrcc  (arbitrary order and MRCC methods)
  Frank Weinhold                                : gennbo (NPA and NBO analysis)           
  Simon Mueller                                 : openCOSMO-RS                            
  Christopher J. Cramer and Donald G. Truhlar   : smd solvation model                     
  S Lehtola, MJT Oliveira, MAL Marques          : LibXC Library                           
  Liviu Ungur et al                             : ANISO software                          


 Your calculation uses the libint2 library for the computation of 2-el integrals
 For citations please refer to: http://libint.valeyev.net

 Your ORCA version has been built with support for libXC version: 6.2.2
 For citations please refer to: https://libxc.gitlab.io

 This ORCA versions uses:
   CBLAS   interface :  Fast vector & matrix operations
   LAPACKE interface :  Fast linear algebra routines
   SCALAPACK package :  Parallel linear algebra routines
   Shared memory     :  Shared parallel matrices
   BLAS/LAPACK       :  OpenBLAS 0.3.27  USE64BITINT DYNAMIC_ARCH NO_AFFINITY SkylakeX SINGLE_THREADED
        Core in use  :  SkylakeX
   Copyright (c) 2011-2014, The OpenBLAS Project


NOTE: MaxCore=8000 MB was set to SCF,MP2,MDCI,CIPSI,MRCI and CIS
      => If you want to overwrite this, your respective input block should be placed after the MaxCore statement
Your calculation utilizes the atom-pairwise dispersion correction
with the Becke-Johnson damping scheme (D3BJ)


Your calculation utilizes the SMD solvation module
Please cite in your paper:
A.V. Marenich, C.J. Cramer, D.G. Truhlar J. Phys. Chem. B, 113, (2009), 6378 

Warning: RI is on but no J-basis has been assigned. Assigning Def2/J (nothing to worry about!)
================================================================================

----- Orbital basis set information -----
Your calculation utilizes the basis: def2-TZVP
   F. Weigend and R. Ahlrichs, Phys. Chem. Chem. Phys. 7, 3297 (2005).

----- AuxJ basis set information -----
Your calculation utilizes the auxiliary basis: def2/J
   F. Weigend, Phys. Chem. Chem. Phys. 8, 1057 (2006).

================================================================================
                                        WARNINGS
                       Please study these warnings very carefully!
================================================================================


WARNING: your system is open-shell and RHF/RKS was chosen
  ===> : WILL SWITCH to UHF/UKS


================================================================================
                                       INPUT FILE
================================================================================
NAME = rf_mecn_freq_B3L_C3_P_B.inp
|  1> !B3LYP def2-TZVP freq d3 TightSCF SlowConv defgrid2
|  2>  
|  3> %pal
|  4> nprocs 20
|  5> end
|  6>  
|  7> %scf
|  8> MaxIter 1500
|  9> end
| 10>  
| 11> %maxcore 8000
| 12>  
| 13> !CPCM
| 14> %cpcm smd true
| 15> SMDsolvent "ACETONITRILE"
| 16> end
| 17>  
| 18> * xyz 0 2
| 19> 6        4.425704000      0.383092000     -0.145470000
| 20> 8        5.280572000     -0.355335000     -0.837292000
| 21> 8        4.450176000      1.570449000      0.002319000
| 22> 6        3.310021000     -0.500109000      0.480134000
| 23> 6        2.200767000     -0.768053000     -0.484865000
| 24> 6        0.812345000     -1.210432000     -0.140278000
| 25> 6       -0.236236000     -0.043784000     -0.176250000
| 26> 6       -1.733228000     -0.505833000     -0.131759000
| 27> 6       -2.720127000      0.636972000      0.285561000
| 28> 6       -4.218207000      0.350697000     -0.057931000
| 29> 9        3.854024000     -1.676107000      0.930521000
| 30> 9        2.822023000      0.138482000      1.574114000
| 31> 9        2.462537000     -0.617881000     -1.771873000
| 32> 9        0.405904000     -2.155982000     -1.028494000
| 33> 9        0.816176000     -1.747646000      1.100112000
| 34> 9        0.012623000      0.768281000      0.871264000
| 35> 9       -0.044865000      0.652007000     -1.316207000
| 36> 9       -1.866272000     -1.516226000      0.750101000
| 37> 9       -2.075259000     -0.956255000     -1.355571000
| 38> 9       -2.373328000      1.783005000     -0.334050000
| 39> 9       -2.633243000      0.817917000      1.616225000
| 40> 9       -4.581485000     -0.855190000      0.384643000
| 41> 9       -4.977553000      1.273363000      0.536871000
| 42> 9       -4.425906000      0.413011000     -1.372786000
| 43> 1        5.961669000      0.223469000     -1.234451000
| 44> *
| 45> 
| 46>                          ****END OF INPUT****
================================================================================

                       ****************************
                       * Single Point Calculation *
                       ****************************

---------------------------------
CARTESIAN COORDINATES (ANGSTROEM)
---------------------------------
  C      4.425704    0.383092   -0.145470
  O      5.280572   -0.355335   -0.837292
  O      4.450176    1.570449    0.002319
  C      3.310021   -0.500109    0.480134
  C      2.200767   -0.768053   -0.484865
  C      0.812345   -1.210432   -0.140278
  C     -0.236236   -0.043784   -0.176250
  C     -1.733228   -0.505833   -0.131759
  C     -2.720127    0.636972    0.285561
  C     -4.218207    0.350697   -0.057931
  F      3.854024   -1.676107    0.930521
  F      2.822023    0.138482    1.574114
  F      2.462537   -0.617881   -1.771873
  F      0.405904   -2.155982   -1.028494
  F      0.816176   -1.747646    1.100112
  F      0.012623    0.768281    0.871264
  F     -0.044865    0.652007   -1.316207
  F     -1.866272   -1.516226    0.750101
  F     -2.075259   -0.956255   -1.355571
  F     -2.373328    1.783005   -0.334050
  F     -2.633243    0.817917    1.616225
  F     -4.581485   -0.855190    0.384643
  F     -4.977553    1.273363    0.536871
  F     -4.425906    0.413011   -1.372786
  H      5.961669    0.223469   -1.234451

----------------------------
CARTESIAN COORDINATES (A.U.)
----------------------------
  NO LB      ZA    FRAG     MASS         X           Y           Z
   0 C     6.0000    0    12.011    8.363369    0.723939   -0.274898
   1 O     8.0000    0    15.999    9.978835   -0.671486   -1.582253
   2 O     8.0000    0    15.999    8.409614    2.967719    0.004382
   3 C     6.0000    0    12.011    6.255033   -0.945069    0.907322
   4 C     6.0000    0    12.011    4.158847   -1.451410   -0.916262
   5 C     6.0000    0    12.011    1.535110   -2.287385   -0.265087
   6 C     6.0000    0    12.011   -0.446421   -0.082740   -0.333064
   7 C     6.0000    0    12.011   -3.275326   -0.955886   -0.248988
   8 C     6.0000    0    12.011   -5.140295    1.203703    0.539632
   9 C     6.0000    0    12.011   -7.971256    0.662721   -0.109474
  10 F     9.0000    0    18.998    7.283050   -3.167383    1.758430
  11 F     9.0000    0    18.998    5.332851    0.261693    2.974644
  12 F     9.0000    0    18.998    4.653521   -1.167626   -3.348355
  13 F     9.0000    0    18.998    0.767047   -4.074216   -1.943572
  14 F     9.0000    0    18.998    1.542349   -3.302572    2.078910
  15 F     9.0000    0    18.998    0.023854    1.451841    1.646450
  16 F     9.0000    0    18.998   -0.084783    1.232115   -2.487271
  17 F     9.0000    0    18.998   -3.526743   -2.865252    1.417485
  18 F     9.0000    0    18.998   -3.921671   -1.807060   -2.561658
  19 F     9.0000    0    18.998   -4.484940    3.369391   -0.631263
  20 F     9.0000    0    18.998   -4.976108    1.545639    3.054223
  21 F     9.0000    0    18.998   -8.657752   -1.616075    0.726870
  22 F     9.0000    0    18.998   -9.406212    2.406307    1.014539
  23 F     9.0000    0    18.998   -8.363750    0.780478   -2.594190
  24 H     1.0000    0     1.008   11.265922    0.422295   -2.332774

--------------------------------
INTERNAL COORDINATES (ANGSTROEM)
--------------------------------
 C      0   0   0     0.000000000000     0.00000000     0.00000000
 O      1   0   0     1.324647655581     0.00000000     0.00000000
 O      1   2   0     1.196769448454   127.18322001     0.00000000
 C      1   2   3     1.554404364284   110.89558304   179.31711691
 C      4   1   2     1.494476996696   112.00792236   276.08588449
 C      5   4   1     1.497382726725   126.34162418   199.50572085
 C      6   5   4     1.569039086272   113.24854329   101.18929607
 C      7   6   5     1.567307811359   114.73753450   167.30465121
 C      8   7   6     1.566565953487   113.21708608   161.67391648
 C      9   8   7     1.563388568491   114.30231384   162.94376713
 F      4   1   2     1.371772214977   109.54843881    39.25730243
 F      4   1   2     1.357472929264   108.36583910   154.87467892
 F      5   4   1     1.321917075519   117.47173649    20.32066145
 F      6   5   4     1.359480324108   109.41096640   221.20975799
 F      6   5   4     1.351732558777   109.02352180   340.21052482
 F      7   6   5     1.348579232490   107.85463549   289.45459947
 F      7   6   5     1.349166386022   107.94096494    46.66185420
 F      8   7   6     1.347691277699   109.50486763    40.99186840
 F      8   7   6     1.348176915093   108.36334226   282.72640850
 F      9   8   7     1.348176166089   109.61107492    42.16698855
 F      9   8   7     1.345717876591   108.71290309   283.26400773
 F     10   9   8     1.334918015284   110.69159920    50.29721317
 F     10   9   8     1.334806470795   108.70154031   169.71028830
 F     10   9   8     1.332616066323   110.95082371   289.04256081
 H      2   1   3     0.978081011525   109.36505926   359.60271397

---------------------------
INTERNAL COORDINATES (A.U.)
---------------------------
 C      0   0   0     0.000000000000     0.00000000     0.00000000
 O      1   0   0     2.503221292989     0.00000000     0.00000000
 O      1   2   0     2.261566503023   127.18322001     0.00000000
 C      1   2   3     2.937398549869   110.89558304   179.31711691
 C      4   1   2     2.824152237200   112.00792236   276.08588449
 C      5   4   1     2.829643271174   126.34162418   199.50572085
 C      6   5   4     2.965054166472   113.24854329   101.18929607
 C      7   6   5     2.961782531023   114.73753450   167.30465121
 C      8   7   6     2.960380622816   113.21708608   161.67391648
 C      9   8   7     2.954376235352   114.30231384   162.94376713
 F      4   1   2     2.592273804428   109.54843881    39.25730243
 F      4   1   2     2.565252070521   108.36583910   154.87467892
 F      5   4   1     2.498061244485   117.47173649    20.32066145
 F      6   5   4     2.569045497019   109.41096640   221.20975799
 F      6   5   4     2.554404342393   109.02352180   340.21052482
 F      7   6   5     2.548445419299   107.85463549   289.45459947
 F      7   6   5     2.549554978673   107.94096494    46.66185420
 F      8   7   6     2.546767427925   109.50486763    40.99186840
 F      8   7   6     2.547685149600   108.36334226   282.72640850
 F      9   8   7     2.547683734189   109.61107492    42.16698855
 F      9   8   7     2.543038240279   108.71290309   283.26400773
 F     10   9   8     2.522629460124   110.69159920    50.29721317
 F     10   9   8     2.522418671588   108.70154031   169.71028830
 F     10   9   8     2.518279407014   110.95082371   289.04256081
 H      2   1   3     1.848305248571   109.36505926   359.60271397

---------------------
BASIS SET INFORMATION
---------------------
There are 4 groups of distinct atoms

 Group   1 Type C   : 11s6p2d1f contracted to 5s3p2d1f pattern {62111/411/11/1}
 Group   2 Type O   : 11s6p2d1f contracted to 5s3p2d1f pattern {62111/411/11/1}
 Group   3 Type F   : 11s6p2d1f contracted to 5s3p2d1f pattern {62111/411/11/1}
 Group   4 Type H   : 5s1p contracted to 3s1p pattern {311/1}

Atom   0C    basis set group =>   1
Atom   1O    basis set group =>   2
Atom   2O    basis set group =>   2
Atom   3C    basis set group =>   1
Atom   4C    basis set group =>   1
Atom   5C    basis set group =>   1
Atom   6C    basis set group =>   1
Atom   7C    basis set group =>   1
Atom   8C    basis set group =>   1
Atom   9C    basis set group =>   1
Atom  10F    basis set group =>   3
Atom  11F    basis set group =>   3
Atom  12F    basis set group =>   3
Atom  13F    basis set group =>   3
Atom  14F    basis set group =>   3
Atom  15F    basis set group =>   3
Atom  16F    basis set group =>   3
Atom  17F    basis set group =>   3
Atom  18F    basis set group =>   3
Atom  19F    basis set group =>   3
Atom  20F    basis set group =>   3
Atom  21F    basis set group =>   3
Atom  22F    basis set group =>   3
Atom  23F    basis set group =>   3
Atom  24H    basis set group =>   4
---------------------------------
AUXILIARY/J BASIS SET INFORMATION
---------------------------------
There are 4 groups of distinct atoms

 Group   1 Type C   : 12s5p4d2f1g contracted to 6s4p3d1f1g pattern {711111/2111/211/2/1}
 Group   2 Type O   : 12s5p4d2f1g contracted to 6s4p3d1f1g pattern {711111/2111/211/2/1}
 Group   3 Type F   : 12s5p4d2f1g contracted to 6s4p3d1f1g pattern {711111/2111/211/2/1}
 Group   4 Type H   : 5s2p1d contracted to 3s1p1d pattern {311/2/1}

Atom   0C    basis set group =>   1
Atom   1O    basis set group =>   2
Atom   2O    basis set group =>   2
Atom   3C    basis set group =>   1
Atom   4C    basis set group =>   1
Atom   5C    basis set group =>   1
Atom   6C    basis set group =>   1
Atom   7C    basis set group =>   1
Atom   8C    basis set group =>   1
Atom   9C    basis set group =>   1
Atom  10F    basis set group =>   3
Atom  11F    basis set group =>   3
Atom  12F    basis set group =>   3
Atom  13F    basis set group =>   3
Atom  14F    basis set group =>   3
Atom  15F    basis set group =>   3
Atom  16F    basis set group =>   3
Atom  17F    basis set group =>   3
Atom  18F    basis set group =>   3
Atom  19F    basis set group =>   3
Atom  20F    basis set group =>   3
Atom  21F    basis set group =>   3
Atom  22F    basis set group =>   3
Atom  23F    basis set group =>   3
Atom  24H    basis set group =>   4


           ************************************************************
           *        Program running with 20 parallel MPI-processes    *
           *              working on a common directory               *
           ************************************************************
------------------------------------------------------------------------------
                             ORCA STARTUP CALCULATIONS
                           -- RI-GTO INTEGRALS CHOSEN --
------------------------------------------------------------------------------
------------------------------------------------------------------------------
                   ___                                                        
                  /   \      - P O W E R E D   B Y -                         
                 /     \                                                     
                 |  |  |   _    _      __       _____    __    __             
                 |  |  |  | |  | |    /  \     |  _  \  |  |  /  |          
                  \  \/   | |  | |   /    \    | | | |  |  | /  /          
                 / \  \   | |__| |  /  /\  \   | |_| |  |  |/  /          
                |  |  |   |  __  | /  /__\  \  |    /   |      \           
                |  |  |   | |  | | |   __   |  |    \   |  |\   \          
                \     /   | |  | | |  |  |  |  | |\  \  |  | \   \       
                 \___/    |_|  |_| |__|  |__|  |_| \__\ |__|  \__/        
                                                                              
                      - O R C A' S   B I G   F R I E N D -                    
                                      &                                       
                       - I N T E G R A L  F E E D E R -                       
                                                                              
 v1 FN, 2020, v2 2021, v3 2022-2024                                           
------------------------------------------------------------------------------


----------------------
SHARK INTEGRAL PACKAGE
----------------------

Number of atoms                             ...     25
Number of basis functions                   ...    750
Number of shells                            ...    268
Maximum angular momentum                    ...      3
Integral batch strategy                     ... SHARK/LIBINT Hybrid
RI-J (if used) integral strategy            ... SPLIT-RIJ (Revised 2003 algorithm where possible)
Printlevel                                  ...      1
Contraction scheme used                     ... SEGMENTED contraction
Prescreening option                         ... SCHWARTZ
   Thresh                                   ... 2.500e-11
   Tcut                                     ... 2.500e-12
   Tpresel                                  ... 2.500e-12 
Coulomb Range Separation                    ... NOT USED
Exchange Range Separation                   ... NOT USED
Multipole approximations                    ... NOT USED
Finite Nucleus Model                        ... NOT USED
CABS basis                                  ... NOT available
Auxiliary Coulomb fitting basis             ... AVAILABLE
   # of basis functions in Aux-J            ...   1187
   # of shells in Aux-J                     ...    365
   Maximum angular momentum in Aux-J        ...      4
Auxiliary J/K fitting basis                 ... NOT available
Auxiliary Correlation fitting basis         ... NOT available
Auxiliary 'external' fitting basis          ... NOT available

Checking pre-screening integrals            ... done (  0.0 sec) Dimension = 268
Check shell pair data                       ... done (  0.0 sec)
Shell pair information
Shell pair cut-off parameter TPreSel        ...   2.5e-12
Total number of shell pairs                 ...     36046
Shell pairs after pre-screening             ...     22434
Total number of primitive shell pairs       ...    118872
Primitive shell pairs kept                  ...     47543
          la=0 lb=0:   4262 shell pairs
          la=1 lb=0:   6135 shell pairs
          la=1 lb=1:   2114 shell pairs
          la=2 lb=0:   3336 shell pairs
          la=2 lb=1:   2426 shell pairs
          la=2 lb=2:    682 shell pairs
          la=3 lb=0:   1524 shell pairs
          la=3 lb=1:   1178 shell pairs
          la=3 lb=2:    624 shell pairs
          la=3 lb=3:    153 shell pairs

Calculating one electron integrals          ... done (  0.0 sec)
Calculating RI/J V-Matrix + Cholesky decomp.... done (  0.1 sec)
Calculating Nuclear repulsion               ... done (  0.0 sec) ENN=   2654.027199419156 Eh

Diagonalization of the overlap matrix:
Smallest eigenvalue                        ... 6.854e-05
Time for diagonalization                   ...    0.117 sec
Threshold for overlap eigenvalues          ... 1.000e-07
Number of eigenvalues below threshold      ... 0
Time for construction of square roots      ...    0.052 sec
Total time needed                          ...    0.174 sec

-------------------
DFT GRID GENERATION
-------------------

General Integration Accuracy     IntAcc      ... 4.388
Radial Grid Type                 RadialGrid  ... OptM3 with GC (2021)
Angular Grid (max. ang.)         AngularGrid ... 4 (Lebedev-302)
Angular grid pruning method      GridPruning ... 4 (adaptive)
Weight generation scheme         WeightScheme... mBecke (2022)
Basis function cutoff            BFCut       ... 1.0000e-11
Integration weight cutoff        WCut        ... 1.0000e-14
Partially contracted basis set               ... off
Rotationally invariant grid construction     ... off
Angular grids for H and He will be reduced by one unit

Total number of grid points                  ...   148718
Total number of batches                      ...     2338
Average number of points per batch           ...       63
Average number of grid points per atom       ...     5949

--------------------
COSX GRID GENERATION
--------------------

GRIDX 1
-------
General Integration Accuracy     IntAcc      ... 3.816
Radial Grid Type                 RadialGrid  ... OptM3 with GC (2021)
Angular Grid (max. ang.)         AngularGrid ... 1 (Lebedev-50)
Angular grid pruning method      GridPruning ... 4 (adaptive)
Weight generation scheme         WeightScheme... mBecke (2022)
Basis function cutoff            BFCut       ... 1.0000e-11
Integration weight cutoff        WCut        ... 1.0000e-14
Partially contracted basis set               ... on
Rotationally invariant grid construction     ... off
Angular grids for H and He will be reduced by one unit

Total number of grid points                  ...    18678
Total number of batches                      ...      157
Average number of points per batch           ...      118
Average number of grid points per atom       ...      747
UseSFitting                                  ... on

GRIDX 2
-------
General Integration Accuracy     IntAcc      ... 4.020
Radial Grid Type                 RadialGrid  ... OptM3 with GC (2021)
Angular Grid (max. ang.)         AngularGrid ... 2 (Lebedev-110)
Angular grid pruning method      GridPruning ... 4 (adaptive)
Weight generation scheme         WeightScheme... mBecke (2022)
Basis function cutoff            BFCut       ... 1.0000e-11
Integration weight cutoff        WCut        ... 1.0000e-14
Partially contracted basis set               ... on
Rotationally invariant grid construction     ... off
Angular grids for H and He will be reduced by one unit

Total number of grid points                  ...    44034
Total number of batches                      ...      358
Average number of points per batch           ...      123
Average number of grid points per atom       ...     1761
UseSFitting                                  ... on

GRIDX 3
-------
General Integration Accuracy     IntAcc      ... 4.338
Radial Grid Type                 RadialGrid  ... OptM3 with GC (2021)
Angular Grid (max. ang.)         AngularGrid ... 3 (Lebedev-194)
Angular grid pruning method      GridPruning ... 4 (adaptive)
Weight generation scheme         WeightScheme... mBecke (2022)
Basis function cutoff            BFCut       ... 1.0000e-11
Integration weight cutoff        WCut        ... 1.0000e-14
Partially contracted basis set               ... on
Rotationally invariant grid construction     ... off
Angular grids for H and He will be reduced by one unit

Total number of grid points                  ...    97569
Total number of batches                      ...      773
Average number of points per batch           ...      126
Average number of grid points per atom       ...     3903
UseSFitting                                  ... on
Initializing property integral containers    ... done (  0.0 sec)

SHARK setup successfully completed in   3.6 seconds

Maximum memory used throughout the entire STARTUP-calculation: 57.5 MB


           ************************************************************
           *        Program running with 20 parallel MPI-processes    *
           *              working on a common directory               *
           ************************************************************
-------------------------------------------------------------------------------
                                 ORCA GUESS
                   Start orbitals & Density for SCF / CASSCF
-------------------------------------------------------------------------------

------------
SCF SETTINGS
------------
Hamiltonian:
 Density Functional     Method          .... DFT(GTOs)
 Exchange Functional    Exchange        .... B88
   X-Alpha parameter    XAlpha          ....  0.666667
   Becke's b parameter  XBeta           ....  0.004200
 Correlation Functional Correlation     .... LYP
 LDA part of GGA corr.  LDAOpt          .... VWN-5
 Gradients option       PostSCFGGA      .... off
 Hybrid DFT is turned on
   Fraction HF Exchange ScalHFX         ....  0.200000
   Scaling of DF-GGA-X  ScalDFX         ....  0.720000
   Scaling of DF-GGA-C  ScalDFC         ....  0.810000
   Scaling of DF-LDA-C  ScalLDAC        ....  1.000000
   Perturbative correction              ....  0.000000
   NL short-range parameter             ....  4.800000
 RI-approximation to the Coulomb term is turned on
   Number of AuxJ basis functions       .... 1187
   RIJ-COSX (HFX calculated with COS-X)).... on


General Settings:
 Integral files         IntName         .... rf_mecn_freq_B3L_C3_P_B
 Hartree-Fock type      HFTyp           .... UHF
 Total Charge           Charge          ....    0
 Multiplicity           Mult            ....    2
 Number of Electrons    NEL             ....  191
 Basis Dimension        Dim             ....  750
 Nuclear Repulsion      ENuc            ....   2654.0271994192 Eh

Convergence Acceleration:
 AO-DIIS                CNVDIIS         .... on
   Start iteration      DIISMaxIt       ....     0
   Startup error        DIISStart       ....  0.200000
   # of expansion vecs  DIISMaxEq       ....     5
   Bias factor          DIISBfac        ....   1.050
   Max. coefficient     DIISMaxC        ....  10.000
 MO-DIIS                CNVKDIIS        .... off
 Trust-Rad. Augm. Hess. CNVTRAH         .... auto
   Auto Start mean grad. ratio tolernc. ....  1.125000
   Auto Start start iteration           ....    50
   Auto Start num. interpolation iter.  ....    10
   Max. Number of Micro iterations      ....    24
   Max. Number of Macro iterations      .... Maxiter - #DIIS iter
   Number of Davidson start vectors     ....     2
   Converg. threshold    (grad. norm)   ....   1.000e-05
   Grad. Scal. Fac. for Micro threshold ....   0.100
   Minimum threshold for Micro iter.    ....   1.000e-02
   NR start threshold (gradient norm)   ....   1.000e-04
   Initial trust radius                 ....   0.400
   Minimum AH scaling param. (alpha)    ....   1.000
   Maximum AH scaling param. (alpha)    .... 1000.000
   Quad. conv. algorithm                .... NR
   White noise on init. David. guess    .... on
   Maximum white noise                  ....   0.010
   Pseudo random numbers                .... off
   Inactive MOs                         .... canonical
   Orbital update algorithm             .... Taylor
   Preconditioner                       .... Diag
   Full preconditioner red. dimension   ....   250
 SOSCF                  CNVSOSCF        .... on
   Start iteration      SOSCFMaxIt      ....   150
   Startup grad/error   SOSCFStart      ....  0.001000
   Hessian update       SOSCFHessUp     .... L-BFGS
 Level Shifting         CNVShift        .... on
   Level shift para.    LevelShift      ....    0.2500
   Turn off err/grad.   ShiftErr        ....    0.0000
 Zerner damping         CNVZerner       .... off
 Static damping         CNVDamp         .... on
   Fraction old density DampFac         ....    0.8500
   Max. Damping (<1)    DampMax         ....    0.9800
   Min. Damping (>=0)   DampMin         ....    0.0000
   Turn off err/grad.   DampErr         ....    0.0300

SCF Procedure:
 Maximum # iterations   MaxIter         ....  1500
 SCF integral mode      SCFMode         .... Direct
   Integral package                     .... SHARK and LIBINT hybrid scheme
 Reset frequency        DirectResetFreq ....    20
 Integral Threshold     Thresh          ....  2.500e-11 Eh
 Primitive CutOff       TCut            ....  2.500e-12 Eh

Convergence Tolerance:
 Convergence Check Mode ConvCheckMode   .... Total+1el-Energy
 Convergence forced     ConvForced      .... 0
 Energy Change          TolE            ....  1.000e-08 Eh
 1-El. energy change                    ....  1.000e-05 Eh
 Orbital Gradient       TolG            ....  1.000e-05
 Orbital Rotation angle TolX            ....  1.000e-05
 DIIS Error             TolErr          ....  5.000e-07

------------------------------
INITIAL GUESS: MODEL POTENTIAL
------------------------------
Loading Hartree-Fock densities                     ... done
Calculating cut-offs                               ... done
Initializing the effective Hamiltonian             ... done
Setting up the integral package (SHARK)            ... done
Starting the Coulomb interaction                   ... done (   0.2 sec)
Making the grid                                    ... done (   0.5 sec)
Mapping shells                                     ... done
Starting the XC term evaluation                    ... done (   0.2 sec)
  promolecular density results
     # of electrons  =    191.000491772
     EX              =   -198.635997065
     EC              =     -7.176731975
     EX+EC           =   -205.812729039
Transforming the Hamiltonian                       ... done (   0.1 sec)
Diagonalizing the Hamiltonian                      ... done (   0.1 sec)
Back transforming the eigenvectors                 ... done (   0.0 sec)
Now organizing SCF variables                       ... done
                      ------------------
                      INITIAL GUESS DONE (   1.2 sec)
                      ------------------
             **** ENERGY FILE WAS UPDATED (rf_mecn_freq_B3L_C3_P_B.en.tmp) ****
Finished Guess after   1.9 sec
Maximum memory used throughout the entire GUESS-calculation: 46.5 MB


           ************************************************************
           *        Program running with 20 parallel MPI-processes    *
           *              working on a common directory               *
           ************************************************************

-------------------------------------------------------------------------------------------
                                      ORCA LEAN-SCF
                              memory conserving SCF solver
-------------------------------------------------------------------------------------------

--------------------
CPCM SOLVATION MODEL
--------------------
CPCM parameters:
  Epsilon                                         ...      35.6880
  Refrac                                          ...       1.3442
  Rsolv                                           ...       1.3000
  Surface type                                    ... GAUSSIAN VDW
  Discretization scheme                           ... Constant charge density
    Threshold for H atoms                         ...       5.0000 (charges/Ang^2)
    Threshold for non-H atoms                     ...       5.0000 (charges/Ang^2)
  Epsilon function type                           ...         CPCM
Solvent:                                          ... ACETONITRILE
SMD-CDS solvent descriptors:
  Soln                                            ...       1.3442
  Soln25                                          ...       1.3416
  Sola                                            ...       0.0700
  Solb                                            ...       0.3200
  Solg                                            ...      41.2500
  Solc                                            ...       0.0000
  Solh                                            ...       0.0000
Radii:
  Scheme                                          ... Element-dependent radii
  Radius for C  used is    3.4960 Bohr (=   1.8500 Ang.)
  Radius for O  used is    4.0969 Bohr (=   2.1680 Ang.)
  Radius for F  used is    3.2692 Bohr (=   1.7300 Ang.)
  Radius for H  used is    2.2677 Bohr (=   1.2000 Ang.)
Calculating surface                               ...        done! (  0.0s)
Cavity surface points                             ...         2190
Cavity Volume                                     ...    2113.8286
Cavity Surface-area                               ...    1112.5815
Calculating surface distance matrix               ...        done! (  0.0s)
Performing Cholesky decomposition & store         ...        done! (  0.1s)
Overall time for CPCM initialization              ...                 0.2s

----------------------------------------D-I-I-S--------------------------------------------
Iteration    Energy (Eh)           Delta-E    RMSDP     MaxDP     DIISErr   Damp  Time(sec)
-------------------------------------------------------------------------------------------
               ***  Starting incremental Fock matrix formation  ***
    1    -1853.2305940528185602     0.00e+00  2.01e-04  1.47e-02  1.51e-01  0.850   7.4
Warning: op=1 Small HOMO/LUMO gap (   0.060) - skipping pre-diagonalization
         Will do a full diagonalization
    2    -1853.3740582493364855    -1.43e-01  1.97e-04  1.42e-02  1.02e-01  0.850   5.1
                               ***Turning on AO-DIIS***
    3    -1853.4517241918229047    -7.77e-02  8.78e-05  5.97e-03  5.99e-02  0.850   4.6
    4    -1853.4986115991669067    -4.69e-02  5.10e-05  3.34e-03  4.59e-02  0.850   4.1
    5    -1853.5321245580398681    -3.35e-02  3.93e-05  2.85e-03  3.91e-02  0.850   3.9
    6    -1853.5587917872289836    -2.67e-02  3.47e-05  2.88e-03  3.40e-02  0.850   4.3
    7    -1853.5810296766567262    -2.22e-02  3.21e-05  2.86e-03  2.90e-02  0.850   3.8
    8    -1853.5997978307241283    -1.88e-02  1.88e-04  1.73e-02  2.38e-02  0.000   3.8
    9    -1853.6969948004270918    -9.72e-02  1.78e-05  1.63e-03  3.74e-03  0.000   4.2
   10    -1853.6972029291855506    -2.08e-04  6.93e-06  5.79e-04  1.97e-03  0.000   3.6
                              *** Initializing SOSCF ***
---------------------------------------S-O-S-C-F--------------------------------------
Iteration    Energy (Eh)           Delta-E    RMSDP     MaxDP     MaxGrad    Time(sec)
--------------------------------------------------------------------------------------
   11    -1853.6972266054426655    -2.37e-05  3.64e-06  3.29e-04  5.18e-04     4.2
               *** Restarting incremental Fock matrix formation ***
   12    -1853.6972089429573316     1.77e-05  2.95e-06  2.43e-04  1.53e-04     7.2
   13    -1853.6972093977092300    -4.55e-07  2.06e-06  1.53e-04  3.12e-04     5.0
   14    -1853.6972102776453539    -8.80e-07  1.13e-06  7.79e-05  7.74e-05     4.5
   15    -1853.6972103250282089    -4.74e-08  4.85e-07  4.96e-05  2.43e-05     4.3
   16    -1853.6972103648249686    -3.98e-08  1.59e-07  1.18e-05  6.31e-06     3.9
   17    -1853.6972103688758580    -4.05e-09  6.62e-08  6.28e-06  3.08e-06     3.7
                 **** Energy Check signals convergence ****

               *****************************************************
               *                     SUCCESS                       *
               *           SCF CONVERGED AFTER  17 CYCLES          *
               *****************************************************

Recomputing exchange energy using gridx3       ... done (    9.099 sec)
Old exchange energy                            :    -39.824110533 Eh
New exchange energy                            :    -39.824124571 Eh
Exchange energy change after final integration :     -0.000014038 Eh
Total energy after final integration           :  -1853.697224407 Eh

SMD CDS free energy correction energy :                 3.22955     Kcal/mol
Total Energy after SMD CDS correction =             -1853.692077789 Eh
             **** ENERGY FILE WAS UPDATED (rf_mecn_freq_B3L_C3_P_B.en.tmp) ****

----------------
TOTAL SCF ENERGY
----------------

Total Energy       :      -1853.69207778941200 Eh          -50441.52583 eV

Components:
Nuclear Repulsion  :       2654.02719941915620 Eh           72219.75168 eV
Electronic Energy  :      -4507.71086880907842 Eh         -122661.04871 eV
One Electron Energy:      -7858.68941321952025 Eh         -213845.81064 eV
Two Electron Energy:       3350.97854441044183 Eh           91184.76194 eV
CPCM Dielectric    :         -0.01354097895370 Eh              -0.36847 eV
SMD CDS (Gcds)     :          0.00514661733016 Eh               0.14005 eV

Virial components:
Potential Energy   :      -3701.07942408170948 Eh         -100711.49120 eV
Kinetic Energy     :       1847.38734629229725 Eh           50269.96537 eV
Virial Ratio       :          2.00341278265750

DFT components:
N(Alpha)           :       95.999964018479 electrons
N(Beta)            :       94.999946551442 electrons
N(Total)           :      190.999910569921 electrons
E(X)               :     -158.702475172932 Eh       
E(C)               :       -8.381387283787 Eh       
E(XC)              :     -167.083862456720 Eh       

CPCM Solvation Model Properties:
Surface-charge          :         -0.00930493853055
Corrected charge        :         -0.00000000000000
Outlying charge corr.   :          0.00000476573662 Eh               0.00013 eV
Free-energy (cav+disp)  :          0.00514661733016 Eh               0.14005 eV

---------------
SCF CONVERGENCE
---------------

  Last Energy change         ...    4.0509e-09  Tolerance :   1.0000e-08
  Last MAX-Density change    ...    6.2845e-06  Tolerance :   1.0000e-07
  Last RMS-Density change    ...    6.6188e-08  Tolerance :   5.0000e-09
  Last DIIS Error            ...    5.1781e-04  Tolerance :   5.0000e-07
  Last Orbital Gradient      ...    3.0841e-06  Tolerance :   1.0000e-05
  Last Orbital Rotation      ...    4.5477e-06  Tolerance :   1.0000e-05


----------------------
UHF SPIN CONTAMINATION
----------------------

Warning: in a DFT calculation there is little theoretical justification to 
         calculate <S**2> as in Hartree-Fock theory. We will do it anyways
         but you should keep in mind that the values have only limited relevance

Expectation value of <S**2>     :     0.754108
Ideal value S*(S+1) for S=0.5   :     0.750000
Deviation                       :     0.004108

----------------
ORBITAL ENERGIES
----------------
                 SPIN UP ORBITALS
  NO   OCC          E(Eh)            E(eV) 
   0   1.0000     -24.758571      -673.7150 
   1   1.0000     -24.746521      -673.3871 
   2   1.0000     -24.745583      -673.3615 
   3   1.0000     -24.745404      -673.3567 
   4   1.0000     -24.745152      -673.3498 
   5   1.0000     -24.745141      -673.3495 
   6   1.0000     -24.744679      -673.3369 
   7   1.0000     -24.744393      -673.3292 
   8   1.0000     -24.744086      -673.3208 
   9   1.0000     -24.743383      -673.3017 
  10   1.0000     -24.739407      -673.1935 
  11   1.0000     -24.737270      -673.1354 
  12   1.0000     -24.726292      -672.8366 
  13   1.0000     -24.721356      -672.7023 
  14   1.0000     -19.205660      -522.6126 
  15   1.0000     -19.152827      -521.1749 
  16   1.0000     -10.462838      -284.7083 
  17   1.0000     -10.410541      -283.2852 
  18   1.0000     -10.408967      -283.2424 
  19   1.0000     -10.406843      -283.1846 
  20   1.0000     -10.406400      -283.1726 
  21   1.0000     -10.392545      -282.7955 
  22   1.0000     -10.344099      -281.4772 
  23   1.0000     -10.326520      -280.9989 
  24   1.0000      -1.355253       -36.8783 
  25   1.0000      -1.332044       -36.2468 
  26   1.0000      -1.316503       -35.8239 
  27   1.0000      -1.309310       -35.6281 
  28   1.0000      -1.306153       -35.5422 
  29   1.0000      -1.297366       -35.3031 
  30   1.0000      -1.291668       -35.1481 
  31   1.0000      -1.268859       -34.5274 
  32   1.0000      -1.262498       -34.3543 
  33   1.0000      -1.261823       -34.3359 
  34   1.0000      -1.255163       -34.1547 
  35   1.0000      -1.251686       -34.0601 
  36   1.0000      -1.247500       -33.9462 
  37   1.0000      -1.232268       -33.5317 
  38   1.0000      -1.144950       -31.1557 
  39   1.0000      -1.060649       -28.8617 
  40   1.0000      -0.857709       -23.3394 
  41   1.0000      -0.842402       -22.9229 
  42   1.0000      -0.811618       -22.0853 
  43   1.0000      -0.779521       -21.2118 
  44   1.0000      -0.736471       -20.0404 
  45   1.0000      -0.700242       -19.0546 
  46   1.0000      -0.684467       -18.6253 
  47   1.0000      -0.661046       -17.9880 
  48   1.0000      -0.653185       -17.7741 
  49   1.0000      -0.648368       -17.6430 
  50   1.0000      -0.640005       -17.4154 
  51   1.0000      -0.631259       -17.1774 
  52   1.0000      -0.627985       -17.0883 
  53   1.0000      -0.626536       -17.0489 
  54   1.0000      -0.616310       -16.7706 
  55   1.0000      -0.608428       -16.5562 
  56   1.0000      -0.606227       -16.4963 
  57   1.0000      -0.602416       -16.3926 
  58   1.0000      -0.593941       -16.1620 
  59   1.0000      -0.588644       -16.0178 
  60   1.0000      -0.580065       -15.7844 
  61   1.0000      -0.569350       -15.4928 
  62   1.0000      -0.536434       -14.5971 
  63   1.0000      -0.518954       -14.1215 
  64   1.0000      -0.518466       -14.1082 
  65   1.0000      -0.514155       -13.9909 
  66   1.0000      -0.509598       -13.8669 
  67   1.0000      -0.504664       -13.7326 
  68   1.0000      -0.501866       -13.6565 
  69   1.0000      -0.500809       -13.6277 
  70   1.0000      -0.495051       -13.4710 
  71   1.0000      -0.490362       -13.3434 
  72   1.0000      -0.487913       -13.2768 
  73   1.0000      -0.481595       -13.1049 
  74   1.0000      -0.479039       -13.0353 
  75   1.0000      -0.476613       -12.9693 
  76   1.0000      -0.468595       -12.7511 
  77   1.0000      -0.465564       -12.6687 
  78   1.0000      -0.464426       -12.6377 
  79   1.0000      -0.461064       -12.5462 
  80   1.0000      -0.460085       -12.5196 
  81   1.0000      -0.455849       -12.4043 
  82   1.0000      -0.454436       -12.3658 
  83   1.0000      -0.449976       -12.2445 
  84   1.0000      -0.447949       -12.1893 
  85   1.0000      -0.445194       -12.1143 
  86   1.0000      -0.443238       -12.0611 
  87   1.0000      -0.441600       -12.0166 
  88   1.0000      -0.436817       -11.8864 
  89   1.0000      -0.431299       -11.7362 
  90   1.0000      -0.409783       -11.1508 
  91   1.0000      -0.392665       -10.6849 
  92   1.0000      -0.360553        -9.8112 
  93   1.0000      -0.358388        -9.7522 
  94   1.0000      -0.318567        -8.6686 
  95   1.0000      -0.272753        -7.4220 
  96   0.0000      -0.045307        -1.2329 
  97   0.0000       0.002839         0.0772 
  98   0.0000       0.004450         0.1211 
  99   0.0000       0.033086         0.9003 
 100   0.0000       0.037315         1.0154 
 101   0.0000       0.063254         1.7212 
 102   0.0000       0.077678         2.1137 
 103   0.0000       0.088094         2.3972 
 104   0.0000       0.096936         2.6378 
 105   0.0000       0.116745         3.1768 
 106   0.0000       0.123374         3.3572 

                 SPIN DOWN ORBITALS
  NO   OCC          E(Eh)            E(eV) 
   0   1.0000     -24.753978      -673.5900 
   1   1.0000     -24.746522      -673.3871 
   2   1.0000     -24.745584      -673.3616 
   3   1.0000     -24.745403      -673.3567 
   4   1.0000     -24.745148      -673.3497 
   5   1.0000     -24.745139      -673.3495 
   6   1.0000     -24.744669      -673.3367 
   7   1.0000     -24.744366      -673.3284 
   8   1.0000     -24.744083      -673.3207 
   9   1.0000     -24.743347      -673.3007 
  10   1.0000     -24.739117      -673.1856 
  11   1.0000     -24.736503      -673.1145 
  12   1.0000     -24.725512      -672.8154 
  13   1.0000     -24.719768      -672.6591 
  14   1.0000     -19.205632      -522.6118 
  15   1.0000     -19.152777      -521.1736 
  16   1.0000     -10.462821      -284.7078 
  17   1.0000     -10.410423      -283.2820 
  18   1.0000     -10.408923      -283.2412 
  19   1.0000     -10.407705      -283.2081 
  20   1.0000     -10.405748      -283.1548 
  21   1.0000     -10.393273      -282.8153 
  22   1.0000     -10.344044      -281.4757 
  23   1.0000     -10.312134      -280.6074 
  24   1.0000      -1.355239       -36.8779 
  25   1.0000      -1.331699       -36.2374 
  26   1.0000      -1.315625       -35.8000 
  27   1.0000      -1.309153       -35.6239 
  28   1.0000      -1.304136       -35.4874 
  29   1.0000      -1.292495       -35.1706 
  30   1.0000      -1.286292       -35.0018 
  31   1.0000      -1.268816       -34.5262 
  32   1.0000      -1.262384       -34.3512 
  33   1.0000      -1.261748       -34.3339 
  34   1.0000      -1.254964       -34.1493 
  35   1.0000      -1.251618       -34.0583 
  36   1.0000      -1.246432       -33.9171 
  37   1.0000      -1.229376       -33.4530 
  38   1.0000      -1.144835       -31.1525 
  39   1.0000      -1.060552       -28.8591 
  40   1.0000      -0.850238       -23.1362 
  41   1.0000      -0.834290       -22.7022 
  42   1.0000      -0.807551       -21.9746 
  43   1.0000      -0.777780       -21.1645 
  44   1.0000      -0.731950       -19.9174 
  45   1.0000      -0.697622       -18.9832 
  46   1.0000      -0.682744       -18.5784 
  47   1.0000      -0.658177       -17.9099 
  48   1.0000      -0.652216       -17.7477 
  49   1.0000      -0.647530       -17.6202 
  50   1.0000      -0.639768       -17.4090 
  51   1.0000      -0.629413       -17.1272 
  52   1.0000      -0.626453       -17.0467 
  53   1.0000      -0.625059       -17.0087 
  54   1.0000      -0.614739       -16.7279 
  55   1.0000      -0.606436       -16.5020 
  56   1.0000      -0.603905       -16.4331 
  57   1.0000      -0.601299       -16.3622 
  58   1.0000      -0.589548       -16.0424 
  59   1.0000      -0.587631       -15.9903 
  60   1.0000      -0.578748       -15.7485 
  61   1.0000      -0.567638       -15.4462 
  62   1.0000      -0.518912       -14.1203 
  63   1.0000      -0.518263       -14.1027 
  64   1.0000      -0.514565       -14.0020 
  65   1.0000      -0.510881       -13.9018 
  66   1.0000      -0.506738       -13.7890 
  67   1.0000      -0.502263       -13.6673 
  68   1.0000      -0.501536       -13.6475 
  69   1.0000      -0.499534       -13.5930 
  70   1.0000      -0.493642       -13.4327 
  71   1.0000      -0.490018       -13.3341 
  72   1.0000      -0.486826       -13.2472 
  73   1.0000      -0.481085       -13.0910 
  74   1.0000      -0.477577       -12.9955 
  75   1.0000      -0.475707       -12.9446 
  76   1.0000      -0.467392       -12.7184 
  77   1.0000      -0.465295       -12.6613 
  78   1.0000      -0.461309       -12.5528 
  79   1.0000      -0.459218       -12.4960 
  80   1.0000      -0.457639       -12.4530 
  81   1.0000      -0.455637       -12.3985 
  82   1.0000      -0.454272       -12.3614 
  83   1.0000      -0.449625       -12.2349 
  84   1.0000      -0.446929       -12.1616 
  85   1.0000      -0.444637       -12.0992 
  86   1.0000      -0.442981       -12.0541 
  87   1.0000      -0.439567       -11.9612 
  88   1.0000      -0.434843       -11.8327 
  89   1.0000      -0.430061       -11.7026 
  90   1.0000      -0.407713       -11.0944 
  91   1.0000      -0.390096       -10.6151 
  92   1.0000      -0.359838        -9.7917 
  93   1.0000      -0.356572        -9.7028 
  94   1.0000      -0.318017        -8.6537 
  95   0.0000      -0.130086        -3.5398 
  96   0.0000      -0.043301        -1.1783 
  97   0.0000       0.005407         0.1471 
  98   0.0000       0.007325         0.1993 
  99   0.0000       0.036571         0.9951 
 100   0.0000       0.037780         1.0281 
 101   0.0000       0.071078         1.9341 
 102   0.0000       0.082089         2.2338 
 103   0.0000       0.090954         2.4750 
 104   0.0000       0.098093         2.6692 
 105   0.0000       0.120665         3.2834 
*Only the first 10 virtual orbitals were printed.

                    ********************************
                    * MULLIKEN POPULATION ANALYSIS *
                    ********************************

--------------------------------------------
MULLIKEN ATOMIC CHARGES AND SPIN POPULATIONS
--------------------------------------------
   0 C :    0.234285   -0.003493
   1 O :   -0.353545   -0.000154
   2 O :   -0.286727    0.001894
   3 C :    0.439813    0.004899
   4 C :    0.106128    0.825006
   5 C :    0.385956   -0.016778
   6 C :    0.318177    0.028954
   7 C :    0.310300    0.004831
   8 C :    0.325456    0.001870
   9 C :    0.475943    0.000584
  10 F :   -0.190787    0.028584
  11 F :   -0.182911    0.013695
  12 F :   -0.144969    0.088109
  13 F :   -0.175738    0.014335
  14 F :   -0.171644    0.005221
  15 F :   -0.172344    0.000574
  16 F :   -0.172449    0.000778
  17 F :   -0.167763   -0.000042
  18 F :   -0.168112    0.000214
  19 F :   -0.165794    0.000017
  20 F :   -0.162764    0.000068
  21 F :   -0.154735   -0.000014
  22 F :   -0.152450    0.000193
  23 F :   -0.152637    0.000013
  24 H :    0.379313    0.000640
Sum of atomic charges         :    0.0000000
Sum of atomic spin populations:    1.0000000

-----------------------------------------------------
MULLIKEN REDUCED ORBITAL CHARGES AND SPIN POPULATIONS
-----------------------------------------------------
CHARGE
  0 C s       :     3.100215  s :     3.100215
      pz      :     0.776513  p :     2.382673
      px      :     0.803919
      py      :     0.802241
      dz2     :     0.031978  d :     0.258233
      dxz     :     0.015017
      dyz     :     0.069726
      dx2y2   :     0.046059
      dxy     :     0.095452
      f0      :     0.002299  f :     0.024594
      f+1     :     0.002456
      f-1     :     0.002655
      f+2     :     0.004945
      f-2     :     0.002070
      f+3     :     0.006549
      f-3     :     0.003620

  1 O s       :     3.767067  s :     3.767067
      pz      :     1.568574  p :     4.554348
      px      :     1.403965
      py      :     1.581810
      dz2     :     0.003694  d :     0.030370
      dxz     :     0.003592
      dyz     :     0.007538
      dx2y2   :     0.004300
      dxy     :     0.011245
      f0      :     0.000286  f :     0.001760
      f+1     :     0.000309
      f-1     :     0.000102
      f+2     :     0.000213
      f-2     :     0.000501
      f+3     :     0.000129
      f-3     :     0.000221

  2 O s       :     3.792687  s :     3.792687
      pz      :     1.497875  p :     4.462205
      px      :     1.641817
      py      :     1.322513
      dz2     :     0.002778  d :     0.029982
      dxz     :     0.000336
      dyz     :     0.010241
      dx2y2   :     0.007620
      dxy     :     0.009008
      f0      :     0.000221  f :     0.001853
      f+1     :     0.000025
      f-1     :     0.000230
      f+2     :     0.000411
      f-2     :     0.000039
      f+3     :     0.000568
      f-3     :     0.000358

  3 C s       :     3.017157  s :     3.017157
      pz      :     0.709601  p :     2.240131
      px      :     0.858592
      py      :     0.671939
      dz2     :     0.050101  d :     0.275683
      dxz     :     0.050610
      dyz     :     0.061321
      dx2y2   :     0.054201
      dxy     :     0.059450
      f0      :     0.004345  f :     0.027216
      f+1     :     0.002928
      f-1     :     0.004434
      f+2     :     0.004561
      f-2     :     0.004185
      f+3     :     0.002557
      f-3     :     0.004207

  4 C s       :     3.250184  s :     3.250184
      pz      :     0.604221  p :     2.475553
      px      :     0.879489
      py      :     0.991842
      dz2     :     0.032835  d :     0.150511
      dxz     :     0.055685
      dyz     :     0.035361
      dx2y2   :     0.012606
      dxy     :     0.014024
      f0      :     0.003657  f :     0.017625
      f+1     :     0.004706
      f-1     :     0.004158
      f+2     :     0.001416
      f-2     :     0.001301
      f+3     :     0.001124
      f-3     :     0.001261

  5 C s       :     3.081860  s :     3.081860
      pz      :     0.591241  p :     2.210127
      px      :     0.879176
      py      :     0.739710
      dz2     :     0.073095  d :     0.294356
      dxz     :     0.063446
      dyz     :     0.055551
      dx2y2   :     0.044513
      dxy     :     0.057751
      f0      :     0.005113  f :     0.027700
      f+1     :     0.004153
      f-1     :     0.005663
      f+2     :     0.003952
      f-2     :     0.003881
      f+3     :     0.002456
      f-3     :     0.002482

  6 C s       :     3.158744  s :     3.158744
      pz      :     0.571466  p :     2.206933
      px      :     0.901450
      py      :     0.734017
      dz2     :     0.078380  d :     0.288028
      dxz     :     0.061473
      dyz     :     0.054119
      dx2y2   :     0.042458
      dxy     :     0.051598
      f0      :     0.006053  f :     0.028118
      f+1     :     0.004088
      f-1     :     0.004668
      f+2     :     0.004338
      f-2     :     0.004870
      f+3     :     0.002045
      f-3     :     0.002056

  7 C s       :     3.151766  s :     3.151766
      pz      :     0.593081  p :     2.224167
      px      :     0.907462
      py      :     0.723625
      dz2     :     0.074927  d :     0.285688
      dxz     :     0.057423
      dyz     :     0.059974
      dx2y2   :     0.040107
      dxy     :     0.053256
      f0      :     0.005268  f :     0.028080
      f+1     :     0.003775
      f-1     :     0.006103
      f+2     :     0.003577
      f-2     :     0.004667
      f+3     :     0.002433
      f-3     :     0.002257

  8 C s       :     3.130176  s :     3.130176
      pz      :     0.608299  p :     2.236502
      px      :     0.910367
      py      :     0.717835
      dz2     :     0.060731  d :     0.279753
      dxz     :     0.060883
      dyz     :     0.067158
      dx2y2   :     0.043520
      dxy     :     0.047460
      f0      :     0.003802  f :     0.028113
      f+1     :     0.005291
      f-1     :     0.008032
      f+2     :     0.002463
      f-2     :     0.002465
      f+3     :     0.003024
      f-3     :     0.003034

  9 C s       :     3.024490  s :     3.024490
      pz      :     0.635710  p :     2.114079
      px      :     0.847849
      py      :     0.630521
      dz2     :     0.069477  d :     0.345083
      dxz     :     0.062456
      dyz     :     0.085862
      dx2y2   :     0.067835
      dxy     :     0.059453
      f0      :     0.004675  f :     0.040405
      f+1     :     0.006745
      f-1     :     0.010336
      f+2     :     0.004235
      f-2     :     0.004027
      f+3     :     0.004725
      f-3     :     0.005661

 10 F s       :     3.914130  s :     3.914130
      pz      :     1.844263  p :     5.260943
      px      :     1.841924
      py      :     1.574756
      dz2     :     0.001831  d :     0.015062
      dxz     :     0.001284
      dyz     :     0.003594
      dx2y2   :     0.003999
      dxy     :     0.004353
      f0      :     0.000069  f :     0.000652
      f+1     :     0.000022
      f-1     :     0.000086
      f+2     :     0.000089
      f-2     :     0.000106
      f+3     :     0.000172
      f-3     :     0.000109

 11 F s       :     3.915661  s :     3.915661
      pz      :     1.596343  p :     5.250736
      px      :     1.849750
      py      :     1.804643
      dz2     :     0.004154  d :     0.015822
      dxz     :     0.003923
      dyz     :     0.004803
      dx2y2   :     0.001324
      dxy     :     0.001617
      f0      :     0.000098  f :     0.000693
      f+1     :     0.000131
      f-1     :     0.000187
      f+2     :     0.000093
      f-2     :     0.000140
      f+3     :     0.000026
      f-3     :     0.000018

 12 F s       :     3.920830  s :     3.920830
      pz      :     1.478638  p :     5.205293
      px      :     1.885465
      py      :     1.841190
      dz2     :     0.008018  d :     0.018085
      dxz     :     0.004405
      dyz     :     0.005062
      dx2y2   :     0.000294
      dxy     :     0.000305
      f0      :     0.000315  f :     0.000762
      f+1     :     0.000196
      f-1     :     0.000198
      f+2     :     0.000024
      f-2     :     0.000025
      f+3     :     0.000002
      f-3     :     0.000001

 13 F s       :     3.916583  s :     3.916583
      pz      :     1.708744  p :     5.242702
      px      :     1.865112
      py      :     1.668846
      dz2     :     0.002554  d :     0.015775
      dxz     :     0.002227
      dyz     :     0.005714
      dx2y2   :     0.002583
      dxy     :     0.002696
      f0      :     0.000075  f :     0.000677
      f+1     :     0.000040
      f-1     :     0.000157
      f+2     :     0.000140
      f-2     :     0.000149
      f+3     :     0.000062
      f-3     :     0.000053

 14 F s       :     3.917808  s :     3.917808
      pz      :     1.513020  p :     5.236874
      px      :     1.906784
      py      :     1.817070
      dz2     :     0.006443  d :     0.016261
      dxz     :     0.003057
      dyz     :     0.005164
      dx2y2   :     0.000773
      dxy     :     0.000824
      f0      :     0.000214  f :     0.000701
      f+1     :     0.000098
      f-1     :     0.000252
      f+2     :     0.000065
      f-2     :     0.000061
      f+3     :     0.000006
      f-3     :     0.000005

 15 F s       :     3.919068  s :     3.919068
      pz      :     1.625528  p :     5.236029
      px      :     1.888530
      py      :     1.721972
      dz2     :     0.003897  d :     0.016538
      dxz     :     0.002642
      dyz     :     0.006214
      dx2y2   :     0.001941
      dxy     :     0.001843
      f0      :     0.000100  f :     0.000708
      f+1     :     0.000056
      f-1     :     0.000236
      f+2     :     0.000140
      f-2     :     0.000120
      f+3     :     0.000028
      f-3     :     0.000028

 16 F s       :     3.917048  s :     3.917048
      pz      :     1.575433  p :     5.238170
      px      :     1.895860
      py      :     1.766876
      dz2     :     0.004973  d :     0.016520
      dxz     :     0.002964
      dyz     :     0.005875
      dx2y2   :     0.001369
      dxy     :     0.001339
      f0      :     0.000139  f :     0.000711
      f+1     :     0.000078
      f-1     :     0.000257
      f+2     :     0.000109
      f-2     :     0.000098
      f+3     :     0.000014
      f-3     :     0.000016

 17 F s       :     3.916767  s :     3.916767
      pz      :     1.704503  p :     5.233659
      px      :     1.900048
      py      :     1.629107
      dz2     :     0.002760  d :     0.016623
      dxz     :     0.001708
      dyz     :     0.006590
      dx2y2   :     0.003124
      dxy     :     0.002441
      f0      :     0.000080  f :     0.000714
      f+1     :     0.000016
      f-1     :     0.000195
      f+2     :     0.000198
      f-2     :     0.000107
      f+3     :     0.000055
      f-3     :     0.000064

 18 F s       :     3.916949  s :     3.916949
      pz      :     1.522718  p :     5.233846
      px      :     1.874130
      py      :     1.836998
      dz2     :     0.006337  d :     0.016604
      dxz     :     0.004043
      dyz     :     0.004517
      dx2y2   :     0.000805
      dxy     :     0.000902
      f0      :     0.000203  f :     0.000713
      f+1     :     0.000155
      f-1     :     0.000203
      f+2     :     0.000061
      f-2     :     0.000077
      f+3     :     0.000005
      f-3     :     0.000007

 19 F s       :     3.916250  s :     3.916250
      pz      :     1.800900  p :     5.232301
      px      :     1.871250
      py      :     1.560151
      dz2     :     0.002097  d :     0.016531
      dxz     :     0.001187
      dyz     :     0.005172
      dx2y2   :     0.004322
      dxy     :     0.003753
      f0      :     0.000081  f :     0.000712
      f+1     :     0.000013
      f-1     :     0.000118
      f+2     :     0.000158
      f-2     :     0.000106
      f+3     :     0.000120
      f-3     :     0.000116

 20 F s       :     3.914068  s :     3.914068
      pz      :     1.448580  p :     5.231300
      px      :     1.900874
      py      :     1.881846
      dz2     :     0.008659  d :     0.016671
      dxz     :     0.003842
      dyz     :     0.003706
      dx2y2   :     0.000230
      dxy     :     0.000235
      f0      :     0.000361  f :     0.000726
      f+1     :     0.000162
      f-1     :     0.000174
      f+2     :     0.000013
      f-2     :     0.000015
      f+3     :     0.000001
      f-3     :     0.000001

 21 F s       :     3.912288  s :     3.912288
      pz      :     1.842501  p :     5.225038
      px      :     1.859058
      py      :     1.523479
      dz2     :     0.002194  d :     0.016652
      dxz     :     0.000819
      dyz     :     0.004412
      dx2y2   :     0.005117
      dxy     :     0.004111
      f0      :     0.000082  f :     0.000757
      f+1     :     0.000015
      f-1     :     0.000124
      f+2     :     0.000136
      f-2     :     0.000077
      f+3     :     0.000161
      f-3     :     0.000162

 22 F s       :     3.911399  s :     3.911399
      pz      :     1.806774  p :     5.223586
      px      :     1.736244
      py      :     1.680568
      dz2     :     0.002184  d :     0.016699
      dxz     :     0.002728
      dyz     :     0.003676
      dx2y2   :     0.003154
      dxy     :     0.004957
      f0      :     0.000088  f :     0.000766
      f+1     :     0.000057
      f-1     :     0.000085
      f+2     :     0.000072
      f-2     :     0.000202
      f+3     :     0.000144
      f-3     :     0.000118

 23 F s       :     3.911001  s :     3.911001
      pz      :     1.453648  p :     5.224069
      px      :     1.881510
      py      :     1.888911
      dz2     :     0.008849  d :     0.016797
      dxz     :     0.004071
      dyz     :     0.003376
      dx2y2   :     0.000269
      dxy     :     0.000232
      f0      :     0.000380  f :     0.000769
      f+1     :     0.000189
      f-1     :     0.000163
      f+2     :     0.000022
      f-2     :     0.000013
      f+3     :     0.000001
      f-3     :     0.000001

 24 H s       :     0.577521  s :     0.577521
      pz      :     0.013585  p :     0.043166
      px      :     0.016545
      py      :     0.013036


SPIN
  0 C s       :    -0.000337  s :    -0.000337
      pz      :     0.000094  p :    -0.003004
      px      :    -0.003745
      py      :     0.000646
      dz2     :    -0.000051  d :    -0.000185
      dxz     :    -0.000043
      dyz     :    -0.000177
      dx2y2   :     0.000169
      dxy     :    -0.000084
      f0      :     0.000001  f :     0.000033
      f+1     :    -0.000000
      f-1     :    -0.000003
      f+2     :    -0.000004
      f-2     :    -0.000004
      f+3     :     0.000048
      f-3     :    -0.000005

  1 O s       :     0.000084  s :     0.000084
      pz      :    -0.000185  p :    -0.000277
      px      :    -0.000076
      py      :    -0.000015
      dz2     :    -0.000000  d :     0.000037
      dxz     :     0.000008
      dyz     :     0.000009
      dx2y2   :     0.000005
      dxy     :     0.000015
      f0      :     0.000000  f :     0.000002
      f+1     :     0.000000
      f-1     :    -0.000000
      f+2     :     0.000000
      f-2     :     0.000000
      f+3     :     0.000001
      f-3     :     0.000000

  2 O s       :     0.000212  s :     0.000212
      pz      :     0.000777  p :     0.001684
      px      :     0.001030
      py      :    -0.000123
      dz2     :     0.000001  d :    -0.000001
      dxz     :    -0.000000
      dyz     :    -0.000006
      dx2y2   :     0.000004
      dxy     :     0.000000
      f0      :    -0.000000  f :    -0.000001
      f+1     :    -0.000000
      f-1     :    -0.000000
      f+2     :    -0.000001
      f-2     :    -0.000000
      f+3     :     0.000000
      f-3     :    -0.000000

  3 C s       :    -0.007118  s :    -0.007118
      pz      :    -0.009874  p :    -0.004494
      px      :    -0.011562
      py      :     0.016943
      dz2     :    -0.000014  d :     0.014798
      dxz     :     0.000896
      dyz     :     0.007191
      dx2y2   :    -0.000332
      dxy     :     0.007056
      f0      :     0.000025  f :     0.001713
      f+1     :     0.000014
      f-1     :     0.000117
      f+2     :     0.000192
      f-2     :     0.000736
      f+3     :     0.000396
      f-3     :     0.000233

  4 C s       :     0.044415  s :     0.044415
      pz      :     0.011871  p :     0.779026
      px      :     0.076845
      py      :     0.690310
      dz2     :     0.000658  d :     0.003411
      dxz     :     0.001526
      dyz     :     0.002288
      dx2y2   :    -0.001408
      dxy     :     0.000347
      f0      :    -0.000337  f :    -0.001847
      f+1     :    -0.000081
      f-1     :    -0.000243
      f+2     :    -0.000301
      f-2     :    -0.000066
      f+3     :    -0.000381
      f-3     :    -0.000438

  5 C s       :    -0.016301  s :    -0.016301
      pz      :    -0.004251  p :    -0.024687
      px      :    -0.022257
      py      :     0.001822
      dz2     :     0.000950  d :     0.022925
      dxz     :     0.000173
      dyz     :    -0.000174
      dx2y2   :     0.007092
      dxy     :     0.014886
      f0      :     0.000009  f :     0.001285
      f+1     :     0.000046
      f-1     :     0.000124
      f+2     :     0.000108
      f-2     :     0.000098
      f+3     :     0.000657
      f-3     :     0.000243

  6 C s       :    -0.000646  s :    -0.000646
      pz      :     0.000683  p :     0.025555
      px      :     0.009771
      py      :     0.015101
      dz2     :     0.000576  d :     0.004061
      dxz     :     0.000017
      dyz     :    -0.000001
      dx2y2   :     0.003378
      dxy     :     0.000092
      f0      :    -0.000009  f :    -0.000015
      f+1     :     0.000007
      f-1     :    -0.000012
      f+2     :     0.000000
      f-2     :    -0.000008
      f+3     :     0.000030
      f-3     :    -0.000024

  7 C s       :    -0.001135  s :    -0.001135
      pz      :     0.000132  p :     0.005117
      px      :     0.002541
      py      :     0.002444
      dz2     :     0.000109  d :     0.000821
      dxz     :    -0.000005
      dyz     :     0.000012
      dx2y2   :     0.000432
      dxy     :     0.000273
      f0      :    -0.000001  f :     0.000027
      f+1     :     0.000001
      f-1     :    -0.000000
      f+2     :     0.000000
      f-2     :     0.000000
      f+3     :     0.000014
      f-3     :     0.000011

  8 C s       :    -0.000077  s :    -0.000077
      pz      :     0.000083  p :     0.001609
      px      :     0.000348
      py      :     0.001178
      dz2     :     0.000039  d :     0.000329
      dxz     :    -0.000011
      dyz     :     0.000001
      dx2y2   :     0.000298
      dxy     :     0.000003
      f0      :    -0.000001  f :     0.000009
      f+1     :     0.000000
      f-1     :     0.000000
      f+2     :     0.000003
      f-2     :     0.000000
      f+3     :     0.000004
      f-3     :     0.000003

  9 C s       :     0.000257  s :     0.000257
      pz      :     0.000042  p :     0.000278
      px      :     0.000188
      py      :     0.000048
      dz2     :     0.000001  d :     0.000045
      dxz     :     0.000002
      dyz     :    -0.000003
      dx2y2   :     0.000006
      dxy     :     0.000040
      f0      :    -0.000000  f :     0.000004
      f+1     :     0.000000
      f-1     :     0.000000
      f+2     :     0.000000
      f-2     :     0.000001
      f+3     :     0.000001
      f-3     :     0.000003

 10 F s       :    -0.000650  s :    -0.000650
      pz      :     0.014965  p :     0.029235
      px      :     0.009641
      py      :     0.004629
      dz2     :     0.000008  d :    -0.000006
      dxz     :     0.000041
      dyz     :    -0.000035
      dx2y2   :     0.000001
      dxy     :    -0.000021
      f0      :     0.000000  f :     0.000005
      f+1     :     0.000001
      f-1     :    -0.000000
      f+2     :     0.000001
      f-2     :     0.000001
      f+3     :     0.000002
      f-3     :    -0.000001

 11 F s       :    -0.000257  s :    -0.000257
      pz      :     0.013135  p :     0.013938
      px      :     0.000917
      py      :    -0.000114
      dz2     :    -0.000014  d :     0.000014
      dxz     :     0.000027
      dyz     :     0.000010
      dx2y2   :    -0.000000
      dxy     :    -0.000008
      f0      :     0.000000  f :    -0.000001
      f+1     :     0.000001
      f-1     :     0.000000
      f+2     :    -0.000001
      f-2     :    -0.000001
      f+3     :     0.000000
      f-3     :    -0.000000

 12 F s       :     0.003395  s :     0.003395
      pz      :    -0.010342  p :     0.083020
      px      :     0.007715
      py      :     0.085647
      dz2     :     0.000157  d :     0.001660
      dxz     :     0.000153
      dyz     :     0.001273
      dx2y2   :     0.000037
      dxy     :     0.000040
      f0      :    -0.000008  f :     0.000034
      f+1     :     0.000003
      f-1     :     0.000034
      f+2     :     0.000002
      f-2     :     0.000003
      f+3     :    -0.000000
      f-3     :    -0.000000

 13 F s       :     0.000146  s :     0.000146
      pz      :     0.004758  p :     0.014204
      px      :     0.004824
      py      :     0.004622
      dz2     :     0.000018  d :    -0.000021
      dxz     :    -0.000020
      dyz     :    -0.000022
      dx2y2   :     0.000025
      dxy     :    -0.000022
      f0      :     0.000001  f :     0.000006
      f+1     :     0.000001
      f-1     :     0.000000
      f+2     :     0.000001
      f-2     :     0.000001
      f+3     :     0.000002
      f-3     :     0.000000

 14 F s       :     0.000082  s :     0.000082
      pz      :     0.005990  p :     0.005117
      px      :    -0.000559
      py      :    -0.000315
      dz2     :    -0.000020  d :     0.000020
      dxz     :    -0.000017
      dyz     :     0.000008
      dx2y2   :     0.000037
[...]
 11:     51.86   0.000744    3.76  0.004476  (-0.037524  0.009053 -0.054648)
 12:     59.99   0.000002    0.01  0.000008  ( 0.001126  0.002481  0.000902)
 13:     76.92   0.000069    0.35  0.000280  ( 0.010330  0.012129  0.005099)
 14:    103.16   0.000063    0.32  0.000191  (-0.008046 -0.008808  0.007007)
 15:    123.62   0.000197    1.00  0.000498  ( 0.019531  0.005627 -0.009197)
 16:    155.11   0.000158    0.80  0.000317  (-0.016841 -0.000007 -0.005767)
 17:    165.94   0.000281    1.42  0.000528  ( 0.008554 -0.009639 -0.019013)
 18:    186.56   0.001043    5.27  0.001744  ( 0.016509 -0.004895  0.038049)
 19:    197.77   0.001593    8.05  0.002513  ( 0.009110  0.012715 -0.047626)
 20:    209.14   0.000115    0.58  0.000171  (-0.005902  0.011624  0.001147)
 21:    225.73   0.000108    0.55  0.000149  (-0.007330 -0.009412  0.002642)
 22:    244.57   0.000052    0.27  0.000067  ( 0.007798 -0.001873  0.001631)
 23:    247.40   0.000058    0.30  0.000074  ( 0.007907  0.000904 -0.003216)
 24:    255.58   0.000496    2.51  0.000606  (-0.021376 -0.007407  0.009695)
 25:    278.09   0.000265    1.34  0.000298  ( 0.012670  0.007711  0.008815)
 26:    285.49   0.001438    7.27  0.001571  ( 0.034592 -0.018823 -0.004522)
 27:    307.34   0.000006    0.03  0.000006  ( 0.000291  0.002520  0.000034)
 28:    319.62   0.000090    0.45  0.000088  (-0.006680 -0.006516  0.000764)
 29:    346.36   0.000415    2.10  0.000374  (-0.003273 -0.009423 -0.016568)
 30:    350.13   0.000078    0.39  0.000069  (-0.008084  0.000272 -0.002004)
 31:    361.45   0.000059    0.30  0.000051  ( 0.003100 -0.006425 -0.000464)
 32:    371.20   0.000617    3.12  0.000519  ( 0.014340  0.016737 -0.005766)
 33:    374.88   0.000091    0.46  0.000076  (-0.005522  0.006722 -0.000649)
 34:    407.38   0.000719    3.63  0.000551  ( 0.022258 -0.006298  0.003965)
 35:    424.33   0.002177   11.00  0.001601  ( 0.039923  0.001794  0.001895)
 36:    468.43   0.002118   10.70  0.001411  (-0.022422 -0.008370  0.028951)
 37:    494.98   0.003003   15.18  0.001893  ( 0.039499  0.001757 -0.018168)
 38:    522.18   0.004891   24.72  0.002923  ( 0.041572 -0.027406 -0.021068)
 39:    530.99   0.001263    6.38  0.000742  ( 0.006532 -0.025147  0.008192)
 40:    554.08   0.003449   17.43  0.001943  (-0.034596 -0.024874  0.011274)
 41:    559.95   0.008737   44.15  0.004869  ( 0.061986  0.006135  0.031454)
 42:    569.57   0.002983   15.07  0.001634  ( 0.003034 -0.032358 -0.024044)
 43:    594.90   0.006924   34.99  0.003632  (-0.056747  0.017717 -0.009886)
 44:    607.47   0.004717   23.84  0.002423  (-0.018474  0.005108 -0.045339)
 45:    626.82   0.036540  184.66  0.018192  ( 0.106815 -0.019316  0.080057)
 46:    652.48   0.040605  205.20  0.019420  ( 0.137256  0.003093 -0.023902)
 47:    667.07   0.003619   18.29  0.001693  ( 0.037632 -0.006565  0.015292)
 48:    698.74   0.014331   72.43  0.006401  ( 0.074180 -0.029081 -0.007217)
 49:    717.87   0.004684   23.67  0.002036  ( 0.038673 -0.020426 -0.011110)
 50:    758.32   0.001645    8.31  0.000677  (-0.009513  0.014467 -0.019419)
 51:    771.27   0.010791   54.53  0.004366  (-0.009632  0.000370  0.065371)
 52:    872.00   0.005182   26.19  0.001854  ( 0.022028 -0.034088 -0.014389)
 53:    988.38   0.015179   76.71  0.004792  ( 0.058875  0.021111  0.029673)
 54:   1036.07   0.057215  289.14  0.017233  ( 0.063812 -0.113188  0.018695)
 55:   1085.98   0.021783  110.08  0.006260  (-0.034824  0.070848  0.005230)
 56:   1107.90   0.010368   52.39  0.002920  ( 0.008849  0.049830  0.018946)
 57:   1116.03   0.027712  140.05  0.007749  (-0.060257  0.045269  0.045483)
 58:   1126.66   0.102626  518.63  0.028425  ( 0.061670  0.149910  0.046357)
 59:   1137.24   0.058866  297.48  0.016153  ( 0.033955 -0.048956 -0.112264)
 60:   1143.94   0.037936  191.71  0.010349  (-0.006203  0.005347 -0.101399)
 61:   1154.68   0.138729  701.08  0.037493  ( 0.019349  0.073899 -0.177925)
 62:   1156.67   0.033842  171.03  0.009131  (-0.002989 -0.095501  0.001105)
 63:   1164.65   0.088159  445.52  0.023622  (-0.003748  0.022271  0.152025)
 64:   1182.09   0.054952  277.71  0.014507  ( 0.018221 -0.085634  0.082715)
 65:   1186.57   0.025561  129.18  0.006723  (-0.068959  0.017208  0.040879)
 66:   1202.29   0.025265  127.68  0.006558  ( 0.016719  0.019282  0.076852)
 67:   1235.35   0.010226   51.68  0.002583  ( 0.040808 -0.029425 -0.007222)
 68:   1271.23   0.006154   31.10  0.001511  (-0.025725  0.024009 -0.016506)
 69:   1311.74   0.020841  105.32  0.004958  ( 0.059397  0.037362  0.005855)
 70:   1332.32   0.022483  113.62  0.005266  ( 0.070156 -0.009340 -0.016031)
 71:   1365.97   0.006582   33.26  0.001504  ( 0.033477  0.006577  0.018435)
 72:   1407.71   0.015350   77.57  0.003403  (-0.035488  0.024030  0.039573)
 73:   1824.18   0.092655  468.24  0.015851  ( 0.014729 -0.119676 -0.036211)
 74:   3613.73   0.050280  254.09  0.004342  (-0.054014 -0.017477  0.033450)

* The epsilon (eps) is given for a Dirac delta lineshape.
** The dipole moment derivative (T) already includes vibrational overlap.

The first frequency considered to be a vibration is 6
The total number of vibrations considered is 69


--------------------------
THERMOCHEMISTRY AT 298.15K
--------------------------

Temperature         ...   298.15 K
Pressure            ...     1.00 atm
Total Mass          ...   395.07 AMU
Quasi RRHO          ...     True
Cut-Off Frequency   ...     1.00 cm^-1

Throughout the following assumptions are being made:
  (1) The electronic state is orbitally nondegenerate
      but the spin degeneracy is treated
  (2) There are no thermally accessible electronically excited states
  (3) Hindered rotations indicated by low frequency modes are not
      treated as such but are treated as vibrations and this may
      cause some error
  (4) All equations used are the standard statistical mechanics
      equations for an ideal gas
  (5) All vibrations are strictly harmonic

freq.      25.62  E(vib)   ...       0.56 
freq.      26.54  E(vib)   ...       0.56 
freq.      37.31  E(vib)   ...       0.54 
freq.      46.20  E(vib)   ...       0.53 
freq.      47.98  E(vib)   ...       0.53 
freq.      51.86  E(vib)   ...       0.52 
freq.      59.99  E(vib)   ...       0.51 
freq.      76.92  E(vib)   ...       0.49 
freq.     103.16  E(vib)   ...       0.46 
freq.     123.62  E(vib)   ...       0.43 
freq.     155.11  E(vib)   ...       0.40 
freq.     165.94  E(vib)   ...       0.39 
freq.     186.56  E(vib)   ...       0.37 
freq.     197.77  E(vib)   ...       0.35 
freq.     209.14  E(vib)   ...       0.34 
freq.     225.73  E(vib)   ...       0.33 
freq.     244.57  E(vib)   ...       0.31 
freq.     247.40  E(vib)   ...       0.31 
freq.     255.58  E(vib)   ...       0.30 
freq.     278.09  E(vib)   ...       0.28 
freq.     285.49  E(vib)   ...       0.28 
freq.     307.34  E(vib)   ...       0.26 
freq.     319.62  E(vib)   ...       0.25 
freq.     346.36  E(vib)   ...       0.23 
freq.     350.13  E(vib)   ...       0.23 
freq.     361.45  E(vib)   ...       0.22 
freq.     371.20  E(vib)   ...       0.21 
freq.     374.88  E(vib)   ...       0.21 
freq.     407.38  E(vib)   ...       0.19 
freq.     424.33  E(vib)   ...       0.18 
freq.     468.43  E(vib)   ...       0.16 
freq.     494.98  E(vib)   ...       0.14 
freq.     522.18  E(vib)   ...       0.13 
freq.     530.99  E(vib)   ...       0.13 
freq.     554.08  E(vib)   ...       0.12 
freq.     559.95  E(vib)   ...       0.12 
freq.     569.57  E(vib)   ...       0.11 
freq.     594.90  E(vib)   ...       0.10 
freq.     607.47  E(vib)   ...       0.10 
freq.     626.82  E(vib)   ...       0.09 
freq.     652.48  E(vib)   ...       0.08 
freq.     667.07  E(vib)   ...       0.08 
freq.     698.74  E(vib)   ...       0.07 
freq.     717.87  E(vib)   ...       0.07 
freq.     758.32  E(vib)   ...       0.06 
freq.     771.27  E(vib)   ...       0.05 
freq.     872.00  E(vib)   ...       0.04 
freq.     988.38  E(vib)   ...       0.02 
freq.    1036.07  E(vib)   ...       0.02 
freq.    1085.98  E(vib)   ...       0.02 
freq.    1107.90  E(vib)   ...       0.02 
freq.    1116.03  E(vib)   ...       0.01 
freq.    1126.66  E(vib)   ...       0.01 
freq.    1137.24  E(vib)   ...       0.01 
freq.    1143.94  E(vib)   ...       0.01 
freq.    1154.68  E(vib)   ...       0.01 
freq.    1156.67  E(vib)   ...       0.01 
freq.    1164.65  E(vib)   ...       0.01 
freq.    1182.09  E(vib)   ...       0.01 
freq.    1186.57  E(vib)   ...       0.01 
freq.    1202.29  E(vib)   ...       0.01 
freq.    1235.35  E(vib)   ...       0.01 
freq.    1271.23  E(vib)   ...       0.01 
freq.    1311.74  E(vib)   ...       0.01 
freq.    1332.32  E(vib)   ...       0.01 
freq.    1365.97  E(vib)   ...       0.01 
freq.    1407.71  E(vib)   ...       0.00 
freq.    1824.18  E(vib)   ...       0.00 
freq.    3613.73  E(vib)   ...       0.00 

------------
INNER ENERGY
------------

The inner energy is: U= E(el) + E(ZPE) + E(vib) + E(rot) + E(trans)
    E(el)   - is the total energy from the electronic structure calculation
              = E(kin-el) + E(nuc-el) + E(el-el) + E(nuc-nuc)
    E(ZPE)  - the the zero temperature vibrational energy from the frequency calculation
    E(vib)  - the the finite temperature correction to E(ZPE) due to population
              of excited vibrational states
    E(rot)  - is the rotational thermal energy
    E(trans)- is the translational thermal energy

Summary of contributions to the inner energy U:
Electronic energy                ...  -1853.73495722 Eh
Zero point energy                ...      0.10509592 Eh      65.95 kcal/mol
Thermal vibrational correction   ...      0.02012145 Eh      12.63 kcal/mol
Thermal rotational correction    ...      0.00141627 Eh       0.89 kcal/mol
Thermal translational correction ...      0.00141627 Eh       0.89 kcal/mol
-----------------------------------------------------------------------
Total thermal energy                  -1853.60690730 Eh


Summary of corrections to the electronic energy:
(perhaps to be used in another calculation)
Total thermal correction                  0.02295400 Eh      14.40 kcal/mol
Non-thermal (ZPE) correction              0.10509592 Eh      65.95 kcal/mol
-----------------------------------------------------------------------
Total correction                          0.12804991 Eh      80.35 kcal/mol


--------
ENTHALPY
--------

The enthalpy is H = U + kB*T
                kB is Boltzmann's constant
Total thermal energy              ...  -1853.60690730 Eh 
Thermal Enthalpy correction       ...      0.00094421 Eh       0.59 kcal/mol
-----------------------------------------------------------------------
Total Enthalpy                    ...  -1853.60596309 Eh


Note: Only C1 symmetry has been detected, increase convergence thresholds 
      if your molecule has a higher symmetry. Symmetry factor of 1.0 is   
      used for the rotational entropy correction. 
 

Note: Rotational entropy computed according to Herzberg 
Infrared and Raman Spectra, Chapter V,1, Van Nostrand Reinhold, 1945 
Point Group:  C1, Symmetry Number:   1  
Rotational constants in cm-1:     0.020376     0.004060     0.003979 

Vibrational entropy computed according to the QRRHO of S. Grimme
Chem.Eur.J. 2012 18 9955 using a reference frequency of 100.0 cm-1


-------
ENTROPY
-------

The entropy contributions are T*S = T*(S(el)+S(vib)+S(rot)+S(trans))
     S(el)   - electronic entropy
     S(vib)  - vibrational entropy
     S(rot)  - rotational entropy
     S(trans)- translational entropy
The entropies will be listed as multiplied by the temperature to get
units of energy

Electronic entropy                ...      0.00065446 Eh      0.41 kcal/mol
Vibrational entropy               ...      0.03624363 Eh     22.74 kcal/mol
Rotational entropy                ...      0.01655756 Eh     10.39 kcal/mol
Translational entropy             ...      0.02081703 Eh     13.06 kcal/mol
-----------------------------------------------------------------------
Final entropy term                ...      0.07427267 Eh     46.61 kcal/mol

In case the symmetry of your molecule has not been determined correctly
or in case you have a reason to use a different symmetry number we print 
out the resulting rotational entropy values for sn=1,12:

 non-linear molecules -----------------------------------
|  sn= 1 | S(rot)=       0.01655756 Eh     10.39 kcal/mol|
|  sn= 2 | S(rot)=       0.01590310 Eh      9.98 kcal/mol|
|  sn= 3 | S(rot)=       0.01552027 Eh      9.74 kcal/mol|
|  sn= 4 | S(rot)=       0.01524864 Eh      9.57 kcal/mol|
|  sn= 5 | S(rot)=       0.01503796 Eh      9.44 kcal/mol|
|  sn= 6 | S(rot)=       0.01486581 Eh      9.33 kcal/mol|
|  sn= 7 | S(rot)=       0.01472026 Eh      9.24 kcal/mol|
|  sn= 8 | S(rot)=       0.01459419 Eh      9.16 kcal/mol|
|  sn= 9 | S(rot)=       0.01448298 Eh      9.09 kcal/mol|
|  sn=10 | S(rot)=       0.01438350 Eh      9.03 kcal/mol|
|  sn=11 | S(rot)=       0.01429351 Eh      8.97 kcal/mol|
|  sn=12 | S(rot)=       0.01421135 Eh      8.92 kcal/mol|
 linear molecules ---------------------------------------
|  Dinfh | S(rot)=       0.01054406 Eh      6.62 kcal/mol|
|  Cinfv | S(rot)=       0.01119852 Eh      7.03 kcal/mol|
 --------------------------------------------------------


-------------------
GIBBS FREE ENERGY
-------------------

The Gibbs free energy is G = H - T*S

Total enthalpy                    ...  -1853.60596309 Eh 
Total entropy correction          ...     -0.07427267 Eh    -46.61 kcal/mol
-----------------------------------------------------------------------
Final Gibbs free energy         ...  -1853.68023577 Eh

For completeness - the Gibbs free energy minus the electronic energy
G-E(el)                           ...      0.05472145 Eh     34.34 kcal/mol


Maximum memory used throughout the entire PROP-calculation: 545.0 MB

--------------------------------
SUGGESTED CITATIONS FOR THIS RUN
--------------------------------

Below you find a list of papers that are relevant to this ORCA run
We neither can nor want to force you to cite these papers, but we appreciate if you do
You receive ORCA, which is the product of decades of hard work by many enthusiastic individuals, for free
The only thing we kindly ask in return is that you cite our papers,
We deeply appreciate it, if you show your appreciation for ORCA by not just citing the generic ORCA reference.

Please note that relegating all ORCA citations to the supporting information does *not* help us.
SI sections are not indexed - citations you put there will not count into any citation statistics
But we need these citations in order to attract the funding resources that allow us to do what we are doing

Therefore, if you are a happy ORCA user, please consider citing a few of the papers listed below in the main body of your paper

In addition to the list printed below, the program has created the file rf_mecn_freq_B3L_C3_P_B.bibtex that contains the list in bibtex format
You can import this file easily into all common literature databanks and citation aid programs


List of essential papers. We consider these as the minimum necessary citations

  1. Neese,F.
     Software update: the ORCA program system, version 5.0
     WIRES Comput. Molec. Sci., 2022 12(1)e1606
     doi.org/10.1002/wcms.1606

List of papers to cite with high priority. The work reported in these papers was absolutely
necessary for this run to complete.
Our perspective: the developers of density functionals and basis sets usually get cited in chemistry papers
Good! But without the algorithms to do something with them, the functionals or basis sets would not do anything.
Hence, in our opinion, the algorithm design and method developments papers are equally worthy of getting cited

  1. Neese,F.
     An improvement of the resolution of the identity approximation for the formation of the Coulomb matrix
     J. Comp. Chem., 2003 24(14)1740-1747
     doi.org/10.1002/jcc.10318
  2. Neese,F.; Wennmohs,F.; Hansen,A.; Becker,U.
     Efficient, approximate and parallel Hartree-Fock and hybrid DFT calculations. A 'chain-of-spheres' algorithm for the Hartree-Fock exchange
     Chem. Phys., 2009 356(1-3)98-109
     doi.org/10.1016/j.chemphys.2008.10.036
  3. Bykov,D.; Petrenko,T.; Izsak,R.; Kossmann,S.; Becker,U.; Valeev,E.; Neese,F.
     Efficient implementation of the analytic second derivatives of Hartree-Fock and hybrid DFT energies: a detailed analysis of different approximations
     Molec. Phys., 2015 113 1961-1977
     doi.org/10.1080/00268976.2015.1025114
  4. Garcia-Rates,M.; Neese,F.
     Efficient implementation of the analytical second derivatives of hartree-fock and hybrid DFT energies within the framework of the conductor-like polarizable continuum model
     J. Comput. Chem., 2019 40 1816-1828
     doi.org/10.1002/jcc.25833
  5. Garcia-Rates,M.; Neese,F.
     Effect of the Solute Cavity on the Solvation Energy and its Derivatives within the Framework of the Gaussian Charge Scheme
     J. Comput. Chem., 2020 41 922-939
     doi.org/10.1002/jcc.26139
  6. Helmich-Paris,B.; de Souza,B.; Neese,F.; Izsák,R.
     An improved chain of spheres for exchange algorithm
     J. Chem. Phys., 2021 155 104109
     doi.org/doi: 10.1063/5.0058766.
  7. Neese,F.
     The SHARK Integral Generation and Digestion System
     J. Comp. Chem., 2022  1-16
     doi.org/10.1002/jcc.26942
  8. Grimme,S.; Antony,J.; Ehrlich,S.; Krieg,H.
     A consistent and accurate ab initio parametrization of density functional dispersion correction (DFT-D) for the 94 elements H-Pu
     J. Chem. Phys., 2010 132 154104
     doi.org/10.1063/1.3382344
  9. Grimme,S.; Ehrlich,S.; Goerigk,L.
     Effect of the damping function in dispersion corrected density functional theory
     J. Comput. Chem., 2011 32(7)1456-1465
     doi.org/10.1002/jcc.21759

List of suggested additional citations. These are papers that are important in the 'surrounding' of 
of this run, or papers that preceded the highly important papers. If you like your results we are grateful for a citation.

  1. Izsak,R.; Neese,F.
     An overlap fitted chain of spheres exchange method
     J. Chem. Phys., 2011 135 144105
     doi.org/10.1063/1.3646921
  2. Izsak,R.; Hansen,A.; Neese,F.
     The resolution of identity and chain of spheres approximations for the LPNO-CCSD singles Fock term
     Molec. Phys., 2012 110 2413-2417
     doi.org/10.1080/00268976.2012.687466
  3. Neese,F.
     The ORCA program system
     WIRES Comput. Molec. Sci., 2012 2(1)73-78
     doi.org/10.1002/wcms.81
  4. Izsak,R.; Neese,F.; Klopper,W.
     Robust fitting techniques in the chain of spheres approximation to the Fock exchange: The role of the complementary space
     J. Chem. Phys., 2013 139 
     doi.org/10.1063/1.4819264
  5. Neese,F.
     Software update: the ORCA program system, version 4.0
     WIRES Comput. Molec. Sci., 2018 8(1)1-6
     doi.org/10.1002/wcms.1327
  6. Neese,F.; Wennmohs,F.; Becker,U.; Riplinger,C.
     The ORCA quantum chemistry program package
     J. Chem. Phys., 2020 152 Art. No. L224108
     doi.org/10.1063/5.0004608

List of optional additional citations

  1. Neese,F.
     Approximate second-order SCF convergence for spin unrestricted wavefunctions
     Chem. Phys. Lett., 2000 325(1-3)93-98
     doi.org/10.1016/s0009-2614(00)00662-x

Timings for individual modules:

Sum of individual times          ...     1189.647 sec (=  19.827 min)
Startup calculation              ...        4.165 sec (=   0.069 min)   0.4 %
SCF iterations                   ...       92.436 sec (=   1.541 min)   7.8 %
Property integrals               ...      265.375 sec (=   4.423 min)  22.3 %
SCF Response                     ...      555.629 sec (=   9.260 min)  46.7 %
Property calculations            ...      272.042 sec (=   4.534 min)  22.9 %
                             ****ORCA TERMINATED NORMALLY****
TOTAL RUN TIME: 0 days 0 hours 19 minutes 50 seconds 472 msec
