
                                 *****************
                                 * O   R   C   A *
                                 *****************

                                            #,                                       
                                            ###                                      
                                            ####                                     
                                            #####                                    
                                            ######                                   
                                           ########,                                 
                                     ,,################,,,,,                         
                               ,,#################################,,                 
                          ,,##########################################,,             
                       ,#########################################, ''#####,          
                    ,#############################################,,   '####,        
                  ,##################################################,,,,####,       
                ,###########''''           ''''###############################       
              ,#####''   ,,,,##########,,,,          '''####'''          '####       
            ,##' ,,,,###########################,,,                        '##       
           ' ,,###''''                  '''############,,,                           
         ,,##''                                '''############,,,,        ,,,,,,###''
      ,#''                                            '''#######################'''  
     '                                                          ''''####''''         
             ,#######,   #######,   ,#######,      ##                                
            ,#'     '#,  ##    ##  ,#'     '#,    #''#        ######   ,####,        
            ##       ##  ##   ,#'  ##            #'  '#       #        #'  '#        
            ##       ##  #######   ##           ,######,      #####,   #    #        
            '#,     ,#'  ##    ##  '#,     ,#' ,#      #,         ##   #,  ,#        
             '#######'   ##     ##  '#######'  #'      '#     #####' # '####'        



                  #######################################################
                  #                        -***-                        #
                  #          Department of theory and spectroscopy      #
                  #    Directorship and core code : Frank Neese         #
                  #        Max Planck Institute fuer Kohlenforschung    #
                  #                Kaiser Wilhelm Platz 1               #
                  #                 D-45470 Muelheim/Ruhr               #
                  #                      Germany                        #
                  #                                                     #
                  #                  All rights reserved                #
                  #                        -***-                        #
                  #######################################################


                         Program Version 5.0.3 -  RELEASE  -


 With contributions from (in alphabetic order):
   Daniel Aravena         : Magnetic Suceptibility
   Michael Atanasov       : Ab Initio Ligand Field Theory (pilot matlab implementation)
   Alexander A. Auer      : GIAO ZORA, VPT2 properties, NMR spectrum
   Ute Becker             : Parallelization
   Giovanni Bistoni       : ED, misc. LED, open-shell LED, HFLD
   Martin Brehm           : Molecular dynamics
   Dmytro Bykov           : SCF Hessian
   Vijay G. Chilkuri      : MRCI spin determinant printing, contributions to CSF-ICE
   Dipayan Datta          : RHF DLPNO-CCSD density
   Achintya Kumar Dutta   : EOM-CC, STEOM-CC
   Dmitry Ganyushin       : Spin-Orbit,Spin-Spin,Magnetic field MRCI
   Miquel Garcia          : C-PCM and meta-GGA Hessian, CC/C-PCM, Gaussian charge scheme
   Yang Guo               : DLPNO-NEVPT2, F12-NEVPT2, CIM, IAO-localization
   Andreas Hansen         : Spin unrestricted coupled pair/coupled cluster methods
   Benjamin Helmich-Paris : MC-RPA, TRAH-SCF, COSX integrals
   Lee Huntington         : MR-EOM, pCC
   Robert Izsak           : Overlap fitted RIJCOSX, COSX-SCS-MP3, EOM
   Marcus Kettner         : VPT2
   Christian Kollmar      : KDIIS, OOCD, Brueckner-CCSD(T), CCSD density, CASPT2, CASPT2-K
   Simone Kossmann        : Meta GGA functionals, TD-DFT gradient, OOMP2, MP2 Hessian
   Martin Krupicka        : Initial AUTO-CI
   Lucas Lang             : DCDCAS
   Marvin Lechner         : AUTO-CI (C++ implementation), FIC-MRCC
   Dagmar Lenk            : GEPOL surface, SMD
   Dimitrios Liakos       : Extrapolation schemes; Compound Job, initial MDCI parallelization
   Dimitrios Manganas     : Further ROCIS development; embedding schemes
   Dimitrios Pantazis     : SARC Basis sets
   Anastasios Papadopoulos: AUTO-CI, single reference methods and gradients
   Taras Petrenko         : DFT Hessian,TD-DFT gradient, ASA, ECA, R-Raman, ABS, FL, XAS/XES, NRVS
   Peter Pinski           : DLPNO-MP2, DLPNO-MP2 Gradient
   Christoph Reimann      : Effective Core Potentials
   Marius Retegan         : Local ZFS, SOC
   Christoph Riplinger    : Optimizer, TS searches, QM/MM, DLPNO-CCSD(T), (RO)-DLPNO pert. Triples
   Tobias Risthaus        : Range-separated hybrids, TD-DFT gradient, RPA, STAB
   Michael Roemelt        : Original ROCIS implementation
   Masaaki Saitow         : Open-shell DLPNO-CCSD energy and density
   Barbara Sandhoefer     : DKH picture change effects
   Avijit Sen             : IP-ROCIS
   Kantharuban Sivalingam : CASSCF convergence, NEVPT2, FIC-MRCI
   Bernardo de Souza      : ESD, SOC TD-DFT
   Georgi Stoychev        : AutoAux, RI-MP2 NMR, DLPNO-MP2 response
   Willem Van den Heuvel  : Paramagnetic NMR
   Boris Wezisla          : Elementary symmetry handling
   Frank Wennmohs         : Technical directorship


 We gratefully acknowledge several colleagues who have allowed us to
 interface, adapt or use parts of their codes:
   Stefan Grimme, W. Hujo, H. Kruse, P. Pracht,  : VdW corrections, initial TS optimization,
                  C. Bannwarth, S. Ehlert          DFT functionals, gCP, sTDA/sTD-DF
   Ed Valeev, F. Pavosevic, A. Kumar             : LibInt (2-el integral package), F12 methods
   Garnet Chan, S. Sharma, J. Yang, R. Olivares  : DMRG
   Ulf Ekstrom                                   : XCFun DFT Library
   Mihaly Kallay                                 : mrcc  (arbitrary order and MRCC methods)
   Jiri Pittner, Ondrej Demel                    : Mk-CCSD
   Frank Weinhold                                : gennbo (NPA and NBO analysis)
   Christopher J. Cramer and Donald G. Truhlar   : smd solvation model
   Lars Goerigk                                  : TD-DFT with DH, B97 family of functionals
   V. Asgeirsson, H. Jonsson                     : NEB implementation
   FAccTs GmbH                                   : IRC, NEB, NEB-TS, DLPNO-Multilevel, CI-OPT
                                                   MM, QMMM, 2- and 3-layer-ONIOM, Crystal-QMMM,
                                                   LR-CPCM, SF, NACMEs, symmetry and pop. for TD-DFT,
                                                   nearIR, NL-DFT gradient (VV10), updates on ESD,
                                                   ML-optimized integration grids
   S Lehtola, MJT Oliveira, MAL Marques          : LibXC Library
   Liviu Ungur et al                             : ANISO software


 Your calculation uses the libint2 library for the computation of 2-el integrals
 For citations please refer to: http://libint.valeyev.net

 Your ORCA version has been built with support for libXC version: 5.1.0
 For citations please refer to: https://tddft.org/programs/libxc/

 This ORCA versions uses:
   CBLAS   interface :  Fast vector & matrix operations
   LAPACKE interface :  Fast linear algebra routines
   SCALAPACK package :  Parallel linear algebra routines
   Shared memory     :  Shared parallel matrices
   BLAS/LAPACK       :  OpenBLAS 0.3.15  USE64BITINT DYNAMIC_ARCH NO_AFFINITY SkylakeX SINGLE_THREADED
        Core in use  :  SkylakeX
   Copyright (c) 2011-2014, The OpenBLAS Project


Your calculation utilizes the atom-pairwise dispersion correction
with the Becke-Johnson damping scheme (D3BJ)
Cite in your paper:
S.Grimme, S.Ehrlich, L.Goerigk, J Comput Chem, (2011), 32, 1456–1465 
S.Grimme, J.Antony, S.Ehrlich and H.Krieg, J.Chem.Phys., 132, (2010), 154104 
   

Your calculation utilizes the SMD solvation module
Please cite in your paper:
A.V. Marenich, C.J. Cramer, D.G. Truhlar J. Phys. Chem. B, 113, (2009), 6378 

================================================================================

----- Orbital basis set information -----
Your calculation utilizes the basis: def2-TZVP
   F. Weigend and R. Ahlrichs, Phys. Chem. Chem. Phys. 7, 3297 (2005).

----- AuxJ basis set information -----
Your calculation utilizes the auxiliary basis: def2/J
   F. Weigend, Phys. Chem. Chem. Phys. 8, 1057 (2006).

================================================================================
                                        WARNINGS
                       Please study these warnings very carefully!
================================================================================


WARNING: your system is open-shell and RHF/RKS was chosen
  ===> : WILL SWITCH to UHF/UKS


WARNING: Geometry Optimization
  ===> : Switching off AutoStart
         For restart on a previous wavefunction, please use MOREAD

INFO   : the flag for use of the SHARK integral package has been found!

================================================================================
                                       INPUT FILE
================================================================================
NAME = rf_mecn_opt_B3L_C3_D_B.inp
|  1> !B3LYP def2-TZVP opt d3 TightSCF SlowConv defgrid2
|  2>  
|  3> %pal
|  4> nprocs 20
|  5> end
|  6>  
|  7> %scf
|  8> MaxIter 1500
|  9> end
| 10>  
| 11> %maxcore 8000
| 12>  
| 13> !CPCM
| 14> %cpcm smd true
| 15> SMDsolvent "ACETONITRILE"
| 16> end
| 17>  
| 18> * xyz -1 2
| 19> 6        4.790427000     -0.033865800     -0.529943200
| 20> 8        5.449345000     -1.206924000     -0.894594600
| 21> 8        4.978223000      1.323071000     -0.737377200
| 22> 6        3.506687600     -0.338741600      0.376153800
| 23> 6        2.222300000      0.400524800     -0.110681600
| 24> 6        0.900506800     -0.386389800      0.175703000
| 25> 6       -0.395261200      0.487294000      0.065549000
| 26> 6       -1.705693600     -0.364773800     -0.068373600
| 27> 6       -3.005136200      0.445344800      0.258164000
| 28> 6       -4.319880200     -0.214526000     -0.270540800
| 29> 9        3.211587400     -1.692050400      0.412735200
| 30> 9        3.741061800      0.055285800      1.689948800
| 31> 9        2.125696800      1.616867800      0.483236600
| 32> 9        0.794028800     -1.413561400     -0.700839000
| 33> 9        0.958350600     -0.884509000      1.435093400
| 34> 9       -0.498373400      1.260265600      1.173340200
| 35> 9       -0.299075000      1.289512600     -1.020910800
| 36> 9       -1.641790400     -1.418189000      0.779523800
| 37> 9       -1.792381400     -0.831391600     -1.336863600
| 38> 9       -2.918792200      1.679227200     -0.295171200
| 39> 9       -3.119771000      0.573779800      1.598579800
| 40> 9       -4.383115600     -1.504377600      0.089127600
| 41> 9       -5.365669800      0.430528600      0.260394200
| 42> 9       -4.396020400     -0.128550600     -1.602941800
| 43> *
| 44> 
| 45>                          ****END OF INPUT****
================================================================================

                       *****************************
                       * Geometry Optimization Run *
                       *****************************

Geometry optimization settings:
Update method            Update   .... BFGS
Choice of coordinates    CoordSys .... Z-matrix Internals
Initial Hessian          InHess   .... Almoef's Model

Convergence Tolerances:
Energy Change            TolE     ....  5.0000e-06 Eh
Max. Gradient            TolMAXG  ....  3.0000e-04 Eh/bohr
RMS Gradient             TolRMSG  ....  1.0000e-04 Eh/bohr
Max. Displacement        TolMAXD  ....  4.0000e-03 bohr
RMS Displacement         TolRMSD  ....  2.0000e-03 bohr
Strict Convergence                ....  False
------------------------------------------------------------------------------
                        ORCA OPTIMIZATION COORDINATE SETUP
------------------------------------------------------------------------------

The optimization will be done in new redundant internal coordinates
Making redundant internal coordinates   ...  (new redundants) done
Evaluating the initial hessian          ...  (Almloef) done
Evaluating the coordinates              ...  done
Calculating the B-matrix                .... done
Calculating the G-matrix                .... done
Diagonalizing the G-matrix              .... done
Small eigenvalue found = 5.678e-03
Small eigenvalue found = 1.583e-02
The first mode is                       ....   53
The number of degrees of freedom        ....   66

    -----------------------------------------------------------------
                    Redundant Internal Coordinates


    -----------------------------------------------------------------
         Definition                    Initial Value    Approx d2E/dq
    -----------------------------------------------------------------
      1. B(O   1,C   0)                  1.3940         0.551454   
      2. B(O   2,C   0)                  1.3855         0.568952   
      3. B(C   3,C   0)                  1.6006         0.288221   
      4. B(C   4,C   3)                  1.5599         0.334759   
      5. B(C   5,C   4)                  1.5647         0.328824   
      6. B(C   6,C   5)                  1.5667         0.326486   
      7. B(C   7,C   6)                  1.5688         0.323927   
      8. B(C   8,C   7)                  1.5657         0.327637   
      9. B(C   9,C   8)                  1.5632         0.330714   
     10. B(F  10,C   3)                  1.3856         0.528443   
     11. B(F  11,C   3)                  1.3915         0.517117   
     12. B(F  12,C   4)                  1.3570         0.586881   
     13. B(F  13,C   5)                  1.3545         0.592326   
     14. B(F  14,C   5)                  1.3556         0.590092   
     15. B(F  15,C   6)                  1.3547         0.591865   
     16. B(F  16,C   6)                  1.3540         0.593567   
     17. B(F  17,C   7)                  1.3538         0.593973   
     18. B(F  18,C   7)                  1.3544         0.592672   
     19. B(F  19,C   8)                  1.3550         0.591238   
     20. B(F  20,C   8)                  1.3514         0.599114   
     21. B(F  21,C   9)                  1.3406         0.623533   
     22. B(F  22,C   9)                  1.3385         0.628179   
     23. B(F  23,C   9)                  1.3373         0.630929   
     24. A(O   2,C   0,C   3)          112.3347         0.371210   
     25. A(O   1,C   0,C   3)          111.5249         0.369222   
     26. A(O   1,C   0,O   2)          136.1318         0.413163   
     27. A(C   4,C   3,F  11)          107.4072         0.373095   
     28. A(C   4,C   3,F  10)          107.2033         0.374492   
     29. A(C   0,C   3,F  10)          111.8265         0.364982   
     30. A(C   0,C   3,C   4)          113.1687         0.341363   
     31. A(C   0,C   3,F  11)          110.2099         0.363632   
     32. A(F  10,C   3,F  11)          106.7094         0.399684   
     33. A(C   3,C   4,F  12)          110.2926         0.381351   
     34. A(C   3,C   4,C   5)          113.5839         0.349005   
     35. A(C   5,C   4,F  12)          108.0911         0.380169   
     36. A(C   4,C   5,C   6)          113.9128         0.347536   
     37. A(C   6,C   5,F  14)          107.7906         0.380059   
     38. A(C   4,C   5,F  13)          109.2282         0.380779   
     39. A(C   6,C   5,F  13)          108.2026         0.380308   
     40. A(F  13,C   5,F  14)          109.0206         0.417483   
     41. A(C   4,C   5,F  14)          108.5900         0.380529   
     42. A(C   5,C   6,C   7)          113.2023         0.346660   
     43. A(F  15,C   6,F  16)          108.8752         0.417862   
     44. A(C   7,C   6,F  16)          108.2186         0.379927   
     45. A(C   5,C   6,F  16)          109.1523         0.380446   
     46. A(C   7,C   6,F  15)          108.4284         0.379738   
     47. A(C   5,C   6,F  15)          108.8835         0.380256   
     48. A(C   8,C   7,F  18)          108.6915         0.380579   
     49. A(C   6,C   7,F  18)          108.6955         0.379828   
     50. A(C   8,C   7,F  17)          108.1296         0.380723   
     51. A(C   6,C   7,F  17)          109.2524         0.379972   
     52. A(C   6,C   7,C   8)          113.2298         0.346865   
     53. A(F  17,C   7,F  18)          108.7561         0.418014   
     54. A(F  19,C   8,F  20)          108.8987         0.418476   
     55. A(C   7,C   8,C   9)          114.1471         0.348078   
     56. A(C   9,C   8,F  20)          107.7127         0.381912   
     57. A(C   7,C   8,F  20)          109.0521         0.381293   
     58. A(C   9,C   8,F  19)          107.4499         0.381036   
     59. A(C   7,C   8,F  19)          109.4572         0.380419   
     60. A(F  22,C   9,F  23)          108.6464         0.426961   
     61. A(F  21,C   9,F  23)          109.0552         0.426394   
     62. A(C   8,C   9,F  23)          110.9604         0.385362   
     63. A(F  21,C   9,F  22)          108.6877         0.426061   
     64. A(C   8,C   9,F  22)          108.6349         0.385069   
     65. A(C   8,C   9,F  21)          110.7995         0.384572   
     66. D(F  11,C   3,C   0,O   2)    -70.4768         0.006601   
     67. D(F  11,C   3,C   0,O   1)    108.6317         0.006601   
     68. D(F  10,C   3,C   0,O   1)     -9.8890         0.006601   
     69. D(F  10,C   3,C   0,O   2)    171.0025         0.006601   
     70. D(C   4,C   3,C   0,O   1)   -131.0839         0.006601   
     71. D(C   4,C   3,C   0,O   2)     49.8076         0.006601   
     72. D(F  12,C   4,C   3,F  10)    146.3851         0.008543   
     73. D(F  12,C   4,C   3,C   0)    -89.8453         0.008543   
     74. D(C   5,C   4,C   3,C   0)    148.6429         0.008543   
     75. D(F  12,C   4,C   3,F  11)     32.0233         0.008543   
     76. D(C   5,C   4,C   3,F  10)     24.8733         0.008543   
     77. D(C   5,C   4,C   3,F  11)    -89.4885         0.008543   
     78. D(F  13,C   5,C   4,C   3)    -74.9661         0.008276   
     79. D(C   6,C   5,C   4,F  12)     41.2001         0.008276   
     80. D(C   6,C   5,C   4,C   3)    163.9326         0.008276   
     81. D(F  14,C   5,C   4,F  12)    -78.9166         0.008276   
     82. D(F  14,C   5,C   4,C   3)     43.8158         0.008276   
     83. D(F  13,C   5,C   4,F  12)    162.3014         0.008276   
     84. D(F  16,C   6,C   5,C   4)     42.3872         0.008700   
     85. D(F  15,C   6,C   5,F  14)     44.2190         0.008700   
     86. D(F  16,C   6,C   5,F  13)    -79.2837         0.008700   
     87. D(F  15,C   6,C   5,F  13)    161.9826         0.008700   
     88. D(F  15,C   6,C   5,C   4)    -76.3465         0.008700   
     89. D(C   7,C   6,C   5,F  13)     41.3107         0.008700   
     90. D(C   7,C   6,C   5,F  14)    -76.4529         0.008700   
     91. D(F  16,C   6,C   5,F  14)    162.9527         0.008700   
     92. D(C   7,C   6,C   5,C   4)    162.9815         0.008700   
     93. D(F  17,C   7,C   6,C   5)     41.7939         0.008578   
     94. D(C   8,C   7,C   6,F  16)    -76.5134         0.008578   
     95. D(C   8,C   7,C   6,F  15)     41.4341         0.008578   
     96. D(C   8,C   7,C   6,C   5)    162.3638         0.008578   
     97. D(F  18,C   7,C   6,F  16)     44.3783         0.008578   
     98. D(F  18,C   7,C   6,F  15)    162.3257         0.008578   
     99. D(F  18,C   7,C   6,C   5)    -76.7446         0.008578   
    100. D(F  17,C   7,C   6,F  16)    162.9167         0.008578   
    101. D(F  17,C   7,C   6,F  15)    -79.1358         0.008578   
    102. D(F  20,C   8,C   7,F  18)    162.0243         0.008755   
    103. D(F  20,C   8,C   7,F  17)     44.1231         0.008755   
    104. D(F  20,C   8,C   7,C   6)    -77.0818         0.008755   
    105. D(F  19,C   8,C   7,F  18)    -78.9355         0.008755   
    106. D(F  19,C   8,C   7,F  17)    163.1633         0.008755   
    107. D(F  19,C   8,C   7,C   6)     41.9584         0.008755   
    108. D(C   9,C   8,C   7,F  18)     41.5227         0.008755   
    109. D(C   9,C   8,C   7,F  17)    -76.3785         0.008755   
    110. D(C   9,C   8,C   7,C   6)    162.4166         0.008755   
    111. D(F  23,C   9,C   8,F  20)    167.4828         0.008903   
    112. D(F  23,C   9,C   8,F  19)     50.3013         0.008903   
    113. D(F  23,C   9,C   8,C   7)    -71.2711         0.008903   
    114. D(F  22,C   9,C   8,F  20)     48.1091         0.008903   
    115. D(F  22,C   9,C   8,F  19)    -69.0724         0.008903   
    116. D(F  22,C   9,C   8,C   7)    169.3552         0.008903   
    117. D(F  21,C   9,C   8,F  20)    -71.2185         0.008903   
    118. D(F  21,C   9,C   8,F  19)    171.5999         0.008903   
    119. D(F  21,C   9,C   8,C   7)     50.0276         0.008903   
    -----------------------------------------------------------------

Number of atoms                         .... 24
Number of degrees of freedom            .... 119

         *************************************************************
         *                GEOMETRY OPTIMIZATION CYCLE   1            *
         *************************************************************
---------------------------------
CARTESIAN COORDINATES (ANGSTROEM)
---------------------------------
  C      4.790427   -0.033866   -0.529943
  O      5.449345   -1.206924   -0.894595
  O      4.978223    1.323071   -0.737377
  C      3.506688   -0.338742    0.376154
  C      2.222300    0.400525   -0.110682
  C      0.900507   -0.386390    0.175703
  C     -0.395261    0.487294    0.065549
  C     -1.705694   -0.364774   -0.068374
  C     -3.005136    0.445345    0.258164
  C     -4.319880   -0.214526   -0.270541
  F      3.211587   -1.692050    0.412735
  F      3.741062    0.055286    1.689949
  F      2.125697    1.616868    0.483237
  F      0.794029   -1.413561   -0.700839
  F      0.958351   -0.884509    1.435093
  F     -0.498373    1.260266    1.173340
  F     -0.299075    1.289513   -1.020911
  F     -1.641790   -1.418189    0.779524
  F     -1.792381   -0.831392   -1.336864
  F     -2.918792    1.679227   -0.295171
  F     -3.119771    0.573780    1.598580
  F     -4.383116   -1.504378    0.089128
  F     -5.365670    0.430529    0.260394
  F     -4.396020   -0.128551   -1.602942

----------------------------
CARTESIAN COORDINATES (A.U.)
----------------------------
  NO LB      ZA    FRAG     MASS         X           Y           Z
   0 C     6.0000    0    12.011    9.052595   -0.063997   -1.001448
   1 O     8.0000    0    15.999   10.297770   -2.280756   -1.690539
   2 O     8.0000    0    15.999    9.407478    2.500242   -1.393441
   3 C     6.0000    0    12.011    6.626679   -0.640129    0.710828
   4 C     6.0000    0    12.011    4.199538    0.756882   -0.209158
   5 C     6.0000    0    12.011    1.701711   -0.730171    0.332031
   6 C     6.0000    0    12.011   -0.746935    0.920852    0.123870
   7 C     6.0000    0    12.011   -3.223294   -0.689323   -0.129207
   8 C     6.0000    0    12.011   -5.678884    0.841580    0.487859
   9 C     6.0000    0    12.011   -8.163391   -0.405395   -0.511248
  10 F     9.0000    0    18.998    6.069021   -3.197512    0.779956
  11 F     9.0000    0    18.998    7.069582    0.104475    3.193540
  12 F     9.0000    0    18.998    4.016985    3.055437    0.913185
  13 F     9.0000    0    18.998    1.500497   -2.671244   -1.324394
  14 F     9.0000    0    18.998    1.811020   -1.671480    2.711934
  15 F     9.0000    0    18.998   -0.941789    2.381557    2.217292
  16 F     9.0000    0    18.998   -0.565170    2.436826   -1.929242
  17 F     9.0000    0    18.998   -3.102534   -2.679989    1.473086
  18 F     9.0000    0    18.998   -3.387110   -1.571102   -2.526306
  19 F     9.0000    0    18.998   -5.515718    3.173280   -0.557793
  20 F     9.0000    0    18.998   -5.895513    1.084287    3.020878
  21 F     9.0000    0    18.998   -8.282888   -2.842862    0.168427
  22 F     9.0000    0    18.998  -10.139646    0.813581    0.492074
  23 F     9.0000    0    18.998   -8.307275   -0.242925   -3.029121

--------------------------------
INTERNAL COORDINATES (ANGSTROEM)
--------------------------------
 C      0   0   0     0.000000000000     0.00000000     0.00000000
 O      1   0   0     1.393990356793     0.00000000     0.00000000
 O      1   2   0     1.385486802956   136.13177198     0.00000000
 C      1   2   3     1.600608594862   111.52489317   181.18992567
 C      4   1   2     1.559863783763   113.16872737   228.91614990
 C      5   4   1     1.564732561934   113.58394786   148.64287440
 C      6   5   4     1.566675459667   113.91280616   163.93256239
 C      7   6   5     1.568817348692   113.20226571   162.98152714
 C      8   7   6     1.565717094808   113.22984595   162.36375422
 C      9   8   7     1.563173062643   114.14707705   162.41661495
 F      4   1   2     1.385592665621   111.82651119   350.11101305
 F      4   1   2     1.391490625050   110.20991618   108.63170802
 F      5   4   1     1.357041377479   110.29260564   270.15468021
 F      6   5   4     1.354527570075   109.22822656   285.03385927
 F      6   5   4     1.355556277776   108.59004089    43.81583148
 F      7   6   5     1.354739297058   108.88346185   283.65347401
 F      7   6   5     1.353957667090   109.15230848    42.38718856
 F      8   7   6     1.353771473879   109.25240264    41.79387651
 F      8   7   6     1.354368423305   108.69554158   283.25540020
 F      9   8   7     1.355028009646   109.45719767    41.95842364
 F      9   8   7     1.351425618925   109.05210362   282.91820052
 F     10   9   8     1.340551089588   110.79953142    50.02756898
 F     10   9   8     1.338530275591   108.63493714   169.35523750
 F     10   9   8     1.337341214598   110.96044107   288.72891896

---------------------------
INTERNAL COORDINATES (A.U.)
---------------------------
 C      0   0   0     0.000000000000     0.00000000     0.00000000
 O      1   0   0     2.634260007667     0.00000000     0.00000000
 O      1   2   0     2.618190619750   136.13177198     0.00000000
 C      1   2   3     3.024711891890   111.52489317   181.18992567
 C      4   1   2     2.947715357535   113.16872737   228.91614990
 C      5   4   1     2.956916014884   113.58394786   148.64287440
 C      6   5   4     2.960587559506   113.91280616   163.93256239
 C      7   6   5     2.964635143173   113.20226571   162.98152714
 C      8   7   6     2.958776512386   113.22984595   162.36375422
 C      9   8   7     2.953968988318   114.14707705   162.41661495
 F      4   1   2     2.618390671194   111.82651119   350.11101305
 F      4   1   2     2.629536199263   110.20991618   108.63170802
 F      5   4   1     2.564436555835   110.29260564   270.15468021
 F      6   5   4     2.559686148288   109.22822656   285.03385927
 F      6   5   4     2.561630124115   108.59004089    43.81583148
 F      7   6   5     2.560086254300   108.88346185   283.65347401
 F      7   6   5     2.558609187723   109.15230848    42.38718856
 F      8   7   6     2.558257333546   109.25240264    41.79387651
 F      8   7   6     2.559385404477   108.69554158   283.25540020
 F      9   8   7     2.560631842023   109.45719767    41.95842364
 F      9   8   7     2.553824310132   109.05210362   282.91820052
 F     10   9   8     2.533274427850   110.79953142    50.02756898
 F     10   9   8     2.529455642830   108.63493714   169.35523750
 F     10   9   8     2.527208643196   110.96044107   288.72891896

---------------------
BASIS SET INFORMATION
---------------------
There are 3 groups of distinct atoms

 Group   1 Type C   : 11s6p2d1f contracted to 5s3p2d1f pattern {62111/411/11/1}
 Group   2 Type O   : 11s6p2d1f contracted to 5s3p2d1f pattern {62111/411/11/1}
 Group   3 Type F   : 11s6p2d1f contracted to 5s3p2d1f pattern {62111/411/11/1}

Atom   0C    basis set group =>   1
Atom   1O    basis set group =>   2
Atom   2O    basis set group =>   2
Atom   3C    basis set group =>   1
Atom   4C    basis set group =>   1
Atom   5C    basis set group =>   1
Atom   6C    basis set group =>   1
Atom   7C    basis set group =>   1
Atom   8C    basis set group =>   1
Atom   9C    basis set group =>   1
Atom  10F    basis set group =>   3
Atom  11F    basis set group =>   3
Atom  12F    basis set group =>   3
Atom  13F    basis set group =>   3
Atom  14F    basis set group =>   3
Atom  15F    basis set group =>   3
Atom  16F    basis set group =>   3
Atom  17F    basis set group =>   3
Atom  18F    basis set group =>   3
Atom  19F    basis set group =>   3
Atom  20F    basis set group =>   3
Atom  21F    basis set group =>   3
Atom  22F    basis set group =>   3
Atom  23F    basis set group =>   3
---------------------------------
AUXILIARY/J BASIS SET INFORMATION
---------------------------------
There are 3 groups of distinct atoms

 Group   1 Type C   : 12s5p4d2f1g contracted to 6s4p3d1f1g pattern {711111/2111/211/2/1}
 Group   2 Type O   : 12s5p4d2f1g contracted to 6s4p3d1f1g pattern {711111/2111/211/2/1}
 Group   3 Type F   : 12s5p4d2f1g contracted to 6s4p3d1f1g pattern {711111/2111/211/2/1}

Atom   0C    basis set group =>   1
Atom   1O    basis set group =>   2
Atom   2O    basis set group =>   2
Atom   3C    basis set group =>   1
Atom   4C    basis set group =>   1
Atom   5C    basis set group =>   1
Atom   6C    basis set group =>   1
Atom   7C    basis set group =>   1
Atom   8C    basis set group =>   1
Atom   9C    basis set group =>   1
Atom  10F    basis set group =>   3
Atom  11F    basis set group =>   3
Atom  12F    basis set group =>   3
Atom  13F    basis set group =>   3
Atom  14F    basis set group =>   3
Atom  15F    basis set group =>   3
Atom  16F    basis set group =>   3
Atom  17F    basis set group =>   3
Atom  18F    basis set group =>   3
Atom  19F    basis set group =>   3
Atom  20F    basis set group =>   3
Atom  21F    basis set group =>   3
Atom  22F    basis set group =>   3
Atom  23F    basis set group =>   3


           ************************************************************
           *        Program running with 20 parallel MPI-processes    *
           *              working on a common directory               *
           ************************************************************
------------------------------------------------------------------------------
                           ORCA GTO INTEGRAL CALCULATION
                           -- RI-GTO INTEGRALS CHOSEN --
------------------------------------------------------------------------------
------------------------------------------------------------------------------
                   ___                                                        
                  /   \      - P O W E R E D   B Y -                         
                 /     \                                                     
                 |  |  |   _    _      __       _____    __    __             
                 |  |  |  | |  | |    /  \     |  _  \  |  |  /  |          
                  \  \/   | |  | |   /    \    | | | |  |  | /  /          
                 / \  \   | |__| |  /  /\  \   | |_| |  |  |/  /          
                |  |  |   |  __  | /  /__\  \  |    /   |      \           
                |  |  |   | |  | | |   __   |  |    \   |  |\   \          
                \     /   | |  | | |  |  |  |  | |\  \  |  | \   \       
                 \___/    |_|  |_| |__|  |__|  |_| \__\ |__|  \__/        
                                                                              
                      - O R C A' S   B I G   F R I E N D -                    
                                      &                                       
                       - I N T E G R A L  F E E D E R -                       
                                                                              
 v1 FN, 2020, v2 2021                                                         
------------------------------------------------------------------------------


Reading SHARK input file rf_mecn_opt_B3L_C3_D_B.SHARKINP.tmp ... ok
----------------------
SHARK INTEGRAL PACKAGE
----------------------

Number of atoms                             ...     24
Number of basis functions                   ...    744
Number of shells                            ...    264
Maximum angular momentum                    ...      3
Integral batch strategy                     ... SHARK/LIBINT Hybrid
RI-J (if used) integral strategy            ... SPLIT-RIJ (Revised 2003 algorithm where possible)
Printlevel                                  ...      1
Contraction scheme used                     ... SEGMENTED contraction
Coulomb Range Separation                    ... NOT USED
Exchange Range Separation                   ... NOT USED
Finite Nucleus Model                        ... NOT USED
Auxiliary Coulomb fitting basis             ... AVAILABLE
   # of basis functions in Aux-J            ...   1176
   # of shells in Aux-J                     ...    360
   Maximum angular momentum in Aux-J        ...      4
Auxiliary J/K fitting basis                 ... NOT available
Auxiliary Correlation fitting basis         ... NOT available
Auxiliary 'external' fitting basis          ... NOT available
Integral threshold                          ...     2.500000e-11
Primitive cut-off                           ...     2.500000e-12
Primitive pair pre-selection threshold      ...     2.500000e-12

Calculating pre-screening integrals         ... done (  0.1 sec) Dimension = 264
Organizing shell pair data                  ... done (  0.3 sec)
Shell pair information
Total number of shell pairs                 ...     34980
Shell pairs after pre-screening             ...     21558
Total number of primitive shell pairs       ...    115968
Primitive shell pairs kept                  ...     45891
          la=0 lb=0:   4029 shell pairs
          la=1 lb=0:   5862 shell pairs
          la=1 lb=1:   2053 shell pairs
          la=2 lb=0:   3201 shell pairs
          la=2 lb=1:   2374 shell pairs
          la=2 lb=2:    673 shell pairs
          la=3 lb=0:   1456 shell pairs
          la=3 lb=1:   1146 shell pairs
          la=3 lb=2:    615 shell pairs
          la=3 lb=3:    149 shell pairs

Calculating one electron integrals          ... done (  0.0 sec)
Calculating RI/J V-Matrix + Cholesky decomp.... done (  0.1 sec)
Calculating Nuclear repulsion               ... done (  0.0 sec) ENN=   2604.820551691798 Eh

SHARK setup successfully completed in   0.9 seconds

Maximum memory used throughout the entire GTOINT-calculation: 38.4 MB


           ************************************************************
           *        Program running with 20 parallel MPI-processes    *
           *              working on a common directory               *
           ************************************************************
-------------------------------------------------------------------------------
                                 ORCA SCF
-------------------------------------------------------------------------------

------------
SCF SETTINGS
------------
Hamiltonian:
 Density Functional     Method          .... DFT(GTOs)
 Exchange Functional    Exchange        .... B88
   X-Alpha parameter    XAlpha          ....  0.666667
   Becke's b parameter  XBeta           ....  0.004200
 Correlation Functional Correlation     .... LYP
 LDA part of GGA corr.  LDAOpt          .... VWN-5
 Gradients option       PostSCFGGA      .... off
 Hybrid DFT is turned on
   Fraction HF Exchange ScalHFX         ....  0.200000
   Scaling of DF-GGA-X  ScalDFX         ....  0.720000
   Scaling of DF-GGA-C  ScalDFC         ....  0.810000
   Scaling of DF-LDA-C  ScalLDAC        ....  1.000000
   Perturbative correction              ....  0.000000
   Density functional embedding theory  .... OFF
   NL short-range parameter             ....  4.800000
 RI-approximation to the Coulomb term is turned on
   Number of AuxJ basis functions       .... 1176
   RIJ-COSX (HFX calculated with COS-X)).... on


General Settings:
 Integral files         IntName         .... rf_mecn_opt_B3L_C3_D_B
 Hartree-Fock type      HFTyp           .... UHF
 Total Charge           Charge          ....   -1
 Multiplicity           Mult            ....    2
 Number of Electrons    NEL             ....  191
 Basis Dimension        Dim             ....  744
 Nuclear Repulsion      ENuc            ....   2604.8205516918 Eh

Convergence Acceleration:
 DIIS                   CNVDIIS         .... on
   Start iteration      DIISMaxIt       ....     0
   Startup error        DIISStart       ....  0.200000
   # of expansion vecs  DIISMaxEq       ....     5
   Bias factor          DIISBfac        ....   1.050
   Max. coefficient     DIISMaxC        ....  10.000
 Trust-Rad. Augm. Hess. CNVTRAH         .... auto
   Auto Start mean grad. ratio tolernc. ....  1.125000
   Auto Start start iteration           ....    20
   Auto Start num. interpolation iter.  ....    10
   Max. Number of Micro iterations      ....    16
   Max. Number of Macro iterations      .... Maxiter - #DIIS iter
   Number of Davidson start vectors     ....     2
   Converg. threshold I  (grad. norm)   ....   1.000e-05
   Converg. threshold II (energy diff.) ....   1.000e-08
   Grad. Scal. Fac. for Micro threshold ....   0.100
   Minimum threshold for Micro iter.    ....   0.010
   NR start threshold (gradient norm)   ....   0.001
   Initial trust radius                 ....   0.400
   Minimum AH scaling param. (alpha)    ....   1.000
   Maximum AH scaling param. (alpha)    .... 1000.000
   Orbital update algorithm             .... Taylor
   White noise on init. David. guess    .... on
   Maximum white noise                  ....   0.010
   Quad. conv. algorithm                .... NR
 SOSCF                  CNVSOSCF        .... off
 Level Shifting         CNVShift        .... on
   Level shift para.    LevelShift      ....    0.2500
   Turn off err/grad.   ShiftErr        ....    0.0000
 Zerner damping         CNVZerner       .... off
 Static damping         CNVDamp         .... on
   Fraction old density DampFac         ....    0.8500
   Max. Damping (<1)    DampMax         ....    0.9800
   Min. Damping (>=0)   DampMin         ....    0.0000
   Turn off err/grad.   DampErr         ....    0.0300
 Fernandez-Rico         CNVRico         .... off

SCF Procedure:
 Maximum # iterations   MaxIter         ....  1500
 SCF integral mode      SCFMode         .... Direct
   Integral package                     .... SHARK and LIBINT hybrid scheme
 Reset frequency        DirectResetFreq ....    20
 Integral Threshold     Thresh          ....  2.500e-11 Eh
 Primitive CutOff       TCut            ....  2.500e-12 Eh

Convergence Tolerance:
 Convergence Check Mode ConvCheckMode   .... Total+1el-Energy
 Convergence forced     ConvForced      .... 0
 Energy Change          TolE            ....  1.000e-08 Eh
 1-El. energy change                    ....  1.000e-05 Eh
 DIIS Error             TolErr          ....  5.000e-07


Diagonalization of the overlap matrix:
Smallest eigenvalue                        ... 6.216e-05
Time for diagonalization                   ...    0.145 sec
Threshold for overlap eigenvalues          ... 1.000e-08
Number of eigenvalues below threshold      ... 0
Time for construction of square roots      ...    0.075 sec
Total time needed                          ...    0.223 sec

Time for model grid setup =    0.259 sec

------------------------------
INITIAL GUESS: MODEL POTENTIAL
------------------------------
Loading Hartree-Fock densities                     ... done
Calculating cut-offs                               ... done
Initializing the effective Hamiltonian             ... done
Setting up the integral package (SHARK)            ... done
Starting the Coulomb interaction                   ... done (   0.3 sec)
Reading the grid                                   ... done
Mapping shells                                     ... done
Starting the XC term evaluation                    ... done (   0.2 sec)
  promolecular density results
     # of electrons  =    190.000886876
     EX              =   -198.090884676
     EC              =     -7.131543160
     EX+EC           =   -205.222427836
Transforming the Hamiltonian                       ... done (   0.1 sec)
Diagonalizing the Hamiltonian                      ... done (   0.1 sec)
Back transforming the eigenvectors                 ... done (   0.0 sec)
Now organizing SCF variables                       ... done
                      ------------------
                      INITIAL GUESS DONE (   1.1 sec)
                      ------------------
-------------------
DFT GRID GENERATION
-------------------

General Integration Accuracy     IntAcc      ... 4.388
Radial Grid Type                 RadialGrid  ... OptM3 with GC (2021)
Angular Grid (max. ang.)         AngularGrid ... 4 (Lebedev-302)
Angular grid pruning method      GridPruning ... 4 (adaptive)
Weight generation scheme         WeightScheme... Becke
Basis function cutoff            BFCut       ... 1.0000e-11
Integration weight cutoff        WCut        ... 1.0000e-14
Angular grids for H and He will be reduced by one unit
Partially contracted basis set               ... off
Rotationally invariant grid construction     ... off

Total number of grid points                  ...   145519
Total number of batches                      ...     2285
Average number of points per batch           ...       63
Average number of grid points per atom       ...     6063
Time for grid setup =    1.040 sec

--------------------
COSX GRID GENERATION
--------------------

GRIDX 1
-------
General Integration Accuracy     IntAcc      ... 3.816
Radial Grid Type                 RadialGrid  ... OptM3 with GC (2021)
Angular Grid (max. ang.)         AngularGrid ... 1 (Lebedev-50)
Angular grid pruning method      GridPruning ... 4 (adaptive)
Weight generation scheme         WeightScheme... Becke
Basis function cutoff            BFCut       ... 1.0000e-11
Integration weight cutoff        WCut        ... 1.0000e-14
Angular grids for H and He will be reduced by one unit
Partially contracted basis set               ... on
Rotationally invariant grid construction     ... off

Total number of grid points                  ...    18285
Total number of batches                      ...      300
Average number of points per batch           ...       60
Average number of grid points per atom       ...      762
UseSFitting                                  ... on

GRIDX 2
-------
General Integration Accuracy     IntAcc      ... 4.020
Radial Grid Type                 RadialGrid  ... OptM3 with GC (2021)
Angular Grid (max. ang.)         AngularGrid ... 2 (Lebedev-110)
Angular grid pruning method      GridPruning ... 4 (adaptive)
Weight generation scheme         WeightScheme... Becke
Basis function cutoff            BFCut       ... 1.0000e-11
Integration weight cutoff        WCut        ... 1.0000e-14
Angular grids for H and He will be reduced by one unit
Partially contracted basis set               ... on
Rotationally invariant grid construction     ... off

Total number of grid points                  ...    43374
Total number of batches                      ...      693
Average number of points per batch           ...       62
Average number of grid points per atom       ...     1807
UseSFitting                                  ... on

GRIDX 3
-------
General Integration Accuracy     IntAcc      ... 4.338
Radial Grid Type                 RadialGrid  ... OptM3 with GC (2021)
Angular Grid (max. ang.)         AngularGrid ... 3 (Lebedev-194)
Angular grid pruning method      GridPruning ... 4 (adaptive)
Weight generation scheme         WeightScheme... Becke
Basis function cutoff            BFCut       ... 1.0000e-11
Integration weight cutoff        WCut        ... 1.0000e-14
Angular grids for H and He will be reduced by one unit
Partially contracted basis set               ... on
Rotationally invariant grid construction     ... off

Total number of grid points                  ...    96109
Total number of batches                      ...     1513
Average number of points per batch           ...       63
Average number of grid points per atom       ...     4005
UseSFitting                                  ... on

Time for X-Grid setup             =    1.889 sec


--------------------
CPCM SOLVATION MODEL
--------------------
CPCM parameters:
  Epsilon                                         ...      35.6880
  Refrac                                          ...       1.3442
  Rsolv                                           ...       1.3000
  Surface type                                    ... GAUSSIAN VDW
  Epsilon function type                           ...         CPCM
Solvent:                                     ... ACETONITRILE
SMD-CDS solvent descriptors:
  Soln                                       ...    1.3442
  Soln25                                     ...    1.3416
  Sola                                       ...    0.0700
  Solb                                       ...    0.3200
  Solg                                       ...   41.2500
  Solc                                       ...    0.0000
  Solh                                       ...    0.0000
Radii:
 Radius for C  used is    3.4960 Bohr (=   1.8500 Ang.)
 Radius for O  used is    4.0969 Bohr (=   2.1680 Ang.)
 Radius for F  used is    3.2692 Bohr (=   1.7300 Ang.)
Calculating surface                               ...        done! (  0.0s)
GEPOL surface points                              ...         1279
GEPOL Volume                                      ...    2153.4989
GEPOL Surface-area                                ...    1119.9697
Calculating surface distance matrix               ...        done! (  0.0s)
Performing Cholesky decomposition & store         ...        done! (  0.1s)
Overall time for CPCM initialization              ...                 0.1s
--------------
SCF ITERATIONS
--------------
ITER       Energy         Delta-E        Max-DP      RMS-DP      [F,P]     Damp
               ***  Starting incremental Fock matrix formation  ***
  0  -1852.6114223906   0.000000000000 0.04195503  0.00020307  0.1701761 0.8500
  1  -1852.7952787550  -0.183856364342 0.06497765  0.00022987  0.1131499 0.8500
                               ***Turning on DIIS***
  2  -1852.8907633072  -0.095484552224 0.04899593  0.00016751  0.0652271 0.8500
  3  -1852.9431695603  -0.052406253056 0.01822830  0.00007578  0.0344933 0.8500
  4  -1852.9825172733  -0.039347713034 0.03107634  0.00025039  0.0241593 0.0000
  5  -1853.1808097423  -0.198292469034 0.03385914  0.00011200  0.0059451 0.0000
  6  -1853.1825793855  -0.001769643158 0.01348425  0.00004486  0.0052246 0.0000
  7  -1853.1831043442  -0.000524958679 0.00206409  0.00001228  0.0022344 0.0000
  8  -1853.1832160754  -0.000111731188 0.00167746  0.00000781  0.0013685 0.0000
  9  -1853.1832636577  -0.000047582390 0.00073138  0.00000485  0.0009846 0.0000
               *** Restarting incremental Fock matrix formation ***
                                   *** Resetting DIIS ***
 10  -1853.1833014018  -0.000037744017 0.00051900  0.00000367  0.0007809 0.0000
 11  -1853.1833120526  -0.000010650790 0.00042205  0.00000235  0.0005377 0.0000
 12  -1853.1833204585  -0.000008405938 0.00039518  0.00000237  0.0004398 0.0000
 13  -1853.1833250442  -0.000004585671 0.00029773  0.00000164  0.0003327 0.0000
 14  -1853.1833276070  -0.000002562799 0.00020558  0.00000124  0.0002363 0.0000
 15  -1853.1833289190  -0.000001311990 0.00014333  0.00000083  0.0001697 0.0000
 16  -1853.1833296042  -0.000000685252 0.00011224  0.00000062  0.0001191 0.0000
 17  -1853.1833299294  -0.000000325220 0.00008142  0.00000046  0.0000874 0.0000
 18  -1853.1833300954  -0.000000166021 0.00006018  0.00000034  0.0000587 0.0000
 19  -1853.1833301954  -0.000000099915 0.00004187  0.00000023  0.0000415 0.0000
 20  -1853.1833302448  -0.000000049450 0.00002929  0.00000017  0.0000280 0.0000
 21  -1853.1833302258   0.000000018970 0.00001793  0.00000011  0.0000195 0.0000
 22  -1853.1833302346  -0.000000008772 0.00001154  0.00000008  0.0000135 0.0000
 23  -1853.1833302302   0.000000004367 0.00000782  0.00000005  0.0000090 0.0000
 24  -1853.1833302265   0.000000003723 0.00000653  0.00000004  0.0000065 0.0000
 25  -1853.1833302356  -0.000000009047 0.00000530  0.00000003  0.0000045 0.0000
 26  -1853.1833302348   0.000000000801 0.00000435  0.00000002  0.0000031 0.0000
 27  -1853.1833302529  -0.000000018182 0.00001604  0.00000005  0.0000021 0.0000
 28  -1853.1833302549  -0.000000001917 0.00001063  0.00000004  0.0000015 0.0000
 29  -1853.1833302746  -0.000000019754 0.00012227  0.00000059  0.0000010 0.0000
               *** Restarting incremental Fock matrix formation ***
                                   *** Resetting DIIS ***
                            ***DIIS convergence achieved***

               *****************************************************
               *                     SUCCESS                       *
               *           SCF CONVERGED AFTER  30 CYCLES          *
               *****************************************************

Old exchange energy                            =    -39.731048401 Eh
New exchange energy                            =    -39.731074423 Eh
Exchange energy change after final integration =     -0.000026022 Eh
Total energy after final integration           =  -1853.183356281 Eh
Final COS-X integration done in                =    10.582 sec

SMD CDS free energy correction energy :                 3.62328     Kcal/mol
Total Energy after SMD CDS correction =             -1853.177582221 Eh

----------------
TOTAL SCF ENERGY
----------------

Total Energy       :        -1853.17758222 Eh          -50427.52570 eV

Components:
Nuclear Repulsion  :         2604.82055169 Eh           70880.77072 eV
Electronic Energy  :        -4457.99813391 Eh         -121308.29642 eV
One Electron Energy:        -7783.29714817 Eh         -211794.28282 eV
Two Electron Energy:         3325.29901426 Eh           90485.98640 eV
Max COSX asymmetry :            0.00000063 Eh               0.00002 eV
CPCM Dielectric    :           -0.08210062 Eh              -2.23407 eV
SMD CDS (Gcds)     :            0.00577406 Eh               0.15712 eV

Virial components:
Potential Energy   :        -3699.02678495 Eh         -100655.63605 eV
Kinetic Energy     :         1845.84920272 Eh           50228.11035 eV
Virial Ratio       :            2.00397019


DFT components:
N(Alpha)           :       95.999978406415 electrons
N(Beta)            :       94.999976359502 electrons
N(Total)           :      190.999954765917 electrons
E(X)               :     -158.393549803025 Eh       
E(C)               :       -8.363908555666 Eh       
E(XC)              :     -166.757458358691 Eh       
DFET-embed. en.    :        0.000000000000 Eh       
CPCM Solvation Model Properties:
Surface-charge          :            0.98923269
Charge-correction       :           -0.00113289 Eh              -0.03083 eV
Free-energy (cav+disp)  :            0.00577406 Eh               0.15712 eV

---------------
SCF CONVERGENCE
---------------

  Last Energy change         ...    1.5667e-08  Tolerance :   1.0000e-08
  Last MAX-Density change    ...    0.0000e+00  Tolerance :   1.0000e-07
  Last RMS-Density change    ...    0.0000e+00  Tolerance :   5.0000e-09
  Last DIIS Error            ...    7.0786e-07  Tolerance :   5.0000e-07

             **** THE GBW FILE WAS UPDATED (rf_mecn_opt_B3L_C3_D_B.gbw) ****
             **** DENSITY rf_mecn_opt_B3L_C3_D_B.scfp WAS UPDATED ****
             **** ENERGY FILE WAS UPDATED (rf_mecn_opt_B3L_C3_D_B.en.tmp) ****
----------------------
UHF SPIN CONTAMINATION
----------------------

Warning: in a DFT calculation there is little theoretical justification to 
         calculate <S**2> as in Hartree-Fock theory. We will do it anyways
         but you should keep in mind that the values have only limited relevance

Expectation value of <S**2>     :     0.753192
Ideal value S*(S+1) for S=0.5   :     0.750000
Deviation                       :     0.003192

             **** THE GBW FILE WAS UPDATED (rf_mecn_opt_B3L_C3_D_B.gbw) ****
             **** DENSITY rf_mecn_opt_B3L_C3_D_B.scfp WAS UPDATED ****
----------------
ORBITAL ENERGIES
----------------
                 SPIN UP ORBITALS
  NO   OCC          E(Eh)            E(eV) 
   0   1.0000     -24.745103      -673.3485 
   1   1.0000     -24.744170      -673.3231 
   2   1.0000     -24.743534      -673.3058 
   3   1.0000     -24.743443      -673.3033 
   4   1.0000     -24.742737      -673.2841 
   5   1.0000     -24.742495      -673.2775 
   6   1.0000     -24.742456      -673.2765 
   7   1.0000     -24.738923      -673.1803 
   8   1.0000     -24.738491      -673.1686 
   9   1.0000     -24.729534      -672.9248 
  10   1.0000     -24.728908      -672.9078 
  11   1.0000     -24.728904      -672.9077 
  12   1.0000     -24.700795      -672.1428 
  13   1.0000     -24.697155      -672.0438 
  14   1.0000     -19.086693      -519.3753 
  15   1.0000     -19.083271      -519.2822 
  16   1.0000     -10.462755      -284.7061 
  17   1.0000     -10.408860      -283.2395 
  18   1.0000     -10.408682      -283.2346 
  19   1.0000     -10.402917      -283.0778 
  20   1.0000     -10.394974      -282.8616 
  21   1.0000     -10.359153      -281.8869 
  22   1.0000     -10.317381      -280.7502 
  23   1.0000     -10.292235      -280.0659 
  24   1.0000      -1.350953       -36.7613 
  25   1.0000      -1.325347       -36.0645 
  26   1.0000      -1.308972       -35.6189 
  27   1.0000      -1.303366       -35.4664 
  28   1.0000      -1.295798       -35.2604 
  29   1.0000      -1.265580       -34.4382 
  30   1.0000      -1.265167       -34.4270 
  31   1.0000      -1.259291       -34.2670 
  32   1.0000      -1.257653       -34.2225 
  33   1.0000      -1.250648       -34.0319 
  34   1.0000      -1.250398       -34.0251 
  35   1.0000      -1.247316       -33.9412 
  36   1.0000      -1.239441       -33.7269 
  37   1.0000      -1.201295       -32.6889 
  38   1.0000      -0.959373       -26.1059 
  39   1.0000      -0.900469       -24.5030 
  40   1.0000      -0.846681       -23.0394 
  41   1.0000      -0.823342       -22.4043 
  42   1.0000      -0.794342       -21.6151 
  43   1.0000      -0.753035       -20.4911 
  44   1.0000      -0.711386       -19.3578 
  45   1.0000      -0.686228       -18.6732 
  46   1.0000      -0.661946       -18.0125 
  47   1.0000      -0.647713       -17.6252 
  48   1.0000      -0.642582       -17.4856 
  49   1.0000      -0.636785       -17.3278 
  50   1.0000      -0.624906       -17.0046 
  51   1.0000      -0.619848       -16.8669 
  52   1.0000      -0.617015       -16.7898 
  53   1.0000      -0.604545       -16.4505 
  54   1.0000      -0.603424       -16.4200 
  55   1.0000      -0.588551       -16.0153 
  56   1.0000      -0.586472       -15.9587 
  57   1.0000      -0.577548       -15.7159 
  58   1.0000      -0.570918       -15.5355 
  59   1.0000      -0.558420       -15.1954 
  60   1.0000      -0.549588       -14.9550 
  61   1.0000      -0.515572       -14.0294 
  62   1.0000      -0.511754       -13.9255 
  63   1.0000      -0.507197       -13.8015 
  64   1.0000      -0.505170       -13.7464 
  65   1.0000      -0.500500       -13.6193 
  66   1.0000      -0.498168       -13.5558 
  67   1.0000      -0.492912       -13.4128 
  68   1.0000      -0.486689       -13.2435 
  69   1.0000      -0.484534       -13.1848 
  70   1.0000      -0.476575       -12.9683 
  71   1.0000      -0.474529       -12.9126 
  72   1.0000      -0.469573       -12.7777 
  73   1.0000      -0.464976       -12.6526 
  74   1.0000      -0.463293       -12.6068 
  75   1.0000      -0.455151       -12.3853 
  76   1.0000      -0.452782       -12.3208 
  77   1.0000      -0.452026       -12.3002 
  78   1.0000      -0.447678       -12.1819 
  79   1.0000      -0.443163       -12.0591 
  80   1.0000      -0.442443       -12.0395 
  81   1.0000      -0.441116       -12.0034 
  82   1.0000      -0.438596       -11.9348 
  83   1.0000      -0.434651       -11.8275 
  84   1.0000      -0.430298       -11.7090 
  85   1.0000      -0.418789       -11.3958 
  86   1.0000      -0.413020       -11.2389 
  87   1.0000      -0.401298       -10.9199 
  88   1.0000      -0.386648       -10.5212 
  89   1.0000      -0.372823       -10.1450 
  90   1.0000      -0.350973        -9.5505 
  91   1.0000      -0.340508        -9.2657 
  92   1.0000      -0.282023        -7.6742 
  93   1.0000      -0.249033        -6.7765 
  94   1.0000      -0.244743        -6.6598 
  95   1.0000      -0.239750        -6.5239 
  96   0.0000      -0.013137        -0.3575 
  97   0.0000      -0.008391        -0.2283 
  98   0.0000       0.008369         0.2277 
  99   0.0000       0.046504         1.2654 
 100   0.0000       0.054160         1.4738 
 101   0.0000       0.088919         2.4196 
 102   0.0000       0.095245         2.5917 
 103   0.0000       0.101985         2.7751 
 104   0.0000       0.117044         3.1849 
 105   0.0000       0.125249         3.4082 
 106   0.0000       0.132583         3.6078 
 107   0.0000       0.135571         3.6891 
 108   0.0000       0.145387         3.9562 
 109   0.0000       0.153106         4.1662 
 110   0.0000       0.171285         4.6609 
 111   0.0000       0.175041         4.7631 
 112   0.0000       0.186297         5.0694 
 113   0.0000       0.196455         5.3458 
 114   0.0000       0.200747         5.4626 
 115   0.0000       0.206171         5.6102 
 116   0.0000       0.206707         5.6248 
 117   0.0000       0.210089         5.7168 
 118   0.0000       0.213458         5.8085 
 119   0.0000       0.219075         5.9613 
 120   0.0000       0.225277         6.1301 
 121   0.0000       0.230396         6.2694 
 122   0.0000       0.234793         6.3890 
 123   0.0000       0.239540         6.5182 
 124   0.0000       0.245856         6.6901 
 125   0.0000       0.248980         6.7751 
 126   0.0000       0.251555         6.8451 
 127   0.0000       0.255538         6.9535 
 128   0.0000       0.268626         7.3097 
 129   0.0000       0.275975         7.5097 
 130   0.0000       0.284053         7.7295 
 131   0.0000       0.290715         7.9108 
 132   0.0000       0.294561         8.0154 
 133   0.0000       0.297620         8.0987 
 134   0.0000       0.306395         8.3374 
 135   0.0000       0.309913         8.4332 
 136   0.0000       0.317327         8.6349 
 137   0.0000       0.322712         8.7814 
 138   0.0000       0.330507         8.9936 
 139   0.0000       0.334765         9.1094 
 140   0.0000       0.343972         9.3600 
 141   0.0000       0.352247         9.5851 
 142   0.0000       0.372289        10.1305 
 143   0.0000       0.390605        10.6289 
 144   0.0000       0.391884        10.6637 
 145   0.0000       0.414555        11.2806 
 146   0.0000       0.423343        11.5197 
 147   0.0000       0.429016        11.6741 
 148   0.0000       0.433859        11.8059 
 149   0.0000       0.435797        11.8586 
 150   0.0000       0.438479        11.9316 
 151   0.0000       0.452956        12.3256 
 152   0.0000       0.457677        12.4540 
 153   0.0000       0.463622        12.6158 
 154   0.0000       0.473661        12.8890 
 155   0.0000       0.480798        13.0832 
 156   0.0000       0.486369        13.2348 
 157   0.0000       0.493927        13.4404 
 158   0.0000       0.496236        13.5033 
 159   0.0000       0.510987        13.9047 
 160   0.0000       0.513642        13.9769 
 161   0.0000       0.517388        14.0788 
 162   0.0000       0.528506        14.3814 
 163   0.0000       0.538420        14.6511 
 164   0.0000       0.547734        14.9046 
 165   0.0000       0.553414        15.0591 
 166   0.0000       0.579052        15.7568 
 167   0.0000       0.582569        15.8525 
 168   0.0000       0.591238        16.0884 
 169   0.0000       0.616838        16.7850 
 170   0.0000       0.623303        16.9610 
 171   0.0000       0.629766        17.1368 
 172   0.0000       0.646944        17.6042 
 173   0.0000       0.651854        17.7379 
 174   0.0000       0.660009        17.9598 
 175   0.0000       0.664589        18.0844 
 176   0.0000       0.676963        18.4211 
 177   0.0000       0.683694        18.6043 
 178   0.0000       0.688585        18.7374 
 179   0.0000       0.701969        19.1015 
 180   0.0000       0.706649        19.2289 
 181   0.0000       0.710265        19.3273 
 182   0.0000       0.714790        19.4504 
 183   0.0000       0.724331        19.7101 
 184   0.0000       0.732963        19.9449 
 185   0.0000       0.739899        20.1337 
 186   0.0000       0.752216        20.4688 
 187   0.0000       0.757377        20.6093 
 188   0.0000       0.757766        20.6198 
 189   0.0000       0.763973        20.7887 
 190   0.0000       0.774438        21.0735 
 191   0.0000       0.776008        21.1162 
 192   0.0000       0.783187        21.3116 
 193   0.0000       0.795179        21.6379 
 194   0.0000       0.802776        21.8446 
 195   0.0000       0.815069        22.1792 
 196   0.0000       0.824672        22.4405 
 197   0.0000       0.832660        22.6578 
 198   0.0000       0.839539        22.8450 
 199   0.0000       0.845592        23.0097 
 200   0.0000       0.859506        23.3884 
 201   0.0000       0.866197        23.5704 
 202   0.0000       0.873291        23.7634 
 203   0.0000       0.888892        24.1880 
 204   0.0000       0.894232        24.3333 
 205   0.0000       0.901895        24.5418 
 206   0.0000       0.914571        24.8867 
 207   0.0000       0.918752        25.0005 
 208   0.0000       0.919823        25.0297 
 209   0.0000       0.930991        25.3336 
 210   0.0000       0.941111        25.6089 
 211   0.0000       0.953949        25.9583 
 212   0.0000       0.954957        25.9857 
 213   0.0000       0.962202        26.1829 
 214   0.0000       0.972584        26.4654 
 215   0.0000       0.978766        26.6336 
 216   0.0000       0.997853        27.1529 
 217   0.0000       1.011733        27.5306 
 218   0.0000       1.016575        27.6624 
 219   0.0000       1.025518        27.9058 
 220   0.0000       1.034554        28.1517 
 221   0.0000       1.044520        28.4228 
 222   0.0000       1.051913        28.6240 
 223   0.0000       1.077874        29.3304 
 224   0.0000       1.085773        29.5454 
 225   0.0000       1.099357        29.9150 
 226   0.0000       1.103351        30.0237 
 227   0.0000       1.111595        30.2480 
 228   0.0000       1.119217        30.4554 
 229   0.0000       1.130993        30.7759 
 230   0.0000       1.141216        31.0541 
 231   0.0000       1.146292        31.1922 
 232   0.0000       1.153108        31.3777 
 233   0.0000       1.161010        31.5927 
 234   0.0000       1.167673        31.7740 
 235   0.0000       1.179558        32.0974 
 236   0.0000       1.180595        32.1256 
 237   0.0000       1.192003        32.4361 
 238   0.0000       1.209470        32.9114 
 239   0.0000       1.223065        33.2813 
 240   0.0000       1.245325        33.8870 
 241   0.0000       1.247766        33.9535 
 242   0.0000       1.259124        34.2625 
 243   0.0000       1.275036        34.6955 
 244   0.0000       1.279495        34.8168 
 245   0.0000       1.285506        34.9804 
 246   0.0000       1.298549        35.3353 
 247   0.0000       1.303803        35.4783 
 248   0.0000       1.331748        36.2387 
 249   0.0000       1.347188        36.6588 
 250   0.0000       1.364893        37.1406 
 251   0.0000       1.375541        37.4304 
 252   0.0000       1.384876        37.6844 
 253   0.0000       1.396889        38.0113 
 254   0.0000       1.412455        38.4349 
 255   0.0000       1.448185        39.4071 
 256   0.0000       1.459208        39.7071 
 257   0.0000       1.467641        39.9365 
 258   0.0000       1.480533        40.2873 
 259   0.0000       1.507029        41.0083 
 260   0.0000       1.531069        41.6625 
 261   0.0000       1.551944        42.2305 
 262   0.0000       1.562835        42.5269 
 263   0.0000       1.584074        43.1048 
 264   0.0000       1.597709        43.4759 
 265   0.0000       1.629239        44.3339 
 266   0.0000       1.651016        44.9264 
 267   0.0000       1.658105        45.1193 
 268   0.0000       1.680613        45.7318 
 269   0.0000       1.686926        45.9036 
 270   0.0000       1.718014        46.7495 
 271   0.0000       1.739219        47.3266 
 272   0.0000       1.744512        47.4706 
 273   0.0000       1.760417        47.9034 
 274   0.0000       1.779866        48.4326 
 275   0.0000       1.792548        48.7777 
 276   0.0000       1.795770        48.8654 
 277   0.0000       1.808240        49.2047 
 278   0.0000       1.821325        49.5608 
 279   0.0000       1.839573        50.0573 
 280   0.0000       1.849069        50.3157 
 281   0.0000       1.857012        50.5319 
 282   0.0000       1.878983        51.1297 
 283   0.0000       1.881622        51.2015 
 284   0.0000       1.900452        51.7139 
 285   0.0000       1.906124        51.8683 
 286   0.0000       1.910952        51.9997 
 287   0.0000       1.914772        52.1036 
 288   0.0000       1.926226        52.4153 
 289   0.0000       1.927451        52.4486 
 290   0.0000       1.942646        52.8621 
 291   0.0000       1.947190        52.9857 
 292   0.0000       1.951163        53.0938 
 293   0.0000       1.966919        53.5226 
 294   0.0000       1.968637        53.5693 
 295   0.0000       1.985424        54.0261 
 296   0.0000       2.011522        54.7363 
 297   0.0000       2.022569        55.0369 
 298   0.0000       2.027529        55.1719 
 299   0.0000       2.044340        55.6293 
 300   0.0000       2.047052        55.7031 
 301   0.0000       2.050727        55.8031 
 302   0.0000       2.056894        55.9709 
 303   0.0000       2.061127        56.0861 
 304   0.0000       2.070809        56.3496 
 305   0.0000       2.078527        56.5596 
 306   0.0000       2.081006        56.6270 
 307   0.0000       2.085461        56.7483 
 308   0.0000       2.095157        57.0121 
 309   0.0000       2.101616        57.1879 
 310   0.0000       2.114093        57.5274 
 311   0.0000       2.125248        57.8309 
 312   0.0000       2.130922        57.9853 
 313   0.0000       2.134441        58.0811 
 314   0.0000       2.139250        58.2120 
 315   0.0000       2.148757        58.4706 
 316   0.0000       2.160683        58.7952 
 317   0.0000       2.166028        58.9406 
 318   0.0000       2.174535        59.1721 
 319   0.0000       2.189593        59.5819 
 320   0.0000       2.210294        60.1452 
 321   0.0000       2.228709        60.6463 
 322   0.0000       2.245879        61.1135 
 323   0.0000       2.253839        61.3301 
 324   0.0000       2.264103        61.6094 
 325   0.0000       2.268696        61.7343 
 326   0.0000       2.275269        61.9132 
 327   0.0000       2.302053        62.6420 
 328   0.0000       2.315655        63.0122 
 329   0.0000       2.326784        63.3150 
 330   0.0000       2.339416        63.6587 
 331   0.0000       2.343769        63.7772 
 332   0.0000       2.366361        64.3919 
 333   0.0000       2.368095        64.4391 
 334   0.0000       2.381351        64.7998 
 335   0.0000       2.405228        65.4496 
 336   0.0000       2.415895        65.7398 
 337   0.0000       2.420101        65.8543 
 338   0.0000       2.433314        66.2138 
 339   0.0000       2.439527        66.3829 
 340   0.0000       2.447357        66.5960 
 341   0.0000       2.453900        66.7740 
 342   0.0000       2.459522        66.9270 
 343   0.0000       2.468474        67.1706 
 344   0.0000       2.473526        67.3081 
 345   0.0000       2.480543        67.4990 
 346   0.0000       2.485506        67.6341 
 347   0.0000       2.495511        67.9063 
 348   0.0000       2.508226        68.2523 
 349   0.0000       2.512698        68.3740 
 350   0.0000       2.528419        68.8018 
 351   0.0000       2.547493        69.3208 
 352   0.0000       2.549952        69.3877 
 353   0.0000       2.573347        70.0243 
 354   0.0000       2.597656        70.6858 
 355   0.0000       2.603848        70.8543 
 356   0.0000       2.621946        71.3468 
 357   0.0000       2.627680        71.5028 
 358   0.0000       2.636301        71.7374 
 359   0.0000       2.655905        72.2708 
 360   0.0000       2.675590        72.8065 
 361   0.0000       2.683057        73.0097 
 362   0.0000       2.732345        74.3509 
 363   0.0000       2.754826        74.9626 
 364   0.0000       2.762962        75.1840 
 365   0.0000       2.780428        75.6593 
 366   0.0000       2.799601        76.1810 
 367   0.0000       2.823322        76.8265 
 368   0.0000       2.843763        77.3827 
 369   0.0000       2.858057        77.7717 
 370   0.0000       2.871235        78.1303 
 371   0.0000       2.886798        78.5538 
 372   0.0000       2.899523        78.9000 
 373   0.0000       2.902035        78.9684 
 374   0.0000       2.911659        79.2303 
 375   0.0000       2.923754        79.5594 
 376   0.0000       2.930007        79.7295 
 377   0.0000       2.934068        79.8400 
 378   0.0000       2.944912        80.1351 
 379   0.0000       2.960301        80.5539 
 380   0.0000       2.967722        80.7558 
 381   0.0000       2.974035        80.9276 
 382   0.0000       2.993813        81.4658 
 383   0.0000       3.009102        81.8818 
 384   0.0000       3.010931        81.9316 
 385   0.0000       3.019709        82.1705 
 386   0.0000       3.025138        82.3182 
 387   0.0000       3.035438        82.5985 
 388   0.0000       3.040380        82.7329 
 389   0.0000       3.048658        82.9582 
 390   0.0000       3.059120        83.2429 
 391   0.0000       3.065328        83.4118 
 392   0.0000       3.072996        83.6205 
 393   0.0000       3.083090        83.8951 
 394   0.0000       3.092626        84.1546 
 395   0.0000       3.095506        84.2330 
 396   0.0000       3.096938        84.2720 
 397   0.0000       3.106373        84.5287 
 398   0.0000       3.113459        84.7215 
 399   0.0000       3.124218        85.0143 
 400   0.0000       3.125732        85.0555 
 401   0.0000       3.132871        85.2498 
 402   0.0000       3.138367        85.3993 
 403   0.0000       3.146776        85.6281 
 404   0.0000       3.150850        85.7390 
 405   0.0000       3.161390        86.0258 
 406   0.0000       3.171124        86.2907 
 407   0.0000       3.175960        86.4223 
 408   0.0000       3.186167        86.7000 
 409   0.0000       3.193569        86.9014 
 410   0.0000       3.196668        86.9857 
 411   0.0000       3.208302        87.3023 
 412   0.0000       3.216044        87.5130 
 413   0.0000       3.222000        87.6751 
 414   0.0000       3.230728        87.9126 
 415   0.0000       3.241655        88.2099 
 416   0.0000       3.249878        88.4337 
 417   0.0000       3.254676        88.5642 
 418   0.0000       3.265770        88.8661 
 419   0.0000       3.268953        88.9527 
 420   0.0000       3.280744        89.2736 
 421   0.0000       3.287887        89.4679 
 422   0.0000       3.292051        89.5813 
 423   0.0000       3.306861        89.9843 
 424   0.0000       3.315236        90.2122 
 425   0.0000       3.316107        90.2359 
 426   0.0000       3.333523        90.7098 
 427   0.0000       3.342347        90.9499 
 428   0.0000       3.354085        91.2693 
 429   0.0000       3.370341        91.7116 
 430   0.0000       3.381613        92.0184 
 431   0.0000       3.393610        92.3448 
 432   0.0000       3.409903        92.7882 
 433   0.0000       3.417259        92.9883 
 434   0.0000       3.449698        93.8711 
 435   0.0000       3.459255        94.1311 
 436   0.0000       3.480355        94.7053 
 437   0.0000       3.491230        95.0012 
 438   0.0000       3.508468        95.4703 
 439   0.0000       3.525379        95.9304 
 440   0.0000       3.531545        96.0982 
 441   0.0000       3.559992        96.8723 
 442   0.0000       3.575594        97.2969 
 443   0.0000       3.584598        97.5419 
 444   0.0000       3.610367        98.2431 
 445   0.0000       3.613001        98.3147 
 446   0.0000       3.620089        98.5076 
 447   0.0000       3.652533        99.3905 
 448   0.0000       3.672430        99.9319 
 449   0.0000       3.688143       100.3595 
 450   0.0000       3.707423       100.8841 
 451   0.0000       3.714647       101.0807 
 452   0.0000       3.732816       101.5751 
 453   0.0000       3.745286       101.9144 
 454   0.0000       3.772787       102.6628 
 455   0.0000       3.773087       102.6709 
 456   0.0000       3.779847       102.8549 
 457   0.0000       3.795370       103.2773 
 458   0.0000       3.806987       103.5934 
 459   0.0000       3.822301       104.0101 
 460   0.0000       3.835223       104.3617 
 461   0.0000       3.851481       104.8041 
 462   0.0000       3.860209       105.0416 
 463   0.0000       3.865929       105.1973 
 464   0.0000       3.871125       105.3387 
 465   0.0000       3.884370       105.6991 
 466   0.0000       3.898041       106.0711 
 467   0.0000       3.912327       106.4598 
 468   0.0000       3.923914       106.7751 
 469   0.0000       3.934189       107.0547 
 470   0.0000       3.936122       107.1073 
 471   0.0000       3.955202       107.6265 
 472   0.0000       3.960269       107.7644 
 473   0.0000       3.969555       108.0171 
 474   0.0000       3.986194       108.4699 
 475   0.0000       3.994791       108.7038 
 476   0.0000       4.002390       108.9106 
 477   0.0000       4.011283       109.1526 
 478   0.0000       4.015829       109.2763 
 479   0.0000       4.026426       109.5646 
 480   0.0000       4.035947       109.8237 
 481   0.0000       4.046760       110.1180 
 482   0.0000       4.059865       110.4745 
 483   0.0000       4.074309       110.8676 
 484   0.0000       4.086653       111.2035 
 485   0.0000       4.091471       111.3346 
 486   0.0000       4.099085       111.5418 
 487   0.0000       4.110793       111.8604 
 488   0.0000       4.115510       111.9887 
 489   0.0000       4.121587       112.1541 
 490   0.0000       4.127267       112.3086 
 491   0.0000       4.133432       112.4764 
 492   0.0000       4.160056       113.2009 
 493   0.0000       4.163943       113.3067 
 494   0.0000       4.186340       113.9161 
 495   0.0000       4.191041       114.0440 
 496   0.0000       4.211439       114.5991 
 497   0.0000       4.226474       115.0082 
 498   0.0000       4.250704       115.6675 
 499   0.0000       4.260821       115.9428 
 500   0.0000       4.295038       116.8739 
 501   0.0000       4.296037       116.9011 
 502   0.0000       4.325445       117.7013 
 503   0.0000       4.349820       118.3646 
 504   0.0000       4.401160       119.7616 
 505   0.0000       4.533975       123.3757 
 506   0.0000       4.578170       124.5784 
 507   0.0000       4.594556       125.0242 
 508   0.0000       4.660652       126.8228 
 509   0.0000       4.738391       128.9382 
 510   0.0000       4.760880       129.5501 
 511   0.0000       4.807574       130.8207 
 512   0.0000       4.924229       133.9951 
 513   0.0000       4.952466       134.7635 
 514   0.0000       4.996944       135.9738 
 515   0.0000       5.126982       139.5123 
 516   0.0000       5.150579       140.1544 
 517   0.0000       5.180044       140.9562 
 518   0.0000       5.195683       141.3817 
 519   0.0000       5.206488       141.6757 
 520   0.0000       5.209279       141.7517 
 521   0.0000       5.217974       141.9883 
 522   0.0000       5.241080       142.6171 
 523   0.0000       5.251309       142.8954 
 524   0.0000       5.293684       144.0485 
 525   0.0000       5.300581       144.2361 
 526   0.0000       5.322598       144.8353 
 527   0.0000       5.332820       145.1134 
 528   0.0000       5.347467       145.5120 
 529   0.0000       5.376839       146.3112 
 530   0.0000       5.415327       147.3585 
 531   0.0000       5.439380       148.0131 
 532   0.0000       5.485080       149.2566 
 533   0.0000       5.512359       149.9989 
 534   0.0000       5.552889       151.1018 
 535   0.0000       5.624513       153.0508 
 536   0.0000       5.702936       155.1848 
 537   0.0000       5.743173       156.2797 
 538   0.0000       5.848781       159.1534 
 539   0.0000       5.915235       160.9617 
 540   0.0000       6.163193       167.7090 
 541   0.0000       6.228198       169.4779 
 542   0.0000       6.330545       172.2629 
 543   0.0000       6.380897       173.6330 
 544   0.0000       6.404458       174.2742 
 545   0.0000       6.433530       175.0653 
 546   0.0000       6.729045       183.1066 
 547   0.0000       6.762331       184.0124 
 548   0.0000       6.782104       184.5504 
 549   0.0000       6.799032       185.0111 
 550   0.0000       6.802428       185.1035 
 551   0.0000       6.803706       185.1383 
 552   0.0000       6.805418       185.1848 
 553   0.0000       6.806997       185.2278 
 554   0.0000       6.807255       185.2348 
 555   0.0000       6.807719       185.2475 
 556   0.0000       6.810799       185.3313 
 557   0.0000       6.812680       185.3825 
 558   0.0000       6.812689       185.3827 
 559   0.0000       6.813939       185.4167 
 560   0.0000       6.815758       185.4662 
 561   0.0000       6.816814       185.4949 
 562   0.0000       6.818689       185.5460 
 563   0.0000       6.819292       185.5624 
 564   0.0000       6.821382       185.6193 
 565   0.0000       6.824180       185.6954 
 566   0.0000       6.824993       185.7175 
 567   0.0000       6.825902       185.7422 
 568   0.0000       6.828688       185.8180 
 569   0.0000       6.829461       185.8391 
 570   0.0000       6.832243       185.9148 
 571   0.0000       6.832723       185.9279 
 572   0.0000       6.832923       185.9333 
 573   0.0000       6.834942       185.9882 
 574   0.0000       6.836419       186.0284 
 575   0.0000       6.838829       186.0940 
 576   0.0000       6.840167       186.1304 
 577   0.0000       6.841192       186.1583 
 578   0.0000       6.841768       186.1740 
 579   0.0000       6.844455       186.2471 
 580   0.0000       6.851110       186.4282 
 581   0.0000       6.854467       186.5195 
 582   0.0000       6.857037       186.5895 
 583   0.0000       6.860088       186.6725 
 584   0.0000       6.862274       186.7320 
 585   0.0000       6.866341       186.8426 
 586   0.0000       6.868239       186.8943 
 587   0.0000       6.875779       187.0994 
 588   0.0000       6.880879       187.2382 
[...]
      dxy     :    -0.000033
      f0      :     0.000008  f :     0.000053
      f+1     :     0.000003
      f-1     :     0.000044
      f+2     :    -0.000005
      f-2     :    -0.000005
      f+3     :     0.000001
      f-3     :     0.000009
  2 O s       :     0.000514  s :     0.000514
      pz      :     0.002155  p :     0.014847
      px      :     0.011997
      py      :     0.000695
      dz2     :     0.000004  d :     0.000272
      dxz     :     0.000063
      dyz     :     0.000245
      dx2y2   :     0.000022
      dxy     :    -0.000063
      f0      :     0.000004  f :     0.000027
      f+1     :     0.000002
      f-1     :     0.000011
      f+2     :     0.000016
      f-2     :     0.000001
      f+3     :    -0.000005
      f-3     :    -0.000002
  3 C s       :     0.001574  s :     0.001574
      pz      :    -0.000371  p :    -0.005063
      px      :    -0.002949
      py      :    -0.001743
      dz2     :     0.027098  d :     0.053772
      dxz     :     0.019902
      dyz     :     0.000082
      dx2y2   :     0.001269
      dxy     :     0.005421
      f0      :     0.000071  f :     0.008448
      f+1     :     0.003687
      f-1     :     0.000442
      f+2     :     0.001094
      f-2     :     0.000175
      f+3     :     0.000093
      f-3     :     0.002886
  4 C s       :     0.024569  s :     0.024569
      pz      :     0.464590  p :     0.594714
      px      :     0.034973
      py      :     0.095151
      dz2     :    -0.001316  d :     0.002083
      dxz     :    -0.000339
      dyz     :     0.004845
      dx2y2   :    -0.000318
      dxy     :    -0.000788
      f0      :    -0.000353  f :     0.000756
      f+1     :    -0.000080
      f-1     :     0.001726
      f+2     :     0.000035
      f-2     :    -0.000152
      f+3     :    -0.000087
      f-3     :    -0.000332
  5 C s       :    -0.002461  s :    -0.002461
      pz      :     0.014545  p :     0.005746
      px      :    -0.008033
      py      :    -0.000766
      dz2     :     0.002130  d :     0.059723
      dxz     :     0.030257
      dyz     :     0.009497
      dx2y2   :     0.008807
      dxy     :     0.009031
      f0      :     0.003442  f :     0.009288
      f+1     :     0.000376
      f-1     :     0.000369
      f+2     :     0.001538
      f-2     :     0.002267
      f+3     :     0.001027
      f-3     :     0.000269
  6 C s       :     0.001609  s :     0.001609
      pz      :     0.001870  p :     0.008903
      px      :     0.003847
      py      :     0.003187
      dz2     :     0.000173  d :     0.001416
      dxz     :    -0.000024
      dyz     :     0.000243
      dx2y2   :     0.001265
      dxy     :    -0.000242
      f0      :     0.000066  f :     0.000255
      f+1     :     0.000037
      f-1     :     0.000038
      f+2     :    -0.000001
      f-2     :     0.000014
      f+3     :     0.000031
      f-3     :     0.000068
  7 C s       :     0.000177  s :     0.000177
      pz      :     0.000136  p :     0.001554
      px      :     0.000698
      py      :     0.000721
      dz2     :     0.000032  d :     0.000957
      dxz     :     0.000087
      dyz     :    -0.000006
      dx2y2   :     0.000704
      dxy     :     0.000141
      f0      :     0.000001  f :     0.000095
      f+1     :     0.000019
      f-1     :     0.000003
      f+2     :     0.000018
      f-2     :     0.000001
      f+3     :     0.000049
      f-3     :     0.000003
  8 C s       :     0.000056  s :     0.000056
      pz      :     0.000016  p :     0.000498
      px      :     0.000247
      py      :     0.000235
      dz2     :     0.000008  d :     0.000266
      dxz     :     0.000039
      dyz     :     0.000001
      dx2y2   :     0.000208
      dxy     :     0.000010
      f0      :     0.000000  f :     0.000024
      f+1     :     0.000001
      f-1     :     0.000001
      f+2     :     0.000003
      f-2     :     0.000001
      f+3     :     0.000016
      f-3     :     0.000002
  9 C s       :     0.000037  s :     0.000037
      pz      :     0.000040  p :     0.000149
      px      :     0.000054
      py      :     0.000055
      dz2     :     0.000002  d :     0.000041
      dxz     :    -0.000000
      dyz     :     0.000003
      dx2y2   :     0.000019
      dxy     :     0.000016
      f0      :     0.000001  f :     0.000012
      f+1     :     0.000000
      f-1     :     0.000000
      f+2     :     0.000001
      f-2     :     0.000003
      f+3     :     0.000007
      f-3     :     0.000000
 10 F s       :     0.001235  s :     0.001235
      pz      :     0.000314  p :     0.010815
      px      :     0.000846
      py      :     0.009655
      dz2     :    -0.000033  d :    -0.000161
      dxz     :     0.000024
      dyz     :    -0.000034
      dx2y2   :     0.000007
      dxy     :    -0.000126
      f0      :    -0.000001  f :    -0.000008
      f+1     :    -0.000001
      f-1     :    -0.000003
      f+2     :     0.000001
      f-2     :    -0.000000
      f+3     :    -0.000006
      f-3     :     0.000001
 11 F s       :     0.000861  s :     0.000861
      pz      :     0.000944  p :     0.006025
      px      :     0.002524
      py      :     0.002558
      dz2     :    -0.000038  d :    -0.000123
      dxz     :    -0.000015
      dyz     :     0.000063
      dx2y2   :    -0.000097
      dxy     :    -0.000036
      f0      :    -0.000000  f :    -0.000005
      f+1     :    -0.000002
      f-1     :     0.000000
      f+2     :    -0.000002
      f-2     :     0.000002
      f+3     :    -0.000003
      f-3     :    -0.000003
 12 F s       :     0.001964  s :     0.001964
      pz      :     0.074390  p :     0.086193
      px      :     0.004305
      py      :     0.007497
      dz2     :     0.003052  d :     0.009520
      dxz     :     0.000023
      dyz     :     0.004652
      dx2y2   :     0.001371
      dxy     :     0.000423
      f0      :     0.000013  f :     0.000489
      f+1     :     0.000001
      f-1     :     0.000301
      f+2     :     0.000092
      f-2     :     0.000005
      f+3     :     0.000021
      f-3     :     0.000057
 13 F s       :     0.000035  s :     0.000035
      pz      :     0.001565  p :     0.005494
      px      :    -0.000275
      py      :     0.004203
      dz2     :     0.000045  d :     0.000018
      dxz     :    -0.000065
      dyz     :    -0.000022
      dx2y2   :     0.000083
      dxy     :    -0.000024
      f0      :    -0.000001  f :    -0.000001
      f+1     :    -0.000000
      f-1     :     0.000001
      f+2     :     0.000000
      f-2     :    -0.000005
      f+3     :    -0.000000
      f-3     :     0.000004
 14 F s       :     0.002989  s :     0.002989
      pz      :     0.007756  p :     0.028131
      px      :     0.013100
      py      :     0.007275
      dz2     :    -0.000054  d :     0.000095
      dxz     :    -0.000055
      dyz     :     0.000113
      dx2y2   :     0.000041
      dxy     :     0.000049
      f0      :    -0.000004  f :     0.000001
      f+1     :     0.000001
      f-1     :     0.000003
      f+2     :    -0.000001
      f-2     :     0.000001
      f+3     :    -0.000000
      f-3     :     0.000001
 15 F s       :     0.000095  s :     0.000095
      pz      :     0.000183  p :     0.002039
      px      :     0.000953
      py      :     0.000903
      dz2     :     0.000065  d :     0.000167
      dxz     :     0.000043
      dyz     :     0.000009
      dx2y2   :     0.000007
      dxy     :     0.000044
      f0      :     0.000003  f :     0.000008
      f+1     :     0.000000
      f-1     :     0.000001
      f+2     :    -0.000000
      f-2     :     0.000003
      f+3     :     0.000002
      f-3     :    -0.000000
 16 F s       :     0.000226  s :     0.000226
      pz      :    -0.000009  p :     0.000390
      px      :     0.000313
      py      :     0.000086
      dz2     :     0.000023  d :     0.000133
      dxz     :     0.000002
      dyz     :    -0.000001
      dx2y2   :     0.000108
      dxy     :     0.000001
      f0      :     0.000000  f :     0.000007
      f+1     :     0.000001
      f-1     :     0.000000
      f+2     :     0.000003
      f-2     :     0.000000
      f+3     :     0.000000
      f-3     :     0.000002
 17 F s       :     0.000046  s :     0.000046
      pz      :     0.000004  p :     0.000011
      px      :    -0.000002
      py      :     0.000009
      dz2     :     0.000001  d :     0.000013
      dxz     :     0.000009
      dyz     :     0.000004
      dx2y2   :     0.000003
      dxy     :    -0.000003
      f0      :    -0.000000  f :     0.000001
      f+1     :    -0.000000
      f-1     :     0.000000
      f+2     :     0.000000
      f-2     :     0.000000
      f+3     :     0.000000
      f-3     :     0.000000
 18 F s       :     0.000005  s :     0.000005
      pz      :    -0.000041  p :     0.000196
      px      :     0.000099
      py      :     0.000138
      dz2     :     0.000001  d :     0.000024
      dxz     :     0.000005
      dyz     :     0.000008
      dx2y2   :     0.000009
      dxy     :     0.000000
      f0      :    -0.000000  f :     0.000001
      f+1     :     0.000000
      f-1     :     0.000000
      f+2     :     0.000001
      f-2     :     0.000000
      f+3     :     0.000000
      f-3     :     0.000000
 19 F s       :     0.000005  s :     0.000005
      pz      :    -0.000005  p :    -0.000010
      px      :     0.000001
      py      :    -0.000006
      dz2     :     0.000001  d :     0.000005
      dxz     :     0.000000
      dyz     :     0.000000
      dx2y2   :     0.000003
      dxy     :     0.000000
      f0      :     0.000000  f :     0.000000
      f+1     :     0.000000
      f-1     :    -0.000000
      f+2     :    -0.000000
      f-2     :     0.000000
      f+3     :     0.000000
      f-3     :     0.000000
 20 F s       :     0.000002  s :     0.000002
      pz      :    -0.000007  p :     0.000056
      px      :     0.000034
      py      :     0.000029
      dz2     :     0.000001  d :     0.000007
      dxz     :     0.000003
      dyz     :     0.000002
      dx2y2   :    -0.000000
      dxy     :     0.000000
      f0      :     0.000000  f :     0.000000
      f+1     :     0.000000
      f-1     :     0.000000
      f+2     :    -0.000000
      f-2     :     0.000000
      f+3     :     0.000000
      f-3     :    -0.000000
 21 F s       :    -0.000000  s :    -0.000000
      pz      :     0.000001  p :    -0.000005
      px      :     0.000000
      py      :    -0.000006
      dz2     :     0.000000  d :     0.000001
      dxz     :     0.000000
      dyz     :     0.000000
      dx2y2   :     0.000001
      dxy     :     0.000000
      f0      :     0.000000  f :     0.000000
      f+1     :     0.000000
      f-1     :     0.000000
      f+2     :     0.000000
      f-2     :     0.000000
      f+3     :     0.000000
      f-3     :     0.000000
 22 F s       :     0.000005  s :     0.000005
      pz      :     0.000004  p :     0.000090
      px      :     0.000084
      py      :     0.000001
      dz2     :     0.000001  d :     0.000005
      dxz     :     0.000000
      dyz     :     0.000000
      dx2y2   :     0.000003
      dxy     :     0.000000
      f0      :     0.000000  f :     0.000000
      f+1     :     0.000000
      f-1     :     0.000000
      f+2     :     0.000000
      f-2     :     0.000000
      f+3     :     0.000000
      f-3     :     0.000000
 23 F s       :     0.000000  s :     0.000000
      pz      :    -0.000002  p :     0.000007
      px      :     0.000000
      py      :     0.000008
      dz2     :     0.000001  d :     0.000002
      dxz     :     0.000000
      dyz     :     0.000001
      dx2y2   :     0.000000
      dxy     :     0.000000
      f0      :     0.000000  f :     0.000000
      f+1     :     0.000000
      f-1     :     0.000000
      f+2     :     0.000000
      f-2     :    -0.000000
      f+3     :    -0.000000
      f-3     :     0.000000


                      *****************************
                      * MAYER POPULATION ANALYSIS *
                      *****************************

  NA   - Mulliken gross atomic population
  ZA   - Total nuclear charge
  QA   - Mulliken gross atomic charge
  VA   - Mayer's total valence
  BVA  - Mayer's bonded valence
  FA   - Mayer's free valence

  ATOM       NA         ZA         QA         VA         BVA        FA
  0 C      5.8511     6.0000     0.1489     4.6304     4.6294     0.0010
  1 O      8.4630     8.0000    -0.4630     2.0025     2.0010     0.0015
  2 O      8.4864     8.0000    -0.4864     1.9603     1.9600     0.0003
  3 C      5.6299     6.0000     0.3701     3.9569     3.9532     0.0037
  4 C      5.9082     6.0000     0.0918     3.8305     3.2798     0.5507
  5 C      5.6287     6.0000     0.3713     4.1644     4.1616     0.0029
  6 C      5.6717     6.0000     0.3283     4.0842     4.0839     0.0002
  7 C      5.6880     6.0000     0.3120     4.1220     4.1220     0.0000
  8 C      5.6749     6.0000     0.3251     4.1641     4.1641     0.0000
  9 C      5.5246     6.0000     0.4754     4.5171     4.5171     0.0000
 10 F      9.2167     9.0000    -0.2167     1.0576     1.0575     0.0002
 11 F      9.2241     9.0000    -0.2241     1.0475     1.0474     0.0001
 12 F      9.1747     9.0000    -0.1747     1.1463     1.1374     0.0089
 13 F      9.1859     9.0000    -0.1859     1.1190     1.1190     0.0000
 14 F      9.1937     9.0000    -0.1937     1.1005     1.0996     0.0009
 15 F      9.1751     9.0000    -0.1751     1.1393     1.1393     0.0000
 16 F      9.1729     9.0000    -0.1729     1.1471     1.1471     0.0000
 17 F      9.1689     9.0000    -0.1689     1.1506     1.1506     0.0000
 18 F      9.1694     9.0000    -0.1694     1.1490     1.1490     0.0000
 19 F      9.1666     9.0000    -0.1666     1.1527     1.1527     0.0000
 20 F      9.1640     9.0000    -0.1640     1.1524     1.1524     0.0000
 21 F      9.1551     9.0000    -0.1551     1.1628     1.1628     0.0000
 22 F      9.1536     9.0000    -0.1536     1.1660     1.1660     0.0000
 23 F      9.1528     9.0000    -0.1528     1.1665     1.1665     0.0000

  Mayer bond orders larger than 0.100000
B(  0-C ,  1-O ) :   1.8831 B(  0-C ,  2-O ) :   1.8508 B(  0-C ,  3-C ) :   0.8437 
B(  3-C ,  4-C ) :   1.0180 B(  3-C , 10-F ) :   1.0537 B(  3-C , 11-F ) :   1.0123 
B(  4-C ,  5-C ) :   1.0531 B(  4-C , 12-F ) :   1.0799 B(  5-C ,  6-C ) :   0.9178 
B(  5-C , 13-F ) :   1.0549 B(  5-C , 14-F ) :   1.0436 B(  6-C ,  7-C ) :   0.9205 
B(  6-C , 15-F ) :   1.0689 B(  6-C , 16-F ) :   1.0807 B(  7-C ,  8-C ) :   0.9196 
B(  7-C , 17-F ) :   1.0829 B(  7-C , 18-F ) :   1.0906 B(  8-C ,  9-C ) :   0.9692 
B(  8-C , 19-F ) :   1.0855 B(  8-C , 20-F ) :   1.0933 B(  9-C , 21-F ) :   1.1457 
B(  9-C , 22-F ) :   1.1462 B(  9-C , 23-F ) :   1.1564 

-------
TIMINGS
-------

Total SCF time: 0 days 0 hours 1 min 36 sec 

Total time                  ....      96.222 sec
Sum of individual times     ....      93.297 sec  ( 97.0%)

Fock matrix formation       ....      81.393 sec  ( 84.6%)
  Split-RI-J                ....       5.273 sec  (  6.5% of F)
  Chain of spheres X        ....      57.328 sec  ( 70.4% of F)
  XC integration            ....      10.739 sec  ( 13.2% of F)
    Basis function eval.    ....       1.089 sec  ( 10.1% of XC)
    Density eval.           ....       3.191 sec  ( 29.7% of XC)
    XC-Functional eval.     ....       0.370 sec  (  3.4% of XC)
    XC-Potential eval.      ....       1.543 sec  ( 14.4% of XC)
Diagonalization             ....       5.607 sec  (  5.8%)
Density matrix formation    ....       0.197 sec  (  0.2%)
Population analysis         ....       0.344 sec  (  0.4%)
Initial guess               ....       0.536 sec  (  0.6%)
Orbital Transformation      ....       0.000 sec  (  0.0%)
Orbital Orthonormalization  ....       0.463 sec  (  0.5%)
DIIS solution               ....       2.419 sec  (  2.5%)
Grid generation             ....       2.801 sec  (  2.9%)

Maximum memory used throughout the entire SCF-calculation: 161.2 MB


-------------------------------------------------------------------------------
                          DFT DISPERSION CORRECTION                            
                                                                               
                              DFTD3 V3.1  Rev 1                                
                          USING Becke-Johnson damping                          
-------------------------------------------------------------------------------
The B3LYP functional is recognized
Active option DFTDOPT                   ...         4   

molecular C6(AA) [au] = 6300.307448 


            DFT-D V3
 parameters
 s6 scaling factor         :     1.0000 
 a1 scaling factor         :     0.3981 
 s8 scaling factor         :     1.9889 
 a2 scaling factor         :     4.4211 
 ad hoc parameters k1-k3   :    16.0000     1.3333    -4.0000 

 Edisp/kcal,au: -26.660090765332  -0.042485554439 
 E6   /kcal   : -12.653504054 
 E8   /kcal   : -14.006586711 
 % E8         :  52.537655757 

-------------------------   ----------------
Dispersion correction           -0.042485554
-------------------------   ----------------


-------------------------   --------------------
FINAL SINGLE POINT ENERGY     -1853.282399149063
-------------------------   --------------------

                                *** OPTIMIZATION RUN DONE ***

                            ***************************************
                            *     ORCA property calculations      *
                            ***************************************

                                    ---------------------
                                    Active property flags
                                    ---------------------
   (+) Dipole Moment


------------------------------------------------------------------------------
                       ORCA ELECTRIC PROPERTIES CALCULATION
------------------------------------------------------------------------------

Dipole Moment Calculation                       ... on
Quadrupole Moment Calculation                   ... off
Polarizability Calculation                      ... off
GBWName                                         ... rf_mecn_opt_B3L_C3_D_B.gbw
Electron density                                ... rf_mecn_opt_B3L_C3_D_B.scfp
The origin for moment calculation is the CENTER OF MASS  = (-0.270482, -0.074109  0.131600)

-------------
DIPOLE MOMENT
-------------
                                X             Y             Z
Electronic contribution:    -14.46537      -0.44888       4.87469
Nuclear contribution   :      7.75464       0.33873      -2.60895
                        -----------------------------------------
Total Dipole Moment    :     -6.71074      -0.11014       2.26573
                        -----------------------------------------
Magnitude (a.u.)       :      7.08376
Magnitude (Debye)      :     18.00549



--------------------
Rotational spectrum 
--------------------
 
Rotational constants in cm-1:     0.018521     0.004358     0.004267 
Rotational constants in MHz :   555.258511   130.652391   127.915414 

 Dipole components along the rotational axes: 
x,y,z [a.u.] :    -6.531797     2.621818    -0.800849 
x,y,z [Debye]:   -16.602509     6.664132    -2.035596 

 

Timings for individual modules:

Sum of individual times         ...     4352.351 sec (=  72.539 min)
GTO integral calculation        ...       34.150 sec (=   0.569 min)   0.8 %
SCF iterations                  ...     3647.960 sec (=  60.799 min)  83.8 %
SCF Gradient evaluation         ...      668.560 sec (=  11.143 min)  15.4 %
Geometry relaxation             ...        1.681 sec (=   0.028 min)   0.0 %
                             ****ORCA TERMINATED NORMALLY****
TOTAL RUN TIME: 0 days 1 hours 12 minutes 46 seconds 330 msec
