
                                 *****************
                                 * O   R   C   A *
                                 *****************

                                            #,                                       
                                            ###                                      
                                            ####                                     
                                            #####                                    
                                            ######                                   
                                           ########,                                 
                                     ,,################,,,,,                         
                               ,,#################################,,                 
                          ,,##########################################,,             
                       ,#########################################, ''#####,          
                    ,#############################################,,   '####,        
                  ,##################################################,,,,####,       
                ,###########''''           ''''###############################       
              ,#####''   ,,,,##########,,,,          '''####'''          '####       
            ,##' ,,,,###########################,,,                        '##       
           ' ,,###''''                  '''############,,,                           
         ,,##''                                '''############,,,,        ,,,,,,###''
      ,#''                                            '''#######################'''  
     '                                                          ''''####''''         
             ,#######,   #######,   ,#######,      ##                                
            ,#'     '#,  ##    ##  ,#'     '#,    #''#        ,####,   ,####,        
            ##       ##  ##   ,#'  ##            #'  '#       #'       #'  '#        
            ##       ##  #######   ##           ,######,      #####,   #    #        
            '#,     ,#'  ##    ##  '#,     ,#' ,#      #,     #,   #   #,  ,#        
             '#######'   ##     ##  '#######'  #'      '#     '####' # '####'        



                #########################################################
                #                        -***-                          #
                #          Department of theory and spectroscopy        #
                #                                                       #
                #                      Frank Neese                      #
                #                                                       #
                #     Directorship, Architecture, Infrastructure        #
                #                    SHARK, DRIVERS                     #
                #        Core code/Algorithms in most modules           #
                #                                                       #
                #        Max Planck Institute fuer Kohlenforschung      #
                #                Kaiser Wilhelm Platz 1                 #
                #                 D-45470 Muelheim/Ruhr                 #
                #                      Germany                          #
                #                                                       #
                #                  All rights reserved                  #
                #                        -***-                          #
                #########################################################


                         Program Version 6.0.1  -  RELEASE   -


 With contributions from (in alphabetic order):
[Max-Planck-Institut fuer Kohlenforschung]                               
  Daniel Aravena         : Magnetic Suceptibility                        
  Michael Atanasov       : Ab Initio Ligand Field Theory (pilot matlab implementation)
  Alexander A. Auer      : GIAO ZORA, VPT2 properties, NMR spectrum      
  Ute Becker             : All parallelization in ORCA, NUMFREQ, NUMCALC 
  Giovanni Bistoni       : ED, misc. LED, open-shell LED, HFLD           
  Martin Brehm           : Molecular dynamics                            
  Dmytro Bykov           : pre 5.0 version of the SCF Hessian            
  Marcos Casanova-Páez   : Triplet and SCS-CIS(D). UHF-(DLPNO)-IP/EA/STEOM-CCSD. UHF-CVS-IP/STEOM-CCSD   
  Vijay G. Chilkuri      : MRCI spin determinant printing, contributions to CSF-ICE 
  Pauline Colinet        : FMM embedding                                 
  Dipayan Datta          : RHF DLPNO-CCSD density                        
  Achintya Kumar Dutta   : EOM-CC, STEOM-CC                              
  Nicolas Foglia         : Exact transition moments, OPA infrastructure, MCD improvements    
  Dmitry Ganyushin       : Spin-Orbit,Spin-Spin,Magnetic field MRCI      
  Miquel Garcia-Rates    : C-PCM and meta-GGA Hessian, CCSD/C-PCM, Gaussian charge scheme 
  Tiago L. C. Gouveia    : GS-ROHF, GS-ROCIS                             
  Yang Guo               : DLPNO-NEVPT2, F12-NEVPT2, CIM, IAO-localization        
  Andreas Hansen         : Spin unrestricted coupled pair/coupled cluster methods 
  Ingolf Harden          : AUTO-CI MPn and infrastructure                
  Benjamin Helmich-Paris : MC-RPA, TRAH-(SCF,CASSCF), AVAS, COSX integrals, SCF dyn. polar. 
  Lee Huntington         : MR-EOM, pCC                                   
  Robert Izsak           : Overlap fitted RIJCOSX, COSX-SCS-MP3, EOM     
  Riya Kayal             : Wick's Theorem for AUTO-CI, AUTO-CI UHF-CCSDT 
  Emily Kempfer          : AUTO-CI, RHF CISDT and CCSDT                  
  Christian Kollmar      : KDIIS, OOCD, Brueckner-CCSD(T), CCSD density, CASPT2, CASPT2-K, improved NEVPT2 
  Axel Koslowski         : Symmetry handling                             
  Simone Kossmann        : meta-GGA functionals, TD-DFT gradient, OOMP2, (MP2 Hessian; deprecated post 5.0) 
  Lucas Lang             : DCDCAS                                        
  Marvin Lechner         : AUTO-CI (C++ implementation), FIC-MRCC        
  Spencer Leger          : CASSCF response                               
  Dagmar Lenk            : GEPOL surface, SMD, ORCA-2-JSON               
  Dimitrios Liakos       : Extrapolation schemes; Compound Job, initial MDCI parallelization 
  Dimitrios Manganas     : Further ROCIS development; embedding schemes. LFT, Crystal Embedding 
  Dimitrios Pantazis     : SARC Basis sets                               
  Anastasios Papadopoulos: AUTO-CI, single reference methods and gradients 
  Taras Petrenko         : pre 6.0 DFT Hessian and TD-DFT gradient, (ASA, deprecated), ECA, 1-Electron XAS/XES, NRVS 
  Peter Pinski           : DLPNO-MP2, DLPNO-MP2 Gradient                 
  Christoph Reimann      : Effective Core Potentials                     
  Marius Retegan         : Local ZFS, SOC                                
  Christoph Riplinger    : Optimizer, TS searches, QM/MM, DLPNO-CCSD(T), (RO)-DLPNO pert. Triples 
  Michael Roemelt        : Original ROCIS implementation                 
  Masaaki Saitow         : Open-shell DLPNO-CCSD energy and density      
  Barbara Sandhoefer     : DKH picture change effects                    
  Kantharuban Sivalingam : CASSCF convergence/infrastructure, NEVPT2 and variants, FIC-MRCI 
  Bernardo de Souza      : ESD, SOC TD-DFT                               
  Georgi L. Stoychev     : AutoAux, RI-MP2 NMR, DLPNO-MP2 response, X2C  
  Van Anh Tran           : RI-MP2 g-tensors                              
  Willem Van den Heuvel  : Paramagnetic NMR                              
  Zikuan Wang            : NOTCH, Electric field optimization            
  Frank Wennmohs         : Technical directorship and infrastructure     
  Hang Xu                : AUTO-CI-Response properties                   
                                                                         
[FACCTs GmbH]                                                            
  Markus Bursch, Miquel Garcia-Rates, Christoph Riplinger, Bernardo de Souza, Georgi L. Stoychev 
                                                                 
  APM, Basis sets (HGBS, AHGBS, def-TZVP (Ac-Lr), def2-XVPD (La-Lu)), CI-OPT, improved COSX, DLPNO-Multilevel,           
  DOCKER, DRACO, updates on ESD, GOAT, IRC, LR-CPCM, MBIS, meta-GGA TD-DFT gradient, ML-optimized integration grids, 
  MM, NACMEs, nearIR, NEB, NEB-TS, NL-DFT gradient (VV10), 2- and 3-layer-ONIOM, interface openCOSMO-RS, QMMM,   
  Crystal-QMMM, SF, symmetry and pop. for TD-DFT, r2SCAN hybrids, SOLVATOR                                   
                                                                         
[Other institutions]                                                     
  V. Asgeirsson          : NEB                                           
  Christoph Bannwarth    : sTDA-DFT, sTD-DFT, PBEh-3c, B97-3c, D3        
  Sebastian Ehlert       : rSCAN, r2SCAN, r2SCAN-3c, D4, dhf basis sets  
  Marvin Friede          : D4 for Fr, Ra, Ac-Lr                          
  Lars Goerigk           : TD-DFT with DH, B97 family of functionals     
  Stefan Grimme          : VdW corrections, initial TS optimization, DFT functionals, gCP, sTDA/sTD-DF 
  Waldemar Hujo          : DFT-NL                                        
  H. Jonsson             : NEB                                           
  Holger Kruse           : gCP                                           
  Marcel Mueller         : wB97X-3c, vDZP basis set                      
  Hagen Neugebauer       : wr2SCAN                                       
  Tobias Risthaus        : range-separated hybrid DFT                    
  Lukas Wittmann         : regularized MP2, r2SCAN double-hybrids, wr2SCAN        
                                                                         
We gratefully acknowledge several colleagues who have allowed us to      
interface, adapt or use parts of their codes:                            
  Ed Valeev, F. Pavosevic, A. Kumar             : LibInt (2-el integral package), F12 methods 
  Garnet Chan, S. Sharma, J. Yang, R. Olivares  : DMRG                   
  Ulf Ekstrom                                   : XCFun DFT Library      
  Mihaly Kallay                                 : mrcc  (arbitrary order and MRCC methods)
  Frank Weinhold                                : gennbo (NPA and NBO analysis)           
  Simon Mueller                                 : openCOSMO-RS                            
  Christopher J. Cramer and Donald G. Truhlar   : smd solvation model                     
  S Lehtola, MJT Oliveira, MAL Marques          : LibXC Library                           
  Liviu Ungur et al                             : ANISO software                          


 Your calculation uses the libint2 library for the computation of 2-el integrals
 For citations please refer to: http://libint.valeyev.net

 Your ORCA version has been built with support for libXC version: 6.2.2
 For citations please refer to: https://libxc.gitlab.io

 This ORCA versions uses:
   CBLAS   interface :  Fast vector & matrix operations
   LAPACKE interface :  Fast linear algebra routines
   SCALAPACK package :  Parallel linear algebra routines
   Shared memory     :  Shared parallel matrices
   BLAS/LAPACK       :  OpenBLAS 0.3.27  USE64BITINT DYNAMIC_ARCH NO_AFFINITY SkylakeX SINGLE_THREADED
        Core in use  :  SkylakeX
   Copyright (c) 2011-2014, The OpenBLAS Project


NOTE: MaxCore=8000 MB was set to SCF,MP2,MDCI,CIPSI,MRCI and CIS
      => If you want to overwrite this, your respective input block should be placed after the MaxCore statement
Your calculation utilizes the atom-pairwise dispersion correction
with the Becke-Johnson damping scheme (D3BJ)


Your calculation utilizes the SMD solvation module
Please cite in your paper:
A.V. Marenich, C.J. Cramer, D.G. Truhlar J. Phys. Chem. B, 113, (2009), 6378 

Warning: RI is on but no J-basis has been assigned. Assigning Def2/J (nothing to worry about!)
================================================================================

----- Orbital basis set information -----
Your calculation utilizes the basis: def2-TZVP
   F. Weigend and R. Ahlrichs, Phys. Chem. Chem. Phys. 7, 3297 (2005).

----- AuxJ basis set information -----
Your calculation utilizes the auxiliary basis: def2/J
   F. Weigend, Phys. Chem. Chem. Phys. 8, 1057 (2006).

================================================================================
                                        WARNINGS
                       Please study these warnings very carefully!
================================================================================



WARNING: SCAN, rSCAN, or r2SCAN functional requested.
  ===> : libXC variant has now been activated.



WARNING: your system is open-shell and RHF/RKS was chosen
  ===> : WILL SWITCH to UHF/UKS


================================================================================
                                       INPUT FILE
================================================================================
NAME = rf_mecn_freq_r2s_C2_P_B.inp
|  1> !r2scanh def2-TZVP freq d3 TightSCF SlowConv defgrid2
|  2>  
|  3> %pal
|  4> nprocs 20
|  5> end
|  6>  
|  7> %scf
|  8> MaxIter 1500
|  9> end
| 10>  
| 11> %maxcore 8000
| 12>  
| 13> !CPCM
| 14> %cpcm smd true
| 15> SMDsolvent "ACETONITRILE"
| 16> end
| 17>  
| 18> * xyz 0 2
| 19> 6        4.718854000     -0.147405000     -0.307729000
| 20> 8        5.630143000     -1.091091000     -0.078983000
| 21> 8        4.951017000      1.014875000     -0.547549000
| 22> 6        3.364950000     -0.669324000     -0.243942000
| 23> 6        2.154015000      0.178475000     -0.494573000
| 24> 6        0.830153000     -0.536286000     -0.101369000
| 25> 6       -0.406138000      0.415079000     -0.068472000
| 26> 6       -1.758281000     -0.360818000     -0.118274000
| 27> 6       -2.961098000      0.494638000      0.377349000
| 28> 6       -4.343544000     -0.059632000     -0.064329000
| 29> 9        3.173140000     -1.963038000     -0.108938000
| 30> 9        2.227095000      1.326425000      0.210565000
| 31> 9        2.087055000      0.511840000     -1.806752000
| 32> 9        0.597538000     -1.524789000     -0.980162000
| 33> 9        0.977806000     -1.061834000      1.124939000
| 34> 9       -0.363188000      1.134015000      1.063289000
| 35> 9       -0.361445000      1.251285000     -1.114387000
| 36> 9       -1.672899000     -1.453176000      0.655877000
| 37> 9       -1.986932000     -0.744088000     -1.382939000
| 38> 9       -2.851943000      1.745292000     -0.097054000
| 39> 9       -2.943230000      0.531065000      1.715596000
| 40> 9       -4.426480000     -1.359687000      0.197246000
| 41> 9       -5.294018000      0.575974000      0.610002000
| 42> 9       -4.539689000      0.136638000     -1.360282000
| 43> 1        6.510585000     -0.680942000     -0.141251000
| 44> *
| 45> 
| 46>                          ****END OF INPUT****
================================================================================

                       ****************************
                       * Single Point Calculation *
                       ****************************

---------------------------------
CARTESIAN COORDINATES (ANGSTROEM)
---------------------------------
  C      4.718854   -0.147405   -0.307729
  O      5.630143   -1.091091   -0.078983
  O      4.951017    1.014875   -0.547549
  C      3.364950   -0.669324   -0.243942
  C      2.154015    0.178475   -0.494573
  C      0.830153   -0.536286   -0.101369
  C     -0.406138    0.415079   -0.068472
  C     -1.758281   -0.360818   -0.118274
  C     -2.961098    0.494638    0.377349
  C     -4.343544   -0.059632   -0.064329
  F      3.173140   -1.963038   -0.108938
  F      2.227095    1.326425    0.210565
  F      2.087055    0.511840   -1.806752
  F      0.597538   -1.524789   -0.980162
  F      0.977806   -1.061834    1.124939
  F     -0.363188    1.134015    1.063289
  F     -0.361445    1.251285   -1.114387
  F     -1.672899   -1.453176    0.655877
  F     -1.986932   -0.744088   -1.382939
  F     -2.851943    1.745292   -0.097054
  F     -2.943230    0.531065    1.715596
  F     -4.426480   -1.359687    0.197246
  F     -5.294018    0.575974    0.610002
  F     -4.539689    0.136638   -1.360282
  H      6.510585   -0.680942   -0.141251

----------------------------
CARTESIAN COORDINATES (A.U.)
----------------------------
  NO LB      ZA    FRAG     MASS         X           Y           Z
   0 C     6.0000    0    12.011    8.917342   -0.278555   -0.581524
   1 O     8.0000    0    15.999   10.639428   -2.061863   -0.149256
   2 O     8.0000    0    15.999    9.356066    1.917836   -1.034718
   3 C     6.0000    0    12.011    6.358834   -1.264839   -0.460984
   4 C     6.0000    0    12.011    4.070498    0.337269   -0.934608
   5 C     6.0000    0    12.011    1.568762   -1.013434   -0.191560
   6 C     6.0000    0    12.011   -0.767490    0.784386   -0.129393
   7 C     6.0000    0    12.011   -3.322670   -0.681847   -0.223505
   8 C     6.0000    0    12.011   -5.595664    0.934730    0.713086
   9 C     6.0000    0    12.011   -8.208109   -0.112688   -0.121564
  10 F     9.0000    0    18.998    5.996366   -3.709604   -0.205863
  11 F     9.0000    0    18.998    4.208600    2.506580    0.397910
  12 F     9.0000    0    18.998    3.943962    0.967237   -3.414266
  13 F     9.0000    0    18.998    1.129183   -2.881434   -1.852238
  14 F     9.0000    0    18.998    1.847786   -2.006575    2.125827
  15 F     9.0000    0    18.998   -0.686326    2.142978    2.009325
  16 F     9.0000    0    18.998   -0.683032    2.364586   -2.105886
  17 F     9.0000    0    18.998   -3.161321   -2.746105    1.239428
  18 F     9.0000    0    18.998   -3.754757   -1.406123   -2.613376
  19 F     9.0000    0    18.998   -5.389391    3.298124   -0.183405
  20 F     9.0000    0    18.998   -5.561899    1.003567    3.242007
  21 F     9.0000    0    18.998   -8.364835   -2.569436    0.372741
  22 F     9.0000    0    18.998  -10.004244    1.088433    1.152737
  23 F     9.0000    0    18.998   -8.578769    0.258208   -2.570560
  24 H     1.0000    0     1.008   12.303223   -1.286794   -0.266926

--------------------------------
INTERNAL COORDINATES (ANGSTROEM)
--------------------------------
 C      0   0   0     0.000000000000     0.00000000     0.00000000
 O      1   0   0     1.331658980608     0.00000000     0.00000000
 O      1   2   0     1.209259314361   125.71879650     0.00000000
 C      1   2   3     1.452420140712   112.06845114   179.78205640
 C      4   1   2     1.499314048753   122.84314900   181.41877583
 C      5   4   1     1.555025166285   112.66961645   191.06139139
 C      6   5   4     1.560318240781   113.55451936   167.93098630
 C      7   6   5     1.559739428963   112.51299257   162.04895473
 C      8   7   6     1.556989358202   112.71994652   161.04996481
 C      9   8   7     1.553528767516   113.63606033   161.88650150
 F      4   1   2     1.314805335368   119.60903358   353.61638742
 F      5   4   1     1.349203278955   110.48726944   311.65631978
 F      5   4   1     1.355518200861   109.92440544    70.03796016
 F      6   5   4     1.342953854785   108.68273326   289.40291293
 F      6   5   4     1.342323887732   108.50096013    48.02457868
 F      7   6   5     1.341490453085   108.61366343   282.48580111
 F      7   6   5     1.339841828691   109.73352760    41.36423196
 F      8   7   6     1.341583339524   109.35647321    40.61388490
 F      8   7   6     1.341102059847   108.66764949   281.97575151
 F      9   8   7     1.342053817159   109.67317814    41.26976222
 F      9   8   7     1.338861914001   108.83318081   282.01255853
 F     10   9   8     1.328699689074   110.40565734    48.71826823
 F     10   9   8     1.327447968650   108.77825183   168.14985088
 F     10   9   8     1.325325979574   110.90798132   287.59164227
 H      2   1   3     0.973281881774   108.02468715   359.85792366

---------------------------
INTERNAL COORDINATES (A.U.)
---------------------------
 C      0   0   0     0.000000000000     0.00000000     0.00000000
 O      1   0   0     2.516470777125     0.00000000     0.00000000
 O      1   2   0     2.285168929036   125.71879650     0.00000000
 C      1   2   3     2.744676297337   112.06845114   179.78205640
 C      4   1   2     2.833292940883   122.84314900   181.41877583
 C      5   4   1     2.938571695635   112.66961645   191.06139139
 C      6   5   4     2.948574156839   113.55451936   167.93098630
 C      7   6   5     2.947480361019   112.51299257   162.04895473
 C      8   7   6     2.942283480431   112.71994652   161.04996481
 C      9   8   7     2.935743911774   113.63606033   161.88650150
 F      4   1   2     2.484622003264   119.60903358   353.61638742
 F      5   4   1     2.549624696214   110.48726944   311.65631978
 F      5   4   1     2.561558169173   109.92440544    70.03796016
 F      6   5   4     2.537814996038   108.68273326   289.40291293
 F      6   5   4     2.536624530835   108.50096013    48.02457868
 F      7   6   5     2.535049567600   108.61366343   282.48580111
 F      7   6   5     2.531934118998   109.73352760    41.36423196
 F      8   7   6     2.535225097532   109.35647321    40.61388490
 F      8   7   6     2.534315610749   108.66764949   281.97575151
 F      9   8   7     2.536114171413   109.67317814    41.26976222
 F      9   8   7     2.530082348599   108.83318081   282.01255853
 F     10   9   8     2.510878526577   110.40565734    48.71826823
 F     10   9   8     2.508513117779   108.77825183   168.14985088
 F     10   9   8     2.504503139566   110.90798132   287.59164227
 H      2   1   3     1.839236207660   108.02468715   359.85792366

---------------------
BASIS SET INFORMATION
---------------------
There are 4 groups of distinct atoms

 Group   1 Type C   : 11s6p2d1f contracted to 5s3p2d1f pattern {62111/411/11/1}
 Group   2 Type O   : 11s6p2d1f contracted to 5s3p2d1f pattern {62111/411/11/1}
 Group   3 Type F   : 11s6p2d1f contracted to 5s3p2d1f pattern {62111/411/11/1}
 Group   4 Type H   : 5s1p contracted to 3s1p pattern {311/1}

Atom   0C    basis set group =>   1
Atom   1O    basis set group =>   2
Atom   2O    basis set group =>   2
Atom   3C    basis set group =>   1
Atom   4C    basis set group =>   1
Atom   5C    basis set group =>   1
Atom   6C    basis set group =>   1
Atom   7C    basis set group =>   1
Atom   8C    basis set group =>   1
Atom   9C    basis set group =>   1
Atom  10F    basis set group =>   3
Atom  11F    basis set group =>   3
Atom  12F    basis set group =>   3
Atom  13F    basis set group =>   3
Atom  14F    basis set group =>   3
Atom  15F    basis set group =>   3
Atom  16F    basis set group =>   3
Atom  17F    basis set group =>   3
Atom  18F    basis set group =>   3
Atom  19F    basis set group =>   3
Atom  20F    basis set group =>   3
Atom  21F    basis set group =>   3
Atom  22F    basis set group =>   3
Atom  23F    basis set group =>   3
Atom  24H    basis set group =>   4
---------------------------------
AUXILIARY/J BASIS SET INFORMATION
---------------------------------
There are 4 groups of distinct atoms

 Group   1 Type C   : 12s5p4d2f1g contracted to 6s4p3d1f1g pattern {711111/2111/211/2/1}
 Group   2 Type O   : 12s5p4d2f1g contracted to 6s4p3d1f1g pattern {711111/2111/211/2/1}
 Group   3 Type F   : 12s5p4d2f1g contracted to 6s4p3d1f1g pattern {711111/2111/211/2/1}
 Group   4 Type H   : 5s2p1d contracted to 3s1p1d pattern {311/2/1}

Atom   0C    basis set group =>   1
Atom   1O    basis set group =>   2
Atom   2O    basis set group =>   2
Atom   3C    basis set group =>   1
Atom   4C    basis set group =>   1
Atom   5C    basis set group =>   1
Atom   6C    basis set group =>   1
Atom   7C    basis set group =>   1
Atom   8C    basis set group =>   1
Atom   9C    basis set group =>   1
Atom  10F    basis set group =>   3
Atom  11F    basis set group =>   3
Atom  12F    basis set group =>   3
Atom  13F    basis set group =>   3
Atom  14F    basis set group =>   3
Atom  15F    basis set group =>   3
Atom  16F    basis set group =>   3
Atom  17F    basis set group =>   3
Atom  18F    basis set group =>   3
Atom  19F    basis set group =>   3
Atom  20F    basis set group =>   3
Atom  21F    basis set group =>   3
Atom  22F    basis set group =>   3
Atom  23F    basis set group =>   3
Atom  24H    basis set group =>   4


           ************************************************************
           *        Program running with 20 parallel MPI-processes    *
           *              working on a common directory               *
           ************************************************************
------------------------------------------------------------------------------
                             ORCA STARTUP CALCULATIONS
                           -- RI-GTO INTEGRALS CHOSEN --
------------------------------------------------------------------------------
------------------------------------------------------------------------------
                   ___                                                        
                  /   \      - P O W E R E D   B Y -                         
                 /     \                                                     
                 |  |  |   _    _      __       _____    __    __             
                 |  |  |  | |  | |    /  \     |  _  \  |  |  /  |          
                  \  \/   | |  | |   /    \    | | | |  |  | /  /          
                 / \  \   | |__| |  /  /\  \   | |_| |  |  |/  /          
                |  |  |   |  __  | /  /__\  \  |    /   |      \           
                |  |  |   | |  | | |   __   |  |    \   |  |\   \          
                \     /   | |  | | |  |  |  |  | |\  \  |  | \   \       
                 \___/    |_|  |_| |__|  |__|  |_| \__\ |__|  \__/        
                                                                              
                      - O R C A' S   B I G   F R I E N D -                    
                                      &                                       
                       - I N T E G R A L  F E E D E R -                       
                                                                              
 v1 FN, 2020, v2 2021, v3 2022-2024                                           
------------------------------------------------------------------------------


----------------------
SHARK INTEGRAL PACKAGE
----------------------

Number of atoms                             ...     25
Number of basis functions                   ...    750
Number of shells                            ...    268
Maximum angular momentum                    ...      3
Integral batch strategy                     ... SHARK/LIBINT Hybrid
RI-J (if used) integral strategy            ... SPLIT-RIJ (Revised 2003 algorithm where possible)
Printlevel                                  ...      1
Contraction scheme used                     ... SEGMENTED contraction
Prescreening option                         ... SCHWARTZ
   Thresh                                   ... 2.500e-11
   Tcut                                     ... 2.500e-12
   Tpresel                                  ... 2.500e-12 
Coulomb Range Separation                    ... NOT USED
Exchange Range Separation                   ... NOT USED
Multipole approximations                    ... NOT USED
Finite Nucleus Model                        ... NOT USED
CABS basis                                  ... NOT available
Auxiliary Coulomb fitting basis             ... AVAILABLE
   # of basis functions in Aux-J            ...   1187
   # of shells in Aux-J                     ...    365
   Maximum angular momentum in Aux-J        ...      4
Auxiliary J/K fitting basis                 ... NOT available
Auxiliary Correlation fitting basis         ... NOT available
Auxiliary 'external' fitting basis          ... NOT available

Checking pre-screening integrals            ... done (  0.0 sec) Dimension = 268
Check shell pair data                       ... done (  0.0 sec)
Shell pair information
Shell pair cut-off parameter TPreSel        ...   2.5e-12
Total number of shell pairs                 ...     36046
Shell pairs after pre-screening             ...     22418
Total number of primitive shell pairs       ...    118872
Primitive shell pairs kept                  ...     47674
          la=0 lb=0:   4267 shell pairs
          la=1 lb=0:   6116 shell pairs
          la=1 lb=1:   2111 shell pairs
          la=2 lb=0:   3332 shell pairs
          la=2 lb=1:   2424 shell pairs
          la=2 lb=2:    685 shell pairs
          la=3 lb=0:   1530 shell pairs
          la=3 lb=1:   1169 shell pairs
          la=3 lb=2:    631 shell pairs
          la=3 lb=3:    153 shell pairs

Calculating one electron integrals          ... done (  0.0 sec)
Calculating RI/J V-Matrix + Cholesky decomp.... done (  0.1 sec)
Calculating Nuclear repulsion               ... done (  0.0 sec) ENN=   2679.166238866261 Eh

Diagonalization of the overlap matrix:
Smallest eigenvalue                        ... 4.363e-05
Time for diagonalization                   ...    0.100 sec
Threshold for overlap eigenvalues          ... 1.000e-07
Number of eigenvalues below threshold      ... 0
Time for construction of square roots      ...    0.044 sec
Total time needed                          ...    0.148 sec

-------------------
DFT GRID GENERATION
-------------------

General Integration Accuracy     IntAcc      ... 4.388
Radial Grid Type                 RadialGrid  ... OptM3 with GC (2021)
Angular Grid (max. ang.)         AngularGrid ... 4 (Lebedev-302)
Angular grid pruning method      GridPruning ... 4 (adaptive)
Weight generation scheme         WeightScheme... mBecke (2022)
Basis function cutoff            BFCut       ... 1.0000e-11
Integration weight cutoff        WCut        ... 1.0000e-14
Partially contracted basis set               ... off
Rotationally invariant grid construction     ... off
Angular grids for H and He will be reduced by one unit

Total number of grid points                  ...   148605
Total number of batches                      ...     2334
Average number of points per batch           ...       63
Average number of grid points per atom       ...     5944

--------------------
COSX GRID GENERATION
--------------------

GRIDX 1
-------
General Integration Accuracy     IntAcc      ... 3.816
Radial Grid Type                 RadialGrid  ... OptM3 with GC (2021)
Angular Grid (max. ang.)         AngularGrid ... 1 (Lebedev-50)
Angular grid pruning method      GridPruning ... 4 (adaptive)
Weight generation scheme         WeightScheme... mBecke (2022)
Basis function cutoff            BFCut       ... 1.0000e-11
Integration weight cutoff        WCut        ... 1.0000e-14
Partially contracted basis set               ... on
Rotationally invariant grid construction     ... off
Angular grids for H and He will be reduced by one unit

Total number of grid points                  ...    18674
Total number of batches                      ...      157
Average number of points per batch           ...      118
Average number of grid points per atom       ...      747
UseSFitting                                  ... on

GRIDX 2
-------
General Integration Accuracy     IntAcc      ... 4.020
Radial Grid Type                 RadialGrid  ... OptM3 with GC (2021)
Angular Grid (max. ang.)         AngularGrid ... 2 (Lebedev-110)
Angular grid pruning method      GridPruning ... 4 (adaptive)
Weight generation scheme         WeightScheme... mBecke (2022)
Basis function cutoff            BFCut       ... 1.0000e-11
Integration weight cutoff        WCut        ... 1.0000e-14
Partially contracted basis set               ... on
Rotationally invariant grid construction     ... off
Angular grids for H and He will be reduced by one unit

Total number of grid points                  ...    44038
Total number of batches                      ...      357
Average number of points per batch           ...      123
Average number of grid points per atom       ...     1762
UseSFitting                                  ... on

GRIDX 3
-------
General Integration Accuracy     IntAcc      ... 4.338
Radial Grid Type                 RadialGrid  ... OptM3 with GC (2021)
Angular Grid (max. ang.)         AngularGrid ... 3 (Lebedev-194)
Angular grid pruning method      GridPruning ... 4 (adaptive)
Weight generation scheme         WeightScheme... mBecke (2022)
Basis function cutoff            BFCut       ... 1.0000e-11
Integration weight cutoff        WCut        ... 1.0000e-14
Partially contracted basis set               ... on
Rotationally invariant grid construction     ... off
Angular grids for H and He will be reduced by one unit

Total number of grid points                  ...    97554
Total number of batches                      ...      772
Average number of points per batch           ...      126
Average number of grid points per atom       ...     3902
UseSFitting                                  ... on
Initializing property integral containers    ... done (  0.0 sec)

SHARK setup successfully completed in   3.1 seconds

Maximum memory used throughout the entire STARTUP-calculation: 57.5 MB


           ************************************************************
           *        Program running with 20 parallel MPI-processes    *
           *              working on a common directory               *
           ************************************************************
-------------------------------------------------------------------------------
                                 ORCA GUESS
                   Start orbitals & Density for SCF / CASSCF
-------------------------------------------------------------------------------

------------
SCF SETTINGS
------------
Hamiltonian:
 Density Functional     Method          .... DFT(GTOs)
  Functional kind                       .... Exchange
  Functional name                       .... Re-regularized SCAN exchange by Furness et al
  Functional family                     .... MGGA
  Functional refs                              
    [ 0] J. W. Furness, A. D. Kaplan, J. Ning, J. P. Perdew, and J. Sun.,  J. Phys. Chem. Lett. 11, 8208-8215 (2020), doi: 10.1021/acs.jpclett.0c02405
    [ 1] J. W. Furness, A. D. Kaplan, J. Ning, J. P. Perdew, and J. Sun.,  J. Phys. Chem. Lett. 11, 9248-9248 (2020), doi: 10.1021/acs.jpclett.0c03077
  Functional external parameters        .... 6
    Parameter  0 _c1        =  6.670000e-01 : c1 parameter        
    Parameter  1 _c2        =  8.000000e-01 : c2 parameter        
    Parameter  2 _d         =  1.240000e+00 : d parameter         
    Parameter  3 _k1        =  6.500000e-02 : k1 parameter        
    Parameter  4 _eta       =  1.000000e-03 : eta parameter       
    Parameter  5 _dp2       =  3.610000e-01 : dp2 parameter       
  Functional kind                       .... Correlation
  Functional name                       .... Re-regularized SCAN correlation by Furness et al
  Functional family                     .... MGGA
  Functional refs                              
    [ 0] J. W. Furness, A. D. Kaplan, J. Ning, J. P. Perdew, and J. Sun.,  J. Phys. Chem. Lett. 11, 8208-8215 (2020), doi: 10.1021/acs.jpclett.0c02405
    [ 1] J. W. Furness, A. D. Kaplan, J. Ning, J. P. Perdew, and J. Sun.,  J. Phys. Chem. Lett. 11, 9248-9248 (2020), doi: 10.1021/acs.jpclett.0c03077
  Functional external parameters        .... 1
    Parameter  0 _eta       =  1.000000e-03 : Regularization parameter
 Gradients option       PostSCFGGA      .... off
 Hybrid DFT is turned on
   Fraction HF Exchange ScalHFX         ....  0.100000
   Scaling of DF-GGA-X  ScalDFX         ....  0.900000
   Scaling of DF-GGA-C  ScalDFC         ....  1.000000
   Scaling of DF-LDA-C  ScalLDAC        ....  1.000000
   Perturbative correction              ....  0.000000
   NL short-range parameter             .... 11.900000
 RI-approximation to the Coulomb term is turned on
   Number of AuxJ basis functions       .... 1187
   RIJ-COSX (HFX calculated with COS-X)).... on


General Settings:
 Integral files         IntName         .... rf_mecn_freq_r2s_C2_P_B
 Hartree-Fock type      HFTyp           .... UHF
 Total Charge           Charge          ....    0
 Multiplicity           Mult            ....    2
 Number of Electrons    NEL             ....  191
 Basis Dimension        Dim             ....  750
 Nuclear Repulsion      ENuc            ....   2679.1662388663 Eh

Convergence Acceleration:
 AO-DIIS                CNVDIIS         .... on
   Start iteration      DIISMaxIt       ....     0
   Startup error        DIISStart       ....  0.200000
   # of expansion vecs  DIISMaxEq       ....     5
   Bias factor          DIISBfac        ....   1.050
   Max. coefficient     DIISMaxC        ....  10.000
 MO-DIIS                CNVKDIIS        .... off
 Trust-Rad. Augm. Hess. CNVTRAH         .... auto
   Auto Start mean grad. ratio tolernc. ....  1.125000
   Auto Start start iteration           ....    50
   Auto Start num. interpolation iter.  ....    10
   Max. Number of Micro iterations      ....    24
   Max. Number of Macro iterations      .... Maxiter - #DIIS iter
   Number of Davidson start vectors     ....     2
   Converg. threshold    (grad. norm)   ....   1.000e-05
   Grad. Scal. Fac. for Micro threshold ....   0.100
   Minimum threshold for Micro iter.    ....   1.000e-02
   NR start threshold (gradient norm)   ....   1.000e-04
   Initial trust radius                 ....   0.400
   Minimum AH scaling param. (alpha)    ....   1.000
   Maximum AH scaling param. (alpha)    .... 1000.000
   Quad. conv. algorithm                .... NR
   White noise on init. David. guess    .... on
   Maximum white noise                  ....   0.010
   Pseudo random numbers                .... off
   Inactive MOs                         .... canonical
   Orbital update algorithm             .... Taylor
   Preconditioner                       .... Diag
   Full preconditioner red. dimension   ....   250
 SOSCF                  CNVSOSCF        .... on
   Start iteration      SOSCFMaxIt      ....   150
   Startup grad/error   SOSCFStart      ....  0.001000
   Hessian update       SOSCFHessUp     .... L-BFGS
 Level Shifting         CNVShift        .... on
   Level shift para.    LevelShift      ....    0.2500
   Turn off err/grad.   ShiftErr        ....    0.0000
 Zerner damping         CNVZerner       .... off
 Static damping         CNVDamp         .... on
   Fraction old density DampFac         ....    0.8500
   Max. Damping (<1)    DampMax         ....    0.9800
   Min. Damping (>=0)   DampMin         ....    0.0000
   Turn off err/grad.   DampErr         ....    0.0300

SCF Procedure:
 Maximum # iterations   MaxIter         ....  1500
 SCF integral mode      SCFMode         .... Direct
   Integral package                     .... SHARK and LIBINT hybrid scheme
 Reset frequency        DirectResetFreq ....    20
 Integral Threshold     Thresh          ....  2.500e-11 Eh
 Primitive CutOff       TCut            ....  2.500e-12 Eh

Convergence Tolerance:
 Convergence Check Mode ConvCheckMode   .... Total+1el-Energy
 Convergence forced     ConvForced      .... 0
 Energy Change          TolE            ....  1.000e-08 Eh
 1-El. energy change                    ....  1.000e-05 Eh
 Orbital Gradient       TolG            ....  1.000e-05
 Orbital Rotation angle TolX            ....  1.000e-05
 DIIS Error             TolErr          ....  5.000e-07

------------------------------
INITIAL GUESS: MODEL POTENTIAL
------------------------------
Loading Hartree-Fock densities                     ... done
Calculating cut-offs                               ... done
Initializing the effective Hamiltonian             ... done
Setting up the integral package (SHARK)            ... done
Starting the Coulomb interaction                   ... done (   0.1 sec)
Making the grid                                    ... done (   0.4 sec)
Mapping shells                                     ... done
Starting the XC term evaluation                    ... done (   0.1 sec)
  promolecular density results
     # of electrons  =    190.998914193
     EX              =   -197.624535953
     EC              =     -6.721637685
     EX+EC           =   -204.346173638
Transforming the Hamiltonian                       ... done (   0.0 sec)
Diagonalizing the Hamiltonian                      ... done (   0.1 sec)
Back transforming the eigenvectors                 ... done (   0.0 sec)
Now organizing SCF variables                       ... done
                      ------------------
                      INITIAL GUESS DONE (   1.0 sec)
                      ------------------
             **** ENERGY FILE WAS UPDATED (rf_mecn_freq_r2s_C2_P_B.en.tmp) ****
Finished Guess after   1.8 sec
Maximum memory used throughout the entire GUESS-calculation: 46.3 MB


           ************************************************************
           *        Program running with 20 parallel MPI-processes    *
           *              working on a common directory               *
           ************************************************************

-------------------------------------------------------------------------------------------
                                      ORCA LEAN-SCF
                              memory conserving SCF solver
-------------------------------------------------------------------------------------------

--------------------
CPCM SOLVATION MODEL
--------------------
CPCM parameters:
  Epsilon                                         ...      35.6880
  Refrac                                          ...       1.3442
  Rsolv                                           ...       1.3000
  Surface type                                    ... GAUSSIAN VDW
  Discretization scheme                           ... Constant charge density
    Threshold for H atoms                         ...       5.0000 (charges/Ang^2)
    Threshold for non-H atoms                     ...       5.0000 (charges/Ang^2)
  Epsilon function type                           ...         CPCM
Solvent:                                          ... ACETONITRILE
SMD-CDS solvent descriptors:
  Soln                                            ...       1.3442
  Soln25                                          ...       1.3416
  Sola                                            ...       0.0700
  Solb                                            ...       0.3200
  Solg                                            ...      41.2500
  Solc                                            ...       0.0000
  Solh                                            ...       0.0000
Radii:
  Scheme                                          ... Element-dependent radii
  Radius for C  used is    3.4960 Bohr (=   1.8500 Ang.)
  Radius for O  used is    4.0969 Bohr (=   2.1680 Ang.)
  Radius for F  used is    3.2692 Bohr (=   1.7300 Ang.)
  Radius for H  used is    2.2677 Bohr (=   1.2000 Ang.)
Calculating surface                               ...        done! (  0.0s)
Cavity surface points                             ...         2125
Cavity Volume                                     ...    2087.1651
Cavity Surface-area                               ...    1089.7130
Calculating surface distance matrix               ...        done! (  0.0s)
Performing Cholesky decomposition & store         ...        done! (  0.1s)
Overall time for CPCM initialization              ...                 0.1s

----------------------------------------D-I-I-S--------------------------------------------
Iteration    Energy (Eh)           Delta-E    RMSDP     MaxDP     DIISErr   Damp  Time(sec)
-------------------------------------------------------------------------------------------
               ***  Starting incremental Fock matrix formation  ***
    1    -1853.1935542833311956     0.00e+00  2.35e-04  2.80e-02  1.50e-01  0.850   6.5
Warning: op=1 Small HOMO/LUMO gap (   0.023) - skipping pre-diagonalization
         Will do a full diagonalization
    2    -1853.3075193721765572    -1.14e-01  2.60e-04  4.49e-02  1.03e-01  0.850   4.6
                               ***Turning on AO-DIIS***
    3    -1853.3706373625350352    -6.31e-02  1.08e-04  1.28e-02  6.17e-02  0.850   3.8
    4    -1853.4089629395034535    -3.83e-02  6.54e-05  5.22e-03  4.77e-02  0.850   3.7
    5    -1853.4364533157736332    -2.75e-02  5.46e-05  4.44e-03  4.10e-02  0.850   3.7
    6    -1853.4583644939243641    -2.19e-02  4.86e-05  4.09e-03  3.61e-02  0.850   3.6
    7    -1853.4766832016380249    -1.83e-02  4.37e-05  3.60e-03  3.11e-02  0.850   3.8
    8    -1853.4922145816085504    -1.55e-02  3.81e-05  3.11e-03  2.58e-02  0.850   3.5
    9    -1853.5051800059404741    -1.30e-02  2.16e-04  1.81e-02  2.14e-02  0.000   3.4
   10    -1853.5737333960855722    -6.86e-02  1.56e-05  1.67e-03  3.14e-03  0.000   3.9
   11    -1853.5738319711749682    -9.86e-05  9.32e-06  1.33e-03  1.67e-03  0.000   3.4
   12    -1853.5738600744102769    -2.81e-05  3.93e-06  5.43e-04  1.20e-03  0.000   3.3
                              *** Initializing SOSCF ***
---------------------------------------S-O-S-C-F--------------------------------------
Iteration    Energy (Eh)           Delta-E    RMSDP     MaxDP     MaxGrad    Time(sec)
--------------------------------------------------------------------------------------
   13    -1853.5738715765387497    -1.15e-05  2.49e-06  3.04e-04  3.82e-04     4.2
               *** Restarting incremental Fock matrix formation ***
   14    -1853.5738668739199966     4.70e-06  2.52e-06  2.06e-04  1.69e-04     7.7
   15    -1853.5738680871386350    -1.21e-06  2.64e-06  2.79e-04  7.78e-05     4.7
   16    -1853.5738684179445954    -3.31e-07  1.36e-06  1.01e-04  6.16e-05     4.6
   17    -1853.5738686608842727    -2.43e-07  5.82e-07  6.26e-05  2.55e-05     4.5
   18    -1853.5738686619829423    -1.10e-09  2.81e-07  3.07e-05  3.47e-05     3.8
                 **** Energy Check signals convergence ****

               *****************************************************
               *                     SUCCESS                       *
               *           SCF CONVERGED AFTER  18 CYCLES          *
               *****************************************************

Recomputing exchange energy using gridx3       ... done (    8.772 sec)
Old exchange energy                            :    -19.931203169 Eh
New exchange energy                            :    -19.931202063 Eh
Exchange energy change after final integration :      0.000001106 Eh
Total energy after final integration           :  -1853.573867556 Eh

SMD CDS free energy correction energy :                 3.22303     Kcal/mol
Total Energy after SMD CDS correction =             -1853.568731335 Eh
             **** ENERGY FILE WAS UPDATED (rf_mecn_freq_r2s_C2_P_B.en.tmp) ****

----------------
TOTAL SCF ENERGY
----------------

Total Energy       :      -1853.56873133456270 Eh          -50438.16941 eV

Components:
Nuclear Repulsion  :       2679.16623886626121 Eh           72903.81972 eV
Electronic Energy  :      -4532.72827553474053 Eh         -123341.80695 eV
One Electron Energy:      -7909.08074843172290 Eh         -215217.02859 eV
Two Electron Energy:       3376.35247289698236 Eh           91875.22163 eV
CPCM Dielectric    :         -0.01183199350351 Eh              -0.32196 eV
SMD CDS (Gcds)     :          0.00513622132652 Eh               0.13976 eV

Virial components:
Potential Energy   :      -3700.98881601936137 Eh         -100709.02563 eV
Kinetic Energy     :       1847.42008468479889 Eh           50270.85623 eV
Virial Ratio       :          2.00332823416869

DFT components:
N(Alpha)           :       95.999987720078 electrons
N(Beta)            :       94.999982382262 electrons
N(Total)           :      190.999970102340 electrons
E(X)               :     -180.327300895294 Eh       
E(C)               :       -6.649448001734 Eh       
E(XC)              :     -186.976748897027 Eh       

CPCM Solvation Model Properties:
Surface-charge          :         -0.00832337277085
Corrected charge        :          0.00000000000000
Outlying charge corr.   :          0.00000380873198 Eh               0.00010 eV
Free-energy (cav+disp)  :          0.00513622132652 Eh               0.13976 eV

---------------
SCF CONVERGENCE
---------------

  Last Energy change         ...    1.0987e-09  Tolerance :   1.0000e-08
  Last MAX-Density change    ...    3.0744e-05  Tolerance :   1.0000e-07
  Last RMS-Density change    ...    2.8134e-07  Tolerance :   5.0000e-09
  Last DIIS Error            ...    3.8193e-04  Tolerance :   5.0000e-07
  Last Orbital Gradient      ...    3.4688e-05  Tolerance :   1.0000e-05
  Last Orbital Rotation      ...    5.9526e-05  Tolerance :   1.0000e-05


----------------------
UHF SPIN CONTAMINATION
----------------------

Warning: in a DFT calculation there is little theoretical justification to 
         calculate <S**2> as in Hartree-Fock theory. We will do it anyways
         but you should keep in mind that the values have only limited relevance

Expectation value of <S**2>     :     0.760295
Ideal value S*(S+1) for S=0.5   :     0.750000
Deviation                       :     0.010295

----------------
ORBITAL ENERGIES
----------------
                 SPIN UP ORBITALS
  NO   OCC          E(Eh)            E(eV) 
   0   1.0000     -24.742472      -673.2769 
   1   1.0000     -24.734819      -673.0687 
   2   1.0000     -24.734791      -673.0679 
   3   1.0000     -24.734137      -673.0501 
   4   1.0000     -24.734055      -673.0479 
   5   1.0000     -24.733565      -673.0345 
   6   1.0000     -24.733498      -673.0327 
   7   1.0000     -24.733024      -673.0198 
   8   1.0000     -24.732935      -673.0174 
   9   1.0000     -24.732595      -673.0081 
  10   1.0000     -24.732306      -673.0003 
  11   1.0000     -24.731689      -672.9835 
  12   1.0000     -24.723035      -672.7480 
  13   1.0000     -24.720267      -672.6727 
  14   1.0000     -19.182466      -521.9814 
  15   1.0000     -19.130797      -520.5755 
  16   1.0000     -10.441971      -284.1405 
  17   1.0000     -10.390341      -282.7356 
  18   1.0000     -10.389820      -282.7214 
  19   1.0000     -10.387761      -282.6653 
  20   1.0000     -10.386585      -282.6333 
  21   1.0000     -10.383046      -282.5370 
  22   1.0000     -10.315934      -280.7108 
  23   1.0000     -10.308683      -280.5135 
  24   1.0000      -1.363684       -37.1077 
  25   1.0000      -1.343381       -36.5553 
  26   1.0000      -1.328460       -36.1492 
  27   1.0000      -1.317704       -35.8565 
  28   1.0000      -1.317437       -35.8493 
  29   1.0000      -1.308215       -35.5983 
  30   1.0000      -1.300850       -35.3979 
  31   1.0000      -1.276382       -34.7321 
  32   1.0000      -1.271155       -34.5899 
  33   1.0000      -1.268619       -34.5209 
  34   1.0000      -1.264672       -34.4135 
  35   1.0000      -1.259728       -34.2789 
  36   1.0000      -1.258505       -34.2457 
  37   1.0000      -1.248769       -33.9807 
  38   1.0000      -1.138630       -30.9837 
  39   1.0000      -1.052173       -28.6311 
  40   1.0000      -0.852745       -23.2044 
  41   1.0000      -0.839948       -22.8561 
  42   1.0000      -0.814211       -22.1558 
  43   1.0000      -0.776949       -21.1418 
  44   1.0000      -0.735022       -20.0010 
  45   1.0000      -0.697268       -18.9736 
  46   1.0000      -0.678589       -18.4654 
  47   1.0000      -0.651717       -17.7341 
  48   1.0000      -0.644680       -17.5426 
  49   1.0000      -0.639939       -17.4136 
  50   1.0000      -0.631823       -17.1928 
  51   1.0000      -0.624776       -17.0010 
  52   1.0000      -0.622255       -16.9324 
  53   1.0000      -0.617117       -16.7926 
  54   1.0000      -0.607491       -16.5307 
  55   1.0000      -0.601173       -16.3588 
  56   1.0000      -0.595791       -16.2123 
  57   1.0000      -0.592234       -16.1155 
  58   1.0000      -0.583038       -15.8653 
  59   1.0000      -0.579226       -15.7615 
  60   1.0000      -0.573191       -15.5973 
  61   1.0000      -0.551338       -15.0027 
  62   1.0000      -0.531396       -14.4600 
  63   1.0000      -0.509991       -13.8776 
  64   1.0000      -0.505546       -13.7566 
  65   1.0000      -0.504769       -13.7355 
  66   1.0000      -0.497690       -13.5428 
  67   1.0000      -0.494930       -13.4677 
  68   1.0000      -0.489408       -13.3175 
  69   1.0000      -0.487426       -13.2635 
  70   1.0000      -0.485161       -13.2019 
  71   1.0000      -0.477724       -12.9995 
  72   1.0000      -0.474730       -12.9181 
  73   1.0000      -0.472116       -12.8469 
  74   1.0000      -0.470153       -12.7935 
  75   1.0000      -0.464155       -12.6303 
  76   1.0000      -0.463207       -12.6045 
  77   1.0000      -0.458005       -12.4629 
  78   1.0000      -0.451256       -12.2793 
  79   1.0000      -0.447202       -12.1690 
  80   1.0000      -0.443504       -12.0683 
  81   1.0000      -0.440794       -11.9946 
  82   1.0000      -0.438780       -11.9398 
  83   1.0000      -0.435043       -11.8381 
  84   1.0000      -0.433441       -11.7945 
  85   1.0000      -0.431208       -11.7338 
  86   1.0000      -0.428704       -11.6656 
  87   1.0000      -0.427727       -11.6391 
  88   1.0000      -0.424466       -11.5503 
  89   1.0000      -0.417683       -11.3657 
  90   1.0000      -0.405895       -11.0450 
  91   1.0000      -0.374074       -10.1791 
  92   1.0000      -0.347827        -9.4648 
  93   1.0000      -0.336110        -9.1460 
  94   1.0000      -0.302769        -8.2388 
  95   1.0000      -0.267362        -7.2753 
  96   0.0000      -0.021929        -0.5967 
  97   0.0000      -0.011528        -0.3137 
  98   0.0000       0.003837         0.1044 
  99   0.0000       0.033893         0.9223 
 100   0.0000       0.044875         1.2211 
 101   0.0000       0.066521         1.8101 
 102   0.0000       0.080633         2.1941 
 103   0.0000       0.094382         2.5683 
 104   0.0000       0.107850         2.9348 
 105   0.0000       0.120407         3.2764 
 106   0.0000       0.125431         3.4132 

                 SPIN DOWN ORBITALS
  NO   OCC          E(Eh)            E(eV) 
   0   1.0000     -24.737353      -673.1376 
   1   1.0000     -24.734819      -673.0686 
   2   1.0000     -24.734791      -673.0679 
   3   1.0000     -24.734137      -673.0501 
   4   1.0000     -24.734055      -673.0479 
   5   1.0000     -24.733566      -673.0345 
   6   1.0000     -24.733495      -673.0326 
   7   1.0000     -24.732978      -673.0185 
   8   1.0000     -24.732935      -673.0174 
   9   1.0000     -24.732595      -673.0081 
  10   1.0000     -24.732306      -673.0003 
  11   1.0000     -24.731637      -672.9821 
  12   1.0000     -24.722317      -672.7284 
  13   1.0000     -24.718644      -672.6285 
  14   1.0000     -19.181964      -521.9678 
  15   1.0000     -19.125664      -520.4358 
  16   1.0000     -10.441972      -284.1405 
  17   1.0000     -10.390344      -282.7356 
  18   1.0000     -10.389832      -282.7217 
  19   1.0000     -10.387762      -282.6654 
  20   1.0000     -10.386554      -282.6325 
  21   1.0000     -10.383857      -282.5591 
  22   1.0000     -10.317439      -280.7518 
  23   1.0000     -10.293339      -280.0960 
  24   1.0000      -1.363684       -37.1077 
  25   1.0000      -1.343244       -36.5515 
  26   1.0000      -1.328012       -36.1370 
  27   1.0000      -1.317580       -35.8532 
  28   1.0000      -1.317181       -35.8423 
  29   1.0000      -1.306411       -35.5493 
  30   1.0000      -1.292273       -35.1645 
  31   1.0000      -1.276368       -34.7317 
  32   1.0000      -1.271088       -34.5881 
  33   1.0000      -1.268617       -34.5208 
  34   1.0000      -1.264563       -34.4105 
  35   1.0000      -1.259672       -34.2774 
  36   1.0000      -1.258477       -34.2449 
  37   1.0000      -1.246492       -33.9188 
  38   1.0000      -1.136309       -30.9205 
  39   1.0000      -1.045743       -28.4561 
  40   1.0000      -0.850848       -23.1527 
  41   1.0000      -0.832953       -22.6658 
  42   1.0000      -0.805436       -21.9170 
  43   1.0000      -0.768854       -20.9216 
  44   1.0000      -0.731604       -19.9079 
  45   1.0000      -0.696440       -18.9511 
  46   1.0000      -0.678311       -18.4578 
  47   1.0000      -0.649070       -17.6621 
  48   1.0000      -0.644348       -17.5336 
  49   1.0000      -0.638496       -17.3744 
  50   1.0000      -0.631744       -17.1906 
  51   1.0000      -0.624482       -16.9930 
  52   1.0000      -0.621429       -16.9099 
  53   1.0000      -0.616042       -16.7633 
  54   1.0000      -0.606315       -16.4987 
  55   1.0000      -0.600516       -16.3409 
  56   1.0000      -0.594973       -16.1900 
  57   1.0000      -0.590337       -16.0639 
  58   1.0000      -0.580752       -15.8031 
  59   1.0000      -0.576830       -15.6964 
  60   1.0000      -0.571426       -15.5493 
  61   1.0000      -0.548190       -14.9170 
  62   1.0000      -0.508872       -13.8471 
  63   1.0000      -0.504711       -13.7339 
  64   1.0000      -0.503566       -13.7027 
  65   1.0000      -0.501460       -13.6454 
  66   1.0000      -0.496379       -13.5072 
  67   1.0000      -0.493829       -13.4378 
  68   1.0000      -0.489139       -13.3102 
  69   1.0000      -0.487237       -13.2584 
  70   1.0000      -0.483674       -13.1614 
  71   1.0000      -0.477331       -12.9888 
  72   1.0000      -0.474175       -12.9030 
  73   1.0000      -0.470675       -12.8077 
  74   1.0000      -0.468755       -12.7555 
  75   1.0000      -0.462210       -12.5774 
  76   1.0000      -0.460271       -12.5246 
  77   1.0000      -0.452391       -12.3102 
  78   1.0000      -0.451248       -12.2791 
  79   1.0000      -0.445623       -12.1260 
  80   1.0000      -0.443269       -12.0620 
  81   1.0000      -0.440739       -11.9931 
  82   1.0000      -0.438639       -11.9360 
  83   1.0000      -0.434508       -11.8236 
  84   1.0000      -0.433299       -11.7907 
  85   1.0000      -0.428732       -11.6664 
  86   1.0000      -0.427576       -11.6349 
  87   1.0000      -0.426557       -11.6072 
  88   1.0000      -0.423280       -11.5180 
  89   1.0000      -0.414618       -11.2823 
  90   1.0000      -0.404329       -11.0024 
  91   1.0000      -0.372466       -10.1353 
  92   1.0000      -0.334988        -9.1155 
  93   1.0000      -0.332000        -9.0342 
  94   1.0000      -0.297088        -8.0842 
  95   0.0000      -0.143559        -3.9064 
  96   0.0000      -0.021285        -0.5792 
  97   0.0000      -0.004555        -0.1240 
  98   0.0000       0.013986         0.3806 
  99   0.0000       0.036821         1.0019 
 100   0.0000       0.054344         1.4788 
 101   0.0000       0.067850         1.8463 
 102   0.0000       0.091754         2.4967 
 103   0.0000       0.104548         2.8449 
 104   0.0000       0.109291         2.9740 
 105   0.0000       0.123296         3.3551 
*Only the first 10 virtual orbitals were printed.

                    ********************************
                    * MULLIKEN POPULATION ANALYSIS *
                    ********************************

--------------------------------------------
MULLIKEN ATOMIC CHARGES AND SPIN POPULATIONS
--------------------------------------------
   0 C :    0.301791   -0.070751
   1 O :   -0.392157    0.017122
   2 O :   -0.360937    0.161282
   3 C :    0.172786    0.783283
   4 C :    0.392330   -0.015440
   5 C :    0.329087   -0.005575
   6 C :    0.327038    0.000058
   7 C :    0.299300   -0.000101
   8 C :    0.330990   -0.000015
   9 C :    0.470911   -0.000007
  10 F :   -0.143914    0.092974
  11 F :   -0.169600    0.010949
  12 F :   -0.175002    0.027469
  13 F :   -0.166541    0.000807
  14 F :   -0.165279    0.000682
  15 F :   -0.162335   -0.000002
  16 F :   -0.161261   -0.000005
  17 F :   -0.162832    0.000009
  18 F :   -0.162491    0.000001
  19 F :   -0.162595   -0.000001
  20 F :   -0.159195    0.000000
  21 F :   -0.155757    0.000000
  22 F :   -0.152840   -0.000003
  23 F :   -0.153671   -0.000000
  24 H :    0.382175   -0.002736
Sum of atomic charges         :   -0.0000000
Sum of atomic spin populations:    1.0000000

-----------------------------------------------------
MULLIKEN REDUCED ORBITAL CHARGES AND SPIN POPULATIONS
-----------------------------------------------------
CHARGE
  0 C s       :     3.026266  s :     3.026266
      pz      :     0.795884  p :     2.366323
      px      :     0.835927
      py      :     0.734512
      dz2     :     0.014729  d :     0.280943
      dxz     :     0.035944
      dyz     :     0.059785
      dx2y2   :     0.072671
      dxy     :     0.097814
      f0      :     0.002793  f :     0.024677
      f+1     :     0.001324
      f-1     :     0.002502
      f+2     :     0.002417
      f-2     :     0.003259
      f+3     :     0.007018
      f-3     :     0.005365

  1 O s       :     3.786964  s :     3.786964
      pz      :     1.739460  p :     4.571643
      px      :     1.269818
      py      :     1.562366
      dz2     :     0.004407  d :     0.031764
      dxz     :     0.002033
      dyz     :     0.005429
      dx2y2   :     0.006861
      dxy     :     0.013034
      f0      :     0.000258  f :     0.001785
      f+1     :     0.000405
      f-1     :     0.000225
      f+2     :     0.000057
      f-2     :     0.000164
      f+3     :     0.000178
      f-3     :     0.000498

  2 O s       :     3.834907  s :     3.834907
      pz      :     1.408218  p :     4.492431
      px      :     1.740473
      py      :     1.343740
      dz2     :     0.003490  d :     0.031589
      dxz     :     0.000956
      dyz     :     0.010195
      dx2y2   :     0.008530
      dxy     :     0.008418
      f0      :     0.000193  f :     0.002010
      f+1     :     0.000032
      f-1     :     0.000306
      f+2     :     0.000375
      f-2     :     0.000128
      f+3     :     0.000506
      f-3     :     0.000470

  3 C s       :     3.218376  s :     3.218376
      pz      :     0.948520  p :     2.423543
      px      :     0.882482
      py      :     0.592541
      dz2     :     0.009977  d :     0.166903
      dxz     :     0.014369
      dyz     :     0.038194
      dx2y2   :     0.031498
      dxy     :     0.072864
      f0      :     0.002746  f :     0.018392
      f+1     :     0.001260
      f-1     :     0.001663
      f+2     :     0.002748
      f-2     :     0.001019
      f+3     :     0.005820
      f-3     :     0.003135

  4 C s       :     3.074044  s :     3.074044
      pz      :     0.611917  p :     2.214957
      px      :     0.907396
      py      :     0.695645
      dz2     :     0.066687  d :     0.290996
      dxz     :     0.065253
      dyz     :     0.068561
      dx2y2   :     0.031098
      dxy     :     0.059396
      f0      :     0.003999  f :     0.027673
      f+1     :     0.004383
      f-1     :     0.007557
      f+2     :     0.002529
      f-2     :     0.003643
      f+3     :     0.003205
      f-3     :     0.002358

  5 C s       :     3.145247  s :     3.145247
      pz      :     0.587845  p :     2.203467
      px      :     0.898968
      py      :     0.716654
      dz2     :     0.078178  d :     0.294100
      dxz     :     0.061553
      dyz     :     0.060597
      dx2y2   :     0.034240
      dxy     :     0.059532
      f0      :     0.005191  f :     0.028100
      f+1     :     0.004117
      f-1     :     0.005832
      f+2     :     0.003727
      f-2     :     0.004430
      f+3     :     0.002515
      f-3     :     0.002288

  6 C s       :     3.123847  s :     3.123847
      pz      :     0.575141  p :     2.227773
      px      :     0.932212
      py      :     0.720420
      dz2     :     0.082660  d :     0.293270
      dxz     :     0.064680
      dyz     :     0.055928
      dx2y2   :     0.031147
      dxy     :     0.058855
      f0      :     0.006158  f :     0.028072
      f+1     :     0.004051
      f-1     :     0.004364
      f+2     :     0.004025
      f-2     :     0.005380
      f+3     :     0.002148
      f-3     :     0.001946

  7 C s       :     3.141584  s :     3.141584
      pz      :     0.598126  p :     2.237564
      px      :     0.932754
      py      :     0.706683
      dz2     :     0.074372  d :     0.293488
      dxz     :     0.060369
      dyz     :     0.065828
      dx2y2   :     0.033717
      dxy     :     0.059201
      f0      :     0.004505  f :     0.028064
      f+1     :     0.004085
      f-1     :     0.007111
      f+2     :     0.002955
      f-2     :     0.004144
      f+3     :     0.002951
      f-3     :     0.002314

  8 C s       :     3.100629  s :     3.100629
      pz      :     0.622990  p :     2.250890
      px      :     0.943537
      py      :     0.684362
      dz2     :     0.056469  d :     0.289377
      dxz     :     0.062292
      dyz     :     0.076211
      dx2y2   :     0.035611
      dxy     :     0.058794
      f0      :     0.003583  f :     0.028114
      f+1     :     0.005377
      f-1     :     0.008333
      f+2     :     0.002159
      f-2     :     0.001962
      f+3     :     0.004211
      f-3     :     0.002490

  9 C s       :     3.020777  s :     3.020777
      pz      :     0.637750  p :     2.108589
      px      :     0.823698
      py      :     0.647141
      dz2     :     0.071717  d :     0.359049
      dxz     :     0.065047
      dyz     :     0.089468
      dx2y2   :     0.065058
      dxy     :     0.067759
      f0      :     0.005410  f :     0.040674
      f+1     :     0.007858
      f-1     :     0.008016
      f+2     :     0.005823
      f-2     :     0.003036
      f+3     :     0.007065
      f-3     :     0.003465

 10 F s       :     3.930776  s :     3.930776
      pz      :     1.835012  p :     5.193685
      px      :     1.896436
      py      :     1.462238
      dz2     :     0.002231  d :     0.018674
      dxz     :     0.000234
      dyz     :     0.005103
      dx2y2   :     0.006584
      dxy     :     0.004522
      f0      :     0.000084  f :     0.000779
      f+1     :     0.000014
      f-1     :     0.000139
      f+2     :     0.000122
      f-2     :     0.000017
      f+3     :     0.000182
      f-3     :     0.000221

 11 F s       :     3.927350  s :     3.927350
      pz      :     1.771280  p :     5.224759
      px      :     1.901407
      py      :     1.552072
      dz2     :     0.002274  d :     0.016788
      dxz     :     0.001044
      dyz     :     0.006002
      dx2y2   :     0.004312
      dxy     :     0.003157
      f0      :     0.000079  f :     0.000702
      f+1     :     0.000005
      f-1     :     0.000142
      f+2     :     0.000200
      f-2     :     0.000080
      f+3     :     0.000092
      f-3     :     0.000105

 12 F s       :     3.927585  s :     3.927585
      pz      :     1.469775  p :     5.230376
      px      :     1.902012
      py      :     1.858589
      dz2     :     0.007861  d :     0.016356
      dxz     :     0.003585
      dyz     :     0.004127
      dx2y2   :     0.000304
      dxy     :     0.000480
      f0      :     0.000294  f :     0.000685
      f+1     :     0.000136
      f-1     :     0.000195
      f+2     :     0.000023
      f-2     :     0.000034
      f+3     :     0.000002
      f-3     :     0.000001

 13 F s       :     3.928895  s :     3.928895
      pz      :     1.699934  p :     5.219746
      px      :     1.884858
      py      :     1.634954
      dz2     :     0.002922  d :     0.017184
      dxz     :     0.001971
      dyz     :     0.006508
      dx2y2   :     0.002989
      dxy     :     0.002794
      f0      :     0.000081  f :     0.000716
      f+1     :     0.000024
      f-1     :     0.000187
      f+2     :     0.000177
      f-2     :     0.000126
      f+3     :     0.000063
      f-3     :     0.000057

 14 F s       :     3.928675  s :     3.928675
      pz      :     1.512748  p :     5.218637
      px      :     1.893703
      py      :     1.812186
      dz2     :     0.006677  d :     0.017243
      dxz     :     0.003581
      dyz     :     0.005269
      dx2y2   :     0.000756
      dxy     :     0.000960
      f0      :     0.000215  f :     0.000724
      f+1     :     0.000117
      f-1     :     0.000243
      f+2     :     0.000061
      f-2     :     0.000075
      f+3     :     0.000007
      f-3     :     0.000005

 15 F s       :     3.928678  s :     3.928678
      pz      :     1.569694  p :     5.215601
      px      :     1.897406
      py      :     1.748502
      dz2     :     0.005195  d :     0.017333
      dxz     :     0.002914
      dyz     :     0.006336
      dx2y2   :     0.001412
      dxy     :     0.001476
      f0      :     0.000144  f :     0.000724
      f+1     :     0.000067
      f-1     :     0.000268
      f+2     :     0.000115
      f-2     :     0.000099
      f+3     :     0.000018
      f-3     :     0.000014

 16 F s       :     3.928528  s :     3.928528
      pz      :     1.616607  p :     5.214563
      px      :     1.896981
      py      :     1.700975
      dz2     :     0.004222  d :     0.017441
      dxz     :     0.002533
      dyz     :     0.006770
      dx2y2   :     0.002006
      dxy     :     0.001909
      f0      :     0.000110  f :     0.000730
      f+1     :     0.000043
      f-1     :     0.000255
      f+2     :     0.000152
      f-2     :     0.000112
      f+3     :     0.000030
      f-3     :     0.000028

 17 F s       :     3.929008  s :     3.929008
      pz      :     1.743015  p :     5.215745
      px      :     1.895301
      py      :     1.577429
      dz2     :     0.002541  d :     0.017356
      dxz     :     0.001396
      dyz     :     0.006467
      dx2y2   :     0.003896
      dxy     :     0.003056
      f0      :     0.000080  f :     0.000724
      f+1     :     0.000008
      f-1     :     0.000165
      f+2     :     0.000203
      f-2     :     0.000099
      f+3     :     0.000082
      f-3     :     0.000086

 18 F s       :     3.929010  s :     3.929010
      pz      :     1.487433  p :     5.215380
      px      :     1.883596
      py      :     1.844351
      dz2     :     0.007465  d :     0.017376
      dxz     :     0.004127
      dyz     :     0.004547
      dx2y2   :     0.000555
      dxy     :     0.000682
      f0      :     0.000260  f :     0.000725
      f+1     :     0.000155
      f-1     :     0.000206
      f+2     :     0.000040
      f-2     :     0.000057
      f+3     :     0.000003
      f-3     :     0.000004

 19 F s       :     3.928915  s :     3.928915
      pz      :     1.834677  p :     5.215724
      px      :     1.893603
      py      :     1.487444
      dz2     :     0.002206  d :     0.017235
      dxz     :     0.000570
      dyz     :     0.004929
      dx2y2   :     0.005651
      dxy     :     0.003878
      f0      :     0.000077  f :     0.000721
      f+1     :     0.000006
      f-1     :     0.000125
      f+2     :     0.000166
      f-2     :     0.000048
      f+3     :     0.000135
      f-3     :     0.000164

 20 F s       :     3.926760  s :     3.926760
      pz      :     1.431811  p :     5.214303
      px      :     1.897841
      py      :     1.884651
      dz2     :     0.009220  d :     0.017394
      dxz     :     0.004224
      dyz     :     0.003645
      dx2y2   :     0.000162
      dxy     :     0.000143
      f0      :     0.000379  f :     0.000738
      f+1     :     0.000181
      f-1     :     0.000165
      f+2     :     0.000005
      f-2     :     0.000006
      f+3     :     0.000001
      f-3     :     0.000001

 21 F s       :     3.924692  s :     3.924692
      pz      :     1.870565  p :     5.212936
      px      :     1.886649
      py      :     1.455722
      dz2     :     0.002405  d :     0.017361
      dxz     :     0.000269
      dyz     :     0.004106
      dx2y2   :     0.006674
      dxy     :     0.003907
      f0      :     0.000072  f :     0.000768
      f+1     :     0.000011
      f-1     :     0.000147
      f+2     :     0.000133
      f-2     :     0.000019
      f+3     :     0.000158
      f-3     :     0.000229

 22 F s       :     3.923131  s :     3.923131
      pz      :     1.778056  p :     5.211494
      px      :     1.645590
      py      :     1.787849
      dz2     :     0.002442  d :     0.017434
      dxz     :     0.004664
      dyz     :     0.002643
      dx2y2   :     0.003345
      dxy     :     0.004340
      f0      :     0.000089  f :     0.000781
      f+1     :     0.000111
      f-1     :     0.000052
      f+2     :     0.000101
      f-2     :     0.000201
      f+3     :     0.000103
      f-3     :     0.000124

 23 F s       :     3.923310  s :     3.923310
      pz      :     1.457070  p :     5.212030
      px      :     1.877222
      py      :     1.877738
      dz2     :     0.008773  d :     0.017548
      dxz     :     0.004227
      dyz     :     0.003888
      dx2y2   :     0.000385
      dxy     :     0.000274
      f0      :     0.000352  f :     0.000784
      f+1     :     0.000189
      f-1     :     0.000186
      f+2     :     0.000031
      f-2     :     0.000021
      f+3     :     0.000002
      f-3     :     0.000002

 24 H s       :     0.573753  s :     0.573753
      pz      :     0.013678  p :     0.044072
      px      :     0.018988
      py      :     0.011406


SPIN
  0 C s       :    -0.028086  s :    -0.028086
      pz      :    -0.032775  p :    -0.063467
      px      :    -0.019546
      py      :    -0.011146
      dz2     :     0.000030  d :     0.019439
      dxz     :     0.016036
      dyz     :     0.003709
      dx2y2   :     0.000643
      dxy     :    -0.000979
      f0      :     0.000106  f :     0.001363
      f+1     :    -0.000009
      f-1     :     0.000074
      f+2     :     0.000822
      f-2     :     0.000280
      f+3     :     0.000060
      f-3     :     0.000029

  1 O s       :     0.000637  s :     0.000637
      pz      :     0.015888  p :     0.016663
      px      :     0.000498
      py      :     0.000276
      dz2     :    -0.000049  d :    -0.000150
      dxz     :     0.000074
      dyz     :    -0.000064
      dx2y2   :    -0.000076
      dxy     :    -0.000035
      f0      :    -0.000008  f :    -0.000029
      f+1     :    -0.000007
      f-1     :    -0.000006
      f+2     :     0.000000
      f-2     :    -0.000004
      f+3     :    -0.000002
      f-3     :    -0.000002

  2 O s       :     0.007892  s :     0.007892
      pz      :     0.145627  p :     0.154016
      px      :    -0.001385
      py      :     0.009775
      dz2     :    -0.000024  d :    -0.000471
      dxz     :     0.000010
      dyz     :    -0.000441
      dx2y2   :    -0.000067
      dxy     :     0.000052
      f0      :    -0.000062  f :    -0.000156
      f+1     :    -0.000009
      f-1     :    -0.000067
      f+2     :    -0.000014
      f-2     :    -0.000005
      f+3     :     0.000001
      f-3     :     0.000001

  3 C s       :     0.068026  s :     0.068026
      pz      :     0.678594  p :     0.717048
      px      :     0.030081
      py      :     0.008373
      dz2     :    -0.002008  d :     0.001001
      dxz     :     0.001486
      dyz     :     0.001468
      dx2y2   :    -0.002035
      dxy     :     0.002090
      f0      :    -0.001070  f :    -0.002791
      f+1     :    -0.000724
      f-1     :    -0.000948
      f+2     :     0.000137
      f-2     :    -0.000066
      f+3     :    -0.000059
      f-3     :    -0.000061

  4 C s       :    -0.007090  s :    -0.007090
      pz      :     0.009239  p :    -0.020847
      px      :    -0.021464
      py      :    -0.008622
      dz2     :     0.002474  d :     0.010961
      dxz     :     0.003405
      dyz     :     0.005205
      dx2y2   :    -0.000466
      dxy     :     0.000343
      f0      :     0.000447  f :     0.001536
      f+1     :     0.000120
      f-1     :     0.000097
      f+2     :     0.000209
      f-2     :     0.000564
      f+3     :     0.000013
      f-3     :     0.000086

  5 C s       :    -0.002367  s :    -0.002367
      pz      :    -0.002224  p :    -0.002576
      px      :    -0.000004
      py      :    -0.000347
      dz2     :    -0.000145  d :    -0.000639
      dxz     :    -0.000013
      dyz     :    -0.000051
      dx2y2   :    -0.000307
      dxy     :    -0.000124
      f0      :     0.000012  f :     0.000006
      f+1     :     0.000001
      f-1     :    -0.000001
      f+2     :     0.000008
      f-2     :    -0.000000
      f+3     :    -0.000008
      f-3     :    -0.000004

  6 C s       :    -0.000040  s :    -0.000040
      pz      :     0.000452  p :     0.000156
      px      :    -0.000196
      py      :    -0.000100
      dz2     :    -0.000002  d :    -0.000059
      dxz     :     0.000002
      dyz     :    -0.000001
      dx2y2   :    -0.000037
      dxy     :    -0.000020
      f0      :     0.000001  f :     0.000000
      f+1     :    -0.000001
      f-1     :     0.000001
      f+2     :    -0.000000
      f-2     :     0.000001
      f+3     :    -0.000001
      f-3     :    -0.000000

  7 C s       :    -0.000023  s :    -0.000023
      pz      :     0.000002  p :    -0.000061
      px      :    -0.000033
      py      :    -0.000030
      dz2     :    -0.000002  d :    -0.000017
      dxz     :    -0.000000
      dyz     :    -0.000001
      dx2y2   :    -0.000019
      dxy     :     0.000004
      f0      :     0.000000  f :    -0.000000
      f+1     :     0.000000
      f-1     :     0.000000
      f+2     :     0.000000
      f-2     :     0.000000
      f+3     :    -0.000000
      f-3     :    -0.000000

  8 C s       :     0.000001  s :     0.000001
      pz      :     0.000004  p :    -0.000014
      px      :    -0.000002
      py      :    -0.000016
      dz2     :    -0.000000  d :    -0.000001
      dxz     :     0.000000
      dyz     :    -0.000000
      dx2y2   :    -0.000000
      dxy     :    -0.000001
      f0      :     0.000000  f :    -0.000000
      f+1     :    -0.000000
      f-1     :     0.000000
      f+2     :     0.000000
      f-2     :    -0.000000
      f+3     :    -0.000000
      f-3     :     0.000000

  9 C s       :    -0.000001  s :    -0.000001
      pz      :    -0.000001  p :    -0.000005
      px      :    -0.000003
      py      :    -0.000001
      dz2     :    -0.000000  d :    -0.000001
      dxz     :    -0.000000
      dyz     :     0.000000
      dx2y2   :    -0.000001
      dxy     :    -0.000001
      f0      :     0.000000  f :    -0.000000
      f+1     :    -0.000000
      f-1     :     0.000000
      f+2     :     0.000000
      f-2     :    -0.000000
      f+3     :    -0.000000
      f-3     :    -0.000000

 10 F s       :     0.010287  s :     0.010287
      pz      :     0.083735  p :     0.081059
      px      :     0.001374
      py      :    -0.004049
      dz2     :     0.000162  d :     0.001598
      dxz     :     0.000036
      dyz     :     0.001233
      dx2y2   :     0.000173
      dxy     :    -0.000006
      f0      :     0.000007  f :     0.000030
      f+1     :    -0.000003
      f-1     :    -0.000010
      f+2     :     0.000026
      f-2     :     0.000003
      f+3     :     0.000001
      f-3     :     0.000005

 11 F s       :    -0.000119  s :    -0.000119
      pz      :     0.000444  p :     0.011066
      px      :     0.000024
      py      :     0.010599
      dz2     :    -0.000009  d :     0.000002
      dxz     :     0.000003
      dyz     :     0.000018
      dx2y2   :    -0.000016
[...]
 19:    206.79   0.000029    0.15  0.000043  (-0.001468  0.000397 -0.006403)
 20:    211.77   0.000050    0.25  0.000074  ( 0.006684  0.005155 -0.001568)
 21:    225.22   0.000267    1.35  0.000369  (-0.002107 -0.018238 -0.005685)
 22:    236.33   0.000039    0.20  0.000051  ( 0.004408  0.001675  0.005399)
 23:    251.05   0.000049    0.25  0.000060  ( 0.006110 -0.001108 -0.004674)
 24:    258.10   0.000072    0.37  0.000088  ( 0.001432 -0.000716 -0.009221)
 25:    288.19   0.001574    7.95  0.001704  ( 0.038779 -0.011798 -0.007807)
 26:    305.56   0.000138    0.70  0.000140  ( 0.008677  0.004984 -0.006352)
 27:    318.77   0.000540    2.73  0.000529  ( 0.022897 -0.001598 -0.001302)
 28:    323.32   0.002227   11.25  0.002149  (-0.042799 -0.017797  0.000797)
 29:    340.21   0.000076    0.38  0.000070  ( 0.007638  0.003344 -0.000037)
 30:    359.47   0.000154    0.78  0.000133  (-0.006705 -0.002933  0.008931)
 31:    371.37   0.000539    2.72  0.000453  ( 0.003165  0.005794 -0.020236)
 32:    372.90   0.000072    0.37  0.000061  (-0.007358  0.002246 -0.001151)
 33:    380.36   0.000044    0.22  0.000036  (-0.004832  0.002843 -0.002179)
 34:    384.97   0.000116    0.59  0.000094  ( 0.006398  0.000431 -0.007283)
 35:    425.51   0.000366    1.85  0.000268  ( 0.001640  0.008465  0.013922)
 36:    480.04   0.001483    7.49  0.000964  (-0.006332  0.004428 -0.030070)
 37:    523.16   0.015828   79.99  0.009441  ( 0.095508 -0.011308 -0.013837)
 38:    535.58   0.001629    8.23  0.000949  (-0.006565 -0.028296  0.010265)
 39:    537.61   0.009605   48.54  0.005576  (-0.028166  0.028650  0.062940)
 40:    559.23   0.014582   73.69  0.008137  ( 0.032094 -0.021860 -0.081420)
 41:    570.67   0.004098   20.71  0.002241  (-0.002113 -0.046577 -0.008189)
 42:    577.04   0.027388  138.41  0.014811  ( 0.106644 -0.006555  0.058271)
 43:    595.00   0.006391   32.30  0.003352  (-0.055963  0.014833 -0.000399)
 44:    614.53   0.000011    0.06  0.000006  (-0.002279 -0.000650  0.000045)
 45:    636.16   0.021039  106.32  0.010321  (-0.097788  0.026473  0.007581)
 46:    657.90   0.024678  124.71  0.011705  (-0.108172  0.001805 -0.001022)
 47:    703.36   0.000496    2.51  0.000220  ( 0.009870 -0.009692  0.005372)
 48:    711.27   0.011874   60.01  0.005210  (-0.072138  0.002149 -0.001034)
 49:    722.41   0.011065   55.92  0.004780  ( 0.020337 -0.011711 -0.065030)
 50:    734.86   0.000129    0.65  0.000055  ( 0.000019  0.002670  0.006912)
 51:    768.85   0.000773    3.91  0.000314  (-0.002128 -0.010722 -0.013934)
 52:    881.53   0.001617    8.17  0.000573  (-0.020593 -0.010516  0.006159)
 53:   1028.07   0.023161  117.04  0.007030  (-0.074683  0.028065 -0.025788)
 54:   1088.41   0.044328  224.02  0.012709  ( 0.001426  0.012923 -0.111984)
 55:   1118.87   0.016159   81.66  0.004507  ( 0.000163 -0.058426 -0.033063)
 56:   1135.93   0.013641   68.93  0.003747  (-0.036055  0.043343 -0.023849)
 57:   1152.98   0.100303  506.89  0.027148  (-0.006038 -0.161987 -0.029518)
 58:   1157.81   0.028220  142.61  0.007606  ( 0.078806  0.031315  0.020376)
 59:   1168.97   0.052686  266.25  0.014065  ( 0.005484  0.110530  0.042637)
 60:   1176.07   0.001719    8.69  0.000456  (-0.011088  0.010508  0.014929)
 61:   1180.77   0.133199  673.13  0.035203  ( 0.032806 -0.012832  0.184288)
 62:   1188.27   0.059004  298.18  0.015496  (-0.027857  0.115511 -0.037106)
 63:   1193.27   0.063129  319.03  0.016509  ( 0.014052 -0.000100 -0.127718)
 64:   1211.13   0.092702  468.48  0.023886  (-0.009639  0.084217 -0.129230)
 65:   1212.48   0.044508  224.93  0.011455  ( 0.074342 -0.046409 -0.061439)
 66:   1246.46   0.014837   74.98  0.003715  (-0.006978 -0.055053 -0.025200)
 67:   1268.89   0.012583   63.59  0.003095  (-0.025023 -0.035825  0.034425)
 68:   1301.65   0.005096   25.75  0.001222  ( 0.017042  0.029931  0.005957)
 69:   1315.18   0.011682   59.04  0.002772  ( 0.041038 -0.032962 -0.001121)
 70:   1360.41   0.004745   23.98  0.001088  (-0.004874  0.032561 -0.002116)
 71:   1381.99   0.033252  168.04  0.007509  (-0.084579 -0.018736 -0.001981)
 72:   1473.30   0.046469  234.84  0.009843  ( 0.065333 -0.073704  0.011919)
 73:   1746.33   0.069037  348.89  0.012337  (-0.010945 -0.107734  0.024704)
 74:   3679.50   0.054365  274.74  0.004611  ( 0.067740  0.004629  0.000827)

* The epsilon (eps) is given for a Dirac delta lineshape.
** The dipole moment derivative (T) already includes vibrational overlap.

The first frequency considered to be a vibration is 6
The total number of vibrations considered is 69


--------------------------
THERMOCHEMISTRY AT 298.15K
--------------------------

Temperature         ...   298.15 K
Pressure            ...     1.00 atm
Total Mass          ...   395.07 AMU
Quasi RRHO          ...     True
Cut-Off Frequency   ...     1.00 cm^-1

Throughout the following assumptions are being made:
  (1) The electronic state is orbitally nondegenerate
      but the spin degeneracy is treated
  (2) There are no thermally accessible electronically excited states
  (3) Hindered rotations indicated by low frequency modes are not
      treated as such but are treated as vibrations and this may
      cause some error
  (4) All equations used are the standard statistical mechanics
      equations for an ideal gas
  (5) All vibrations are strictly harmonic

freq.      21.83  E(vib)   ...       0.56 
freq.      35.00  E(vib)   ...       0.54 
freq.      39.29  E(vib)   ...       0.54 
freq.      49.90  E(vib)   ...       0.52 
freq.      57.20  E(vib)   ...       0.51 
freq.      70.24  E(vib)   ...       0.50 
freq.      71.22  E(vib)   ...       0.50 
freq.      99.96  E(vib)   ...       0.46 
freq.     116.44  E(vib)   ...       0.44 
freq.     139.39  E(vib)   ...       0.42 
freq.     167.60  E(vib)   ...       0.38 
freq.     171.20  E(vib)   ...       0.38 
freq.     195.98  E(vib)   ...       0.36 
freq.     206.79  E(vib)   ...       0.35 
freq.     211.77  E(vib)   ...       0.34 
freq.     225.22  E(vib)   ...       0.33 
freq.     236.33  E(vib)   ...       0.32 
freq.     251.05  E(vib)   ...       0.30 
freq.     258.10  E(vib)   ...       0.30 
freq.     288.19  E(vib)   ...       0.27 
freq.     305.56  E(vib)   ...       0.26 
freq.     318.77  E(vib)   ...       0.25 
freq.     323.32  E(vib)   ...       0.25 
freq.     340.21  E(vib)   ...       0.23 
freq.     359.47  E(vib)   ...       0.22 
freq.     371.37  E(vib)   ...       0.21 
freq.     372.90  E(vib)   ...       0.21 
freq.     380.36  E(vib)   ...       0.21 
freq.     384.97  E(vib)   ...       0.20 
freq.     425.51  E(vib)   ...       0.18 
freq.     480.04  E(vib)   ...       0.15 
freq.     523.16  E(vib)   ...       0.13 
freq.     535.58  E(vib)   ...       0.12 
freq.     537.61  E(vib)   ...       0.12 
freq.     559.23  E(vib)   ...       0.12 
freq.     570.67  E(vib)   ...       0.11 
freq.     577.04  E(vib)   ...       0.11 
freq.     595.00  E(vib)   ...       0.10 
freq.     614.53  E(vib)   ...       0.10 
freq.     636.16  E(vib)   ...       0.09 
freq.     657.90  E(vib)   ...       0.08 
freq.     703.36  E(vib)   ...       0.07 
freq.     711.27  E(vib)   ...       0.07 
freq.     722.41  E(vib)   ...       0.07 
freq.     734.86  E(vib)   ...       0.06 
freq.     768.85  E(vib)   ...       0.06 
freq.     881.53  E(vib)   ...       0.04 
freq.    1028.07  E(vib)   ...       0.02 
freq.    1088.41  E(vib)   ...       0.02 
freq.    1118.87  E(vib)   ...       0.01 
freq.    1135.93  E(vib)   ...       0.01 
freq.    1152.98  E(vib)   ...       0.01 
freq.    1157.81  E(vib)   ...       0.01 
freq.    1168.97  E(vib)   ...       0.01 
freq.    1176.07  E(vib)   ...       0.01 
freq.    1180.77  E(vib)   ...       0.01 
freq.    1188.27  E(vib)   ...       0.01 
freq.    1193.27  E(vib)   ...       0.01 
freq.    1211.13  E(vib)   ...       0.01 
freq.    1212.48  E(vib)   ...       0.01 
freq.    1246.46  E(vib)   ...       0.01 
freq.    1268.89  E(vib)   ...       0.01 
freq.    1301.65  E(vib)   ...       0.01 
freq.    1315.18  E(vib)   ...       0.01 
freq.    1360.41  E(vib)   ...       0.01 
freq.    1381.99  E(vib)   ...       0.01 
freq.    1473.30  E(vib)   ...       0.00 
freq.    1746.33  E(vib)   ...       0.00 
freq.    3679.50  E(vib)   ...       0.00 

------------
INNER ENERGY
------------

The inner energy is: U= E(el) + E(ZPE) + E(vib) + E(rot) + E(trans)
    E(el)   - is the total energy from the electronic structure calculation
              = E(kin-el) + E(nuc-el) + E(el-el) + E(nuc-nuc)
    E(ZPE)  - the the zero temperature vibrational energy from the frequency calculation
    E(vib)  - the the finite temperature correction to E(ZPE) due to population
              of excited vibrational states
    E(rot)  - is the rotational thermal energy
    E(trans)- is the translational thermal energy

Summary of contributions to the inner energy U:
Electronic energy                ...  -1853.57695686 Eh
Zero point energy                ...      0.10728139 Eh      67.32 kcal/mol
Thermal vibrational correction   ...      0.01967409 Eh      12.35 kcal/mol
Thermal rotational correction    ...      0.00141627 Eh       0.89 kcal/mol
Thermal translational correction ...      0.00141627 Eh       0.89 kcal/mol
-----------------------------------------------------------------------
Total thermal energy                  -1853.44716883 Eh


Summary of corrections to the electronic energy:
(perhaps to be used in another calculation)
Total thermal correction                  0.02250664 Eh      14.12 kcal/mol
Non-thermal (ZPE) correction              0.10728139 Eh      67.32 kcal/mol
-----------------------------------------------------------------------
Total correction                          0.12978803 Eh      81.44 kcal/mol


--------
ENTHALPY
--------

The enthalpy is H = U + kB*T
                kB is Boltzmann's constant
Total thermal energy              ...  -1853.44716883 Eh 
Thermal Enthalpy correction       ...      0.00094421 Eh       0.59 kcal/mol
-----------------------------------------------------------------------
Total Enthalpy                    ...  -1853.44622462 Eh


Note: Only C1 symmetry has been detected, increase convergence thresholds 
      if your molecule has a higher symmetry. Symmetry factor of 1.0 is   
      used for the rotational entropy correction. 
 

Note: Rotational entropy computed according to Herzberg 
Infrared and Raman Spectra, Chapter V,1, Van Nostrand Reinhold, 1945 
Point Group:  C1, Symmetry Number:   1  
Rotational constants in cm-1:     0.023454     0.004007     0.003879 

Vibrational entropy computed according to the QRRHO of S. Grimme
Chem.Eur.J. 2012 18 9955 using a reference frequency of 100.0 cm-1


-------
ENTROPY
-------

The entropy contributions are T*S = T*(S(el)+S(vib)+S(rot)+S(trans))
     S(el)   - electronic entropy
     S(vib)  - vibrational entropy
     S(rot)  - rotational entropy
     S(trans)- translational entropy
The entropies will be listed as multiplied by the temperature to get
units of energy

Electronic entropy                ...      0.00065446 Eh      0.41 kcal/mol
Vibrational entropy               ...      0.03522872 Eh     22.11 kcal/mol
Rotational entropy                ...      0.01650939 Eh     10.36 kcal/mol
Translational entropy             ...      0.02081703 Eh     13.06 kcal/mol
-----------------------------------------------------------------------
Final entropy term                ...      0.07320960 Eh     45.94 kcal/mol

In case the symmetry of your molecule has not been determined correctly
or in case you have a reason to use a different symmetry number we print 
out the resulting rotational entropy values for sn=1,12:

 non-linear molecules -----------------------------------
|  sn= 1 | S(rot)=       0.01650939 Eh     10.36 kcal/mol|
|  sn= 2 | S(rot)=       0.01585494 Eh      9.95 kcal/mol|
|  sn= 3 | S(rot)=       0.01547211 Eh      9.71 kcal/mol|
|  sn= 4 | S(rot)=       0.01520048 Eh      9.54 kcal/mol|
|  sn= 5 | S(rot)=       0.01498979 Eh      9.41 kcal/mol|
|  sn= 6 | S(rot)=       0.01481765 Eh      9.30 kcal/mol|
|  sn= 7 | S(rot)=       0.01467210 Eh      9.21 kcal/mol|
|  sn= 8 | S(rot)=       0.01454603 Eh      9.13 kcal/mol|
|  sn= 9 | S(rot)=       0.01443482 Eh      9.06 kcal/mol|
|  sn=10 | S(rot)=       0.01433534 Eh      9.00 kcal/mol|
|  sn=11 | S(rot)=       0.01424535 Eh      8.94 kcal/mol|
|  sn=12 | S(rot)=       0.01416319 Eh      8.89 kcal/mol|
 linear molecules ---------------------------------------
|  Dinfh | S(rot)=       0.01056811 Eh      6.63 kcal/mol|
|  Cinfv | S(rot)=       0.01122257 Eh      7.04 kcal/mol|
 --------------------------------------------------------


-------------------
GIBBS FREE ENERGY
-------------------

The Gibbs free energy is G = H - T*S

Total enthalpy                    ...  -1853.44622462 Eh 
Total entropy correction          ...     -0.07320960 Eh    -45.94 kcal/mol
-----------------------------------------------------------------------
Final Gibbs free energy         ...  -1853.51943422 Eh

For completeness - the Gibbs free energy minus the electronic energy
G-E(el)                           ...      0.05752264 Eh     36.10 kcal/mol


Maximum memory used throughout the entire PROP-calculation: 545.9 MB

--------------------------------
SUGGESTED CITATIONS FOR THIS RUN
--------------------------------

Below you find a list of papers that are relevant to this ORCA run
We neither can nor want to force you to cite these papers, but we appreciate if you do
You receive ORCA, which is the product of decades of hard work by many enthusiastic individuals, for free
The only thing we kindly ask in return is that you cite our papers,
We deeply appreciate it, if you show your appreciation for ORCA by not just citing the generic ORCA reference.

Please note that relegating all ORCA citations to the supporting information does *not* help us.
SI sections are not indexed - citations you put there will not count into any citation statistics
But we need these citations in order to attract the funding resources that allow us to do what we are doing

Therefore, if you are a happy ORCA user, please consider citing a few of the papers listed below in the main body of your paper

In addition to the list printed below, the program has created the file rf_mecn_freq_r2s_C2_P_B.bibtex that contains the list in bibtex format
You can import this file easily into all common literature databanks and citation aid programs


List of essential papers. We consider these as the minimum necessary citations

  1. Neese,F.
     Software update: the ORCA program system, version 5.0
     WIRES Comput. Molec. Sci., 2022 12(1)e1606
     doi.org/10.1002/wcms.1606

List of papers to cite with high priority. The work reported in these papers was absolutely
necessary for this run to complete.
Our perspective: the developers of density functionals and basis sets usually get cited in chemistry papers
Good! But without the algorithms to do something with them, the functionals or basis sets would not do anything.
Hence, in our opinion, the algorithm design and method developments papers are equally worthy of getting cited

  1. Neese,F.
     An improvement of the resolution of the identity approximation for the formation of the Coulomb matrix
     J. Comp. Chem., 2003 24(14)1740-1747
     doi.org/10.1002/jcc.10318
  2. Neese,F.; Wennmohs,F.; Hansen,A.; Becker,U.
     Efficient, approximate and parallel Hartree-Fock and hybrid DFT calculations. A 'chain-of-spheres' algorithm for the Hartree-Fock exchange
     Chem. Phys., 2009 356(1-3)98-109
     doi.org/10.1016/j.chemphys.2008.10.036
  3. Bykov,D.; Petrenko,T.; Izsak,R.; Kossmann,S.; Becker,U.; Valeev,E.; Neese,F.
     Efficient implementation of the analytic second derivatives of Hartree-Fock and hybrid DFT energies: a detailed analysis of different approximations
     Molec. Phys., 2015 113 1961-1977
     doi.org/10.1080/00268976.2015.1025114
  4. Garcia-Rates,M.; Neese,F.
     Efficient implementation of the analytical second derivatives of hartree-fock and hybrid DFT energies within the framework of the conductor-like polarizable continuum model
     J. Comput. Chem., 2019 40 1816-1828
     doi.org/10.1002/jcc.25833
  5. Garcia-Rates,M.; Neese,F.
     Effect of the Solute Cavity on the Solvation Energy and its Derivatives within the Framework of the Gaussian Charge Scheme
     J. Comput. Chem., 2020 41 922-939
     doi.org/10.1002/jcc.26139
  6. Helmich-Paris,B.; de Souza,B.; Neese,F.; Izsák,R.
     An improved chain of spheres for exchange algorithm
     J. Chem. Phys., 2021 155 104109
     doi.org/doi: 10.1063/5.0058766.
  7. Neese,F.
     The SHARK Integral Generation and Digestion System
     J. Comp. Chem., 2022  1-16
     doi.org/10.1002/jcc.26942
  8. Lehtola,S.; Steigemann,C.; Oliveira,M.; Marques,M.
     Recent developments in Libxc - A comprehensive library of functionals for density functional theory
     Software X, 2018 7 
     doi.org/10.1016/j.softx.2017.11.002
  9. Grimme,S.; Antony,J.; Ehrlich,S.; Krieg,H.
     A consistent and accurate ab initio parametrization of density functional dispersion correction (DFT-D) for the 94 elements H-Pu
     J. Chem. Phys., 2010 132 154104
     doi.org/10.1063/1.3382344
 10. Grimme,S.; Ehrlich,S.; Goerigk,L.
     Effect of the damping function in dispersion corrected density functional theory
     J. Comput. Chem., 2011 32(7)1456-1465
     doi.org/10.1002/jcc.21759
 11. Bursch,M.; Neugebauer,H.; Ehlert,S.; Grimme,S.
     Dispersion corrected r2SCAN based global hybrid functionals: r2SCANh, r2SCAN0, and r2SCAN50
     J. Phys. Chem., 2022 156(13)134105
     doi.org/10.1063/5.0086040

List of suggested additional citations. These are papers that are important in the 'surrounding' of 
of this run, or papers that preceded the highly important papers. If you like your results we are grateful for a citation.

  1. Izsak,R.; Neese,F.
     An overlap fitted chain of spheres exchange method
     J. Chem. Phys., 2011 135 144105
     doi.org/10.1063/1.3646921
  2. Izsak,R.; Hansen,A.; Neese,F.
     The resolution of identity and chain of spheres approximations for the LPNO-CCSD singles Fock term
     Molec. Phys., 2012 110 2413-2417
     doi.org/10.1080/00268976.2012.687466
  3. Neese,F.
     The ORCA program system
     WIRES Comput. Molec. Sci., 2012 2(1)73-78
     doi.org/10.1002/wcms.81
  4. Izsak,R.; Neese,F.; Klopper,W.
     Robust fitting techniques in the chain of spheres approximation to the Fock exchange: The role of the complementary space
     J. Chem. Phys., 2013 139 
     doi.org/10.1063/1.4819264
  5. Neese,F.
     Software update: the ORCA program system, version 4.0
     WIRES Comput. Molec. Sci., 2018 8(1)1-6
     doi.org/10.1002/wcms.1327
  6. Neese,F.; Wennmohs,F.; Becker,U.; Riplinger,C.
     The ORCA quantum chemistry program package
     J. Chem. Phys., 2020 152 Art. No. L224108
     doi.org/10.1063/5.0004608
  7. Wittmann,L.; Neugebauer,H.; Grimme,S.; Bursch,M.
     Dispersion-corrected r2SCAN based double-hybrid functionals
     J. Chem. Phys., 2023 159(22)224103
     doi.org/10.1063/5.0174988

List of optional additional citations

  1. Neese,F.
     Approximate second-order SCF convergence for spin unrestricted wavefunctions
     Chem. Phys. Lett., 2000 325(1-3)93-98
     doi.org/10.1016/s0009-2614(00)00662-x

Timings for individual modules:

Sum of individual times          ...     1463.111 sec (=  24.385 min)
Startup calculation              ...        4.003 sec (=   0.067 min)   0.3 %
SCF iterations                   ...       90.661 sec (=   1.511 min)   6.2 %
Property integrals               ...      459.429 sec (=   7.657 min)  31.4 %
SCF Response                     ...      630.438 sec (=  10.507 min)  43.1 %
Property calculations            ...      278.580 sec (=   4.643 min)  19.0 %
                             ****ORCA TERMINATED NORMALLY****
TOTAL RUN TIME: 0 days 0 hours 24 minutes 24 seconds 39 msec
