
                                 *****************
                                 * O   R   C   A *
                                 *****************

                                            #,                                       
                                            ###                                      
                                            ####                                     
                                            #####                                    
                                            ######                                   
                                           ########,                                 
                                     ,,################,,,,,                         
                               ,,#################################,,                 
                          ,,##########################################,,             
                       ,#########################################, ''#####,          
                    ,#############################################,,   '####,        
                  ,##################################################,,,,####,       
                ,###########''''           ''''###############################       
              ,#####''   ,,,,##########,,,,          '''####'''          '####       
            ,##' ,,,,###########################,,,                        '##       
           ' ,,###''''                  '''############,,,                           
         ,,##''                                '''############,,,,        ,,,,,,###''
      ,#''                                            '''#######################'''  
     '                                                          ''''####''''         
             ,#######,   #######,   ,#######,      ##                                
            ,#'     '#,  ##    ##  ,#'     '#,    #''#        ,####,   ,####,        
            ##       ##  ##   ,#'  ##            #'  '#       #'       #'  '#        
            ##       ##  #######   ##           ,######,      #####,   #    #        
            '#,     ,#'  ##    ##  '#,     ,#' ,#      #,     #,   #   #,  ,#        
             '#######'   ##     ##  '#######'  #'      '#     '####' # '####'        



                #########################################################
                #                        -***-                          #
                #          Department of theory and spectroscopy        #
                #                                                       #
                #                      Frank Neese                      #
                #                                                       #
                #     Directorship, Architecture, Infrastructure        #
                #                    SHARK, DRIVERS                     #
                #        Core code/Algorithms in most modules           #
                #                                                       #
                #        Max Planck Institute fuer Kohlenforschung      #
                #                Kaiser Wilhelm Platz 1                 #
                #                 D-45470 Muelheim/Ruhr                 #
                #                      Germany                          #
                #                                                       #
                #                  All rights reserved                  #
                #                        -***-                          #
                #########################################################


                         Program Version 6.0.1  -  RELEASE   -


 With contributions from (in alphabetic order):
[Max-Planck-Institut fuer Kohlenforschung]                               
  Daniel Aravena         : Magnetic Suceptibility                        
  Michael Atanasov       : Ab Initio Ligand Field Theory (pilot matlab implementation)
  Alexander A. Auer      : GIAO ZORA, VPT2 properties, NMR spectrum      
  Ute Becker             : All parallelization in ORCA, NUMFREQ, NUMCALC 
  Giovanni Bistoni       : ED, misc. LED, open-shell LED, HFLD           
  Martin Brehm           : Molecular dynamics                            
  Dmytro Bykov           : pre 5.0 version of the SCF Hessian            
  Marcos Casanova-Páez   : Triplet and SCS-CIS(D). UHF-(DLPNO)-IP/EA/STEOM-CCSD. UHF-CVS-IP/STEOM-CCSD   
  Vijay G. Chilkuri      : MRCI spin determinant printing, contributions to CSF-ICE 
  Pauline Colinet        : FMM embedding                                 
  Dipayan Datta          : RHF DLPNO-CCSD density                        
  Achintya Kumar Dutta   : EOM-CC, STEOM-CC                              
  Nicolas Foglia         : Exact transition moments, OPA infrastructure, MCD improvements    
  Dmitry Ganyushin       : Spin-Orbit,Spin-Spin,Magnetic field MRCI      
  Miquel Garcia-Rates    : C-PCM and meta-GGA Hessian, CCSD/C-PCM, Gaussian charge scheme 
  Tiago L. C. Gouveia    : GS-ROHF, GS-ROCIS                             
  Yang Guo               : DLPNO-NEVPT2, F12-NEVPT2, CIM, IAO-localization        
  Andreas Hansen         : Spin unrestricted coupled pair/coupled cluster methods 
  Ingolf Harden          : AUTO-CI MPn and infrastructure                
  Benjamin Helmich-Paris : MC-RPA, TRAH-(SCF,CASSCF), AVAS, COSX integrals, SCF dyn. polar. 
  Lee Huntington         : MR-EOM, pCC                                   
  Robert Izsak           : Overlap fitted RIJCOSX, COSX-SCS-MP3, EOM     
  Riya Kayal             : Wick's Theorem for AUTO-CI, AUTO-CI UHF-CCSDT 
  Emily Kempfer          : AUTO-CI, RHF CISDT and CCSDT                  
  Christian Kollmar      : KDIIS, OOCD, Brueckner-CCSD(T), CCSD density, CASPT2, CASPT2-K, improved NEVPT2 
  Axel Koslowski         : Symmetry handling                             
  Simone Kossmann        : meta-GGA functionals, TD-DFT gradient, OOMP2, (MP2 Hessian; deprecated post 5.0) 
  Lucas Lang             : DCDCAS                                        
  Marvin Lechner         : AUTO-CI (C++ implementation), FIC-MRCC        
  Spencer Leger          : CASSCF response                               
  Dagmar Lenk            : GEPOL surface, SMD, ORCA-2-JSON               
  Dimitrios Liakos       : Extrapolation schemes; Compound Job, initial MDCI parallelization 
  Dimitrios Manganas     : Further ROCIS development; embedding schemes. LFT, Crystal Embedding 
  Dimitrios Pantazis     : SARC Basis sets                               
  Anastasios Papadopoulos: AUTO-CI, single reference methods and gradients 
  Taras Petrenko         : pre 6.0 DFT Hessian and TD-DFT gradient, (ASA, deprecated), ECA, 1-Electron XAS/XES, NRVS 
  Peter Pinski           : DLPNO-MP2, DLPNO-MP2 Gradient                 
  Christoph Reimann      : Effective Core Potentials                     
  Marius Retegan         : Local ZFS, SOC                                
  Christoph Riplinger    : Optimizer, TS searches, QM/MM, DLPNO-CCSD(T), (RO)-DLPNO pert. Triples 
  Michael Roemelt        : Original ROCIS implementation                 
  Masaaki Saitow         : Open-shell DLPNO-CCSD energy and density      
  Barbara Sandhoefer     : DKH picture change effects                    
  Kantharuban Sivalingam : CASSCF convergence/infrastructure, NEVPT2 and variants, FIC-MRCI 
  Bernardo de Souza      : ESD, SOC TD-DFT                               
  Georgi L. Stoychev     : AutoAux, RI-MP2 NMR, DLPNO-MP2 response, X2C  
  Van Anh Tran           : RI-MP2 g-tensors                              
  Willem Van den Heuvel  : Paramagnetic NMR                              
  Zikuan Wang            : NOTCH, Electric field optimization            
  Frank Wennmohs         : Technical directorship and infrastructure     
  Hang Xu                : AUTO-CI-Response properties                   
                                                                         
[FACCTs GmbH]                                                            
  Markus Bursch, Miquel Garcia-Rates, Christoph Riplinger, Bernardo de Souza, Georgi L. Stoychev 
                                                                 
  APM, Basis sets (HGBS, AHGBS, def-TZVP (Ac-Lr), def2-XVPD (La-Lu)), CI-OPT, improved COSX, DLPNO-Multilevel,           
  DOCKER, DRACO, updates on ESD, GOAT, IRC, LR-CPCM, MBIS, meta-GGA TD-DFT gradient, ML-optimized integration grids, 
  MM, NACMEs, nearIR, NEB, NEB-TS, NL-DFT gradient (VV10), 2- and 3-layer-ONIOM, interface openCOSMO-RS, QMMM,   
  Crystal-QMMM, SF, symmetry and pop. for TD-DFT, r2SCAN hybrids, SOLVATOR                                   
                                                                         
[Other institutions]                                                     
  V. Asgeirsson          : NEB                                           
  Christoph Bannwarth    : sTDA-DFT, sTD-DFT, PBEh-3c, B97-3c, D3        
  Sebastian Ehlert       : rSCAN, r2SCAN, r2SCAN-3c, D4, dhf basis sets  
  Marvin Friede          : D4 for Fr, Ra, Ac-Lr                          
  Lars Goerigk           : TD-DFT with DH, B97 family of functionals     
  Stefan Grimme          : VdW corrections, initial TS optimization, DFT functionals, gCP, sTDA/sTD-DF 
  Waldemar Hujo          : DFT-NL                                        
  H. Jonsson             : NEB                                           
  Holger Kruse           : gCP                                           
  Marcel Mueller         : wB97X-3c, vDZP basis set                      
  Hagen Neugebauer       : wr2SCAN                                       
  Tobias Risthaus        : range-separated hybrid DFT                    
  Lukas Wittmann         : regularized MP2, r2SCAN double-hybrids, wr2SCAN        
                                                                         
We gratefully acknowledge several colleagues who have allowed us to      
interface, adapt or use parts of their codes:                            
  Ed Valeev, F. Pavosevic, A. Kumar             : LibInt (2-el integral package), F12 methods 
  Garnet Chan, S. Sharma, J. Yang, R. Olivares  : DMRG                   
  Ulf Ekstrom                                   : XCFun DFT Library      
  Mihaly Kallay                                 : mrcc  (arbitrary order and MRCC methods)
  Frank Weinhold                                : gennbo (NPA and NBO analysis)           
  Simon Mueller                                 : openCOSMO-RS                            
  Christopher J. Cramer and Donald G. Truhlar   : smd solvation model                     
  S Lehtola, MJT Oliveira, MAL Marques          : LibXC Library                           
  Liviu Ungur et al                             : ANISO software                          


 Your calculation uses the libint2 library for the computation of 2-el integrals
 For citations please refer to: http://libint.valeyev.net

 Your ORCA version has been built with support for libXC version: 6.2.2
 For citations please refer to: https://libxc.gitlab.io

 This ORCA versions uses:
   CBLAS   interface :  Fast vector & matrix operations
   LAPACKE interface :  Fast linear algebra routines
   SCALAPACK package :  Parallel linear algebra routines
   Shared memory     :  Shared parallel matrices
   BLAS/LAPACK       :  OpenBLAS 0.3.27  USE64BITINT DYNAMIC_ARCH NO_AFFINITY SkylakeX SINGLE_THREADED
        Core in use  :  SkylakeX
   Copyright (c) 2011-2014, The OpenBLAS Project


NOTE: MaxCore=8000 MB was set to SCF,MP2,MDCI,CIPSI,MRCI and CIS
      => If you want to overwrite this, your respective input block should be placed after the MaxCore statement
Your calculation utilizes the atom-pairwise dispersion correction
with the Becke-Johnson damping scheme (D3BJ)


Your calculation utilizes the SMD solvation module
Please cite in your paper:
A.V. Marenich, C.J. Cramer, D.G. Truhlar J. Phys. Chem. B, 113, (2009), 6378 

Warning: RI is on but no J-basis has been assigned. Assigning Def2/J (nothing to worry about!)
================================================================================

----- Orbital basis set information -----
Your calculation utilizes the basis: def2-TZVP
   F. Weigend and R. Ahlrichs, Phys. Chem. Chem. Phys. 7, 3297 (2005).

----- AuxJ basis set information -----
Your calculation utilizes the auxiliary basis: def2/J
   F. Weigend, Phys. Chem. Chem. Phys. 8, 1057 (2006).

================================================================================
                                        WARNINGS
                       Please study these warnings very carefully!
================================================================================


WARNING: your system is open-shell and RHF/RKS was chosen
  ===> : WILL SWITCH to UHF/UKS


WARNING: Geometry Optimization
  ===> : Switching off AutoStart
         For restart on a previous wavefunction, please use MOREAD

================================================================================
                                       INPUT FILE
================================================================================
NAME = rf_mecn_opt_TP_C4_P_B.inp
|  1> !TPSSh def2-TZVP opt d3 TightSCF SlowConv defgrid2
|  2>  
|  3> %pal
|  4> nprocs 20
|  5> end
|  6>  
|  7> %scf
|  8> MaxIter 1500
|  9> end
| 10>  
| 11> %maxcore 8000
| 12>  
| 13> !CPCM
| 14> %cpcm smd true
| 15> SMDsolvent "ACETONITRILE"
| 16> end
| 17>  
| 18> * xyz 0 2
| 19> 6        4.790427000     -0.033865800     -0.529943200
| 20> 8        5.449345000     -1.206924000     -0.894594600
| 21> 8        4.978223000      1.323071000     -0.737377200
| 22> 6        3.506687600     -0.338741600      0.376153800
| 23> 6        2.222300000      0.400524800     -0.110681600
| 24> 6        0.900506800     -0.386389800      0.175703000
| 25> 6       -0.395261200      0.487294000      0.065549000
| 26> 6       -1.705693600     -0.364773800     -0.068373600
| 27> 6       -3.005136200      0.445344800      0.258164000
| 28> 6       -4.319880200     -0.214526000     -0.270540800
| 29> 9        3.211587400     -1.692050400      0.412735200
| 30> 9        3.741061800      0.055285800      1.689948800
| 31> 9        2.125696800      1.616867800      0.483236600
| 32> 9        2.314152400      0.589704000     -1.455769200
| 33> 9        0.794028800     -1.413561400     -0.700839000
| 34> 9       -0.498373400      1.260265600      1.173340200
| 35> 9       -0.299075000      1.289512600     -1.020910800
| 36> 9       -1.641790400     -1.418189000      0.779523800
| 37> 9       -1.792381400     -0.831391600     -1.336863600
| 38> 9       -2.918792200      1.679227200     -0.295171200
| 39> 9       -3.119771000      0.573779800      1.598579800
| 40> 9       -4.383115600     -1.504377600      0.089127600
| 41> 9       -5.365669800      0.430528600      0.260394200
| 42> 9       -4.396020400     -0.128550600     -1.602941800
| 43> 1        5.903122371     -2.014774547     -1.145719253
| 44> *
| 45> 
| 46>                          ****END OF INPUT****
================================================================================

                       *****************************
                       * Geometry Optimization Run *
                       *****************************

Geometry optimization settings:
Update method            Update   .... BFGS
Choice of coordinates    CoordSys .... (2022) Redundant Internals
Initial Hessian          InHess   .... Almloef's Model
Max. no of cycles        MaxIter  .... 75

Convergence Tolerances:
Energy Change            TolE     ....  5.0000e-06 Eh
Max. Gradient            TolMAXG  ....  3.0000e-04 Eh/bohr
RMS Gradient             TolRMSG  ....  1.0000e-04 Eh/bohr
Max. Displacement        TolMAXD  ....  4.0000e-03 bohr
RMS Displacement         TolRMSD  ....  2.0000e-03 bohr
Strict Convergence                .... False

------------------------------------------------------------------------------
                        ORCA OPTIMIZATION COORDINATE SETUP
------------------------------------------------------------------------------

The optimization will be done in redundant internal coordinates (2022)
Making redundant internal coordinates   ...  (2022 redundants) done
Evaluating the initial hessian          ...  (Almloef) done
Evaluating the coordinates              ...  done
Calculating the B-matrix                .... done
Calculating the G-matrix                .... done
Diagonalizing the G-matrix              .... done
Small eigenvalue found = 4.721e-03
Small eigenvalue found = 1.266e-02
Small eigenvalue found = 2.865e-02
Small eigenvalue found = 2.987e-02
The first mode is                       ....   39
The number of degrees of freedom        ....   69

    -----------------------------------------------------------------
                    Redundant Internal Coordinates


    -----------------------------------------------------------------
         Definition                    Initial Value    Approx d2E/dq
    -----------------------------------------------------------------
      1. B(O   1,C   0)                  1.3940         0.551454   
      2. B(O   2,C   0)                  1.3855         0.568952   
      3. B(C   3,C   0)                  1.6006         0.288221   
      4. B(C   4,C   3)                  1.5599         0.334759   
      5. B(C   5,C   4)                  1.5647         0.328824   
      6. B(C   6,C   5)                  1.5667         0.326486   
      7. B(C   7,C   6)                  1.5688         0.323927   
      8. B(C   8,C   7)                  1.5657         0.327637   
      9. B(C   9,C   8)                  1.5632         0.330714   
     10. B(F  10,C   3)                  1.3856         0.528443   
     11. B(F  11,C   3)                  1.3915         0.517117   
     12. B(F  12,C   4)                  1.3570         0.586881   
     13. B(F  13,C   4)                  1.3614         0.577499   
     14. B(F  14,C   5)                  1.3545         0.592326   
     15. B(F  15,C   6)                  1.3547         0.591865   
     16. B(F  16,C   6)                  1.3540         0.593567   
     17. B(F  17,C   7)                  1.3538         0.593973   
     18. B(F  18,C   7)                  1.3544         0.592672   
     19. B(F  19,C   8)                  1.3550         0.591238   
     20. B(F  20,C   8)                  1.3514         0.599114   
     21. B(F  21,C   9)                  1.3406         0.623533   
     22. B(F  22,C   9)                  1.3385         0.628179   
     23. B(F  23,C   9)                  1.3373         0.630929   
     24. B(H  24,O   1)                  0.9600         0.519956   
     25. A(O   1,C   0,C   3)          111.5249         0.369222   
     26. A(O   1,C   0,O   2)          136.1318         0.413163   
     27. A(O   2,C   0,C   3)          112.3347         0.371210   
     28. L(C   0,O   1,H  24,C   3, 1) 180.0000         0.362759   
     29. L(C   0,O   1,H  24,C   3, 2) 180.0000         0.362759   
     30. A(F  10,C   3,F  11)          106.7094         0.399684   
     31. A(C   0,C   3,F  11)          110.2099         0.363632   
     32. A(C   4,C   3,F  11)          107.4072         0.373095   
     33. A(C   0,C   3,F  10)          111.8265         0.364982   
     34. A(C   4,C   3,F  10)          107.2033         0.374492   
     35. A(C   0,C   3,C   4)          113.1687         0.341363   
     36. A(C   3,C   4,F  12)          110.2926         0.381351   
     37. A(C   3,C   4,C   5)          113.5839         0.349005   
     38. A(C   5,C   4,F  13)          107.9208         0.379109   
     39. A(C   3,C   4,F  13)          108.5818         0.380286   
     40. A(C   5,C   4,F  12)          108.0911         0.380169   
     41. A(F  12,C   4,F  13)          108.2194         0.415201   
     42. A(C   6,C   5,F  14)          108.2026         0.380308   
     43. A(C   4,C   5,F  14)          109.2282         0.380779   
     44. A(C   4,C   5,C   6)          113.9128         0.347536   
     45. A(C   5,C   6,C   7)          113.2023         0.346660   
     46. A(F  15,C   6,F  16)          108.8752         0.417862   
     47. A(C   7,C   6,F  16)          108.2186         0.379927   
     48. A(C   5,C   6,F  16)          109.1523         0.380446   
     49. A(C   7,C   6,F  15)          108.4284         0.379738   
     50. A(C   5,C   6,F  15)          108.8835         0.380256   
     51. A(C   8,C   7,F  18)          108.6915         0.380579   
     52. A(C   6,C   7,F  18)          108.6955         0.379828   
     53. A(C   8,C   7,F  17)          108.1296         0.380723   
     54. A(F  17,C   7,F  18)          108.7561         0.418014   
     55. A(C   6,C   7,F  17)          109.2524         0.379972   
     56. A(C   6,C   7,C   8)          113.2298         0.346865   
     57. A(F  19,C   8,F  20)          108.8987         0.418476   
     58. A(C   7,C   8,C   9)          114.1471         0.348078   
     59. A(C   9,C   8,F  20)          107.7127         0.381912   
     60. A(C   7,C   8,F  20)          109.0521         0.381293   
     61. A(C   9,C   8,F  19)          107.4499         0.381036   
     62. A(C   7,C   8,F  19)          109.4572         0.380419   
     63. A(F  22,C   9,F  23)          108.6464         0.426961   
     64. A(F  21,C   9,F  23)          109.0552         0.426394   
     65. A(C   8,C   9,F  23)          110.9604         0.385362   
     66. A(F  21,C   9,F  22)          108.6877         0.426061   
     67. A(C   8,C   9,F  22)          108.6349         0.385069   
     68. A(C   8,C   9,F  21)          110.7995         0.384572   
     69. D(C   4,C   3,C   0,O   1)   -131.0839         0.006601   
     70. D(F  10,C   3,C   0,O   1)     -9.8890         0.006601   
     71. D(F  11,C   3,C   0,O   1)    108.6317         0.006601   
     72. D(F  10,C   3,C   0,O   2)    171.0025         0.006601   
     73. D(F  11,C   3,C   0,O   2)    -70.4768         0.006601   
     74. D(C   4,C   3,C   0,O   2)     49.8076         0.006601   
     75. D(C   5,C   4,C   3,C   0)    148.6429         0.009100   
     76. D(F  12,C   4,C   3,F  11)     32.0233         0.009100   
     77. D(F  12,C   4,C   3,C   0)    -89.8453         0.009100   
     78. D(C   5,C   4,C   3,F  11)    -89.4885         0.009100   
     79. D(F  12,C   4,C   3,F  10)    146.3851         0.009100   
     80. D(C   5,C   4,C   3,F  10)     24.8733         0.009100   
     81. D(C   6,C   5,C   4,F  13)    -75.6292         0.008276   
     82. D(C   6,C   5,C   4,F  12)     41.2001         0.008276   
     83. D(C   6,C   5,C   4,C   3)    163.9326         0.008276   
     84. D(F  14,C   5,C   4,F  12)    162.3014         0.008276   
     85. D(F  14,C   5,C   4,C   3)    -74.9661         0.008276   
     86. D(F  16,C   6,C   5,C   4)     42.3872         0.008172   
     87. D(F  15,C   6,C   5,F  14)    161.9826         0.008172   
     88. D(F  15,C   6,C   5,C   4)    -76.3465         0.008172   
     89. D(C   7,C   6,C   5,F  14)     41.3107         0.008172   
     90. D(C   7,C   6,C   5,C   4)    162.9815         0.008172   
     91. D(F  17,C   7,C   6,F  16)    162.9167         0.008578   
     92. D(F  17,C   7,C   6,F  15)    -79.1358         0.008578   
     93. D(F  17,C   7,C   6,C   5)     41.7939         0.008578   
     94. D(C   8,C   7,C   6,F  16)    -76.5134         0.008578   
     95. D(C   8,C   7,C   6,F  15)     41.4341         0.008578   
     96. D(C   8,C   7,C   6,C   5)    162.3638         0.008578   
     97. D(C   9,C   8,C   7,F  18)     41.5227         0.008755   
     98. D(C   9,C   8,C   7,F  17)    -76.3785         0.008755   
     99. D(C   9,C   8,C   7,C   6)    162.4166         0.008755   
    100. D(F  19,C   8,C   7,F  18)    -78.9355         0.008755   
    101. D(F  19,C   8,C   7,F  17)    163.1633         0.008755   
    102. D(F  19,C   8,C   7,C   6)     41.9584         0.008755   
    103. D(F  22,C   9,C   8,F  20)     48.1091         0.008903   
    104. D(F  22,C   9,C   8,F  19)    -69.0724         0.008903   
    105. D(F  22,C   9,C   8,C   7)    169.3552         0.008903   
    106. D(F  21,C   9,C   8,F  20)    -71.2185         0.008903   
    107. D(F  21,C   9,C   8,F  19)    171.5999         0.008903   
    108. D(F  21,C   9,C   8,C   7)     50.0276         0.008903   
    -----------------------------------------------------------------

Number of atoms                         .... 25
Number of degrees of freedom            .... 108


         *************************************************************
         *                GEOMETRY OPTIMIZATION CYCLE   1            *
         *************************************************************
---------------------------------
CARTESIAN COORDINATES (ANGSTROEM)
---------------------------------
  C      4.790427   -0.033866   -0.529943
  O      5.449345   -1.206924   -0.894595
  O      4.978223    1.323071   -0.737377
  C      3.506688   -0.338742    0.376154
  C      2.222300    0.400525   -0.110682
  C      0.900507   -0.386390    0.175703
  C     -0.395261    0.487294    0.065549
  C     -1.705694   -0.364774   -0.068374
  C     -3.005136    0.445345    0.258164
  C     -4.319880   -0.214526   -0.270541
  F      3.211587   -1.692050    0.412735
  F      3.741062    0.055286    1.689949
  F      2.125697    1.616868    0.483237
  F      2.314152    0.589704   -1.455769
  F      0.794029   -1.413561   -0.700839
  F     -0.498373    1.260266    1.173340
  F     -0.299075    1.289513   -1.020911
  F     -1.641790   -1.418189    0.779524
  F     -1.792381   -0.831392   -1.336864
  F     -2.918792    1.679227   -0.295171
  F     -3.119771    0.573780    1.598580
  F     -4.383116   -1.504378    0.089128
  F     -5.365670    0.430529    0.260394
  F     -4.396020   -0.128551   -1.602942
  H      5.903122   -2.014775   -1.145719

----------------------------
CARTESIAN COORDINATES (A.U.)
----------------------------
  NO LB      ZA    FRAG     MASS         X           Y           Z
   0 C     6.0000    0    12.011    9.052595   -0.063997   -1.001448
   1 O     8.0000    0    15.999   10.297770   -2.280756   -1.690539
   2 O     8.0000    0    15.999    9.407478    2.500242   -1.393441
   3 C     6.0000    0    12.011    6.626679   -0.640129    0.710828
   4 C     6.0000    0    12.011    4.199538    0.756882   -0.209158
   5 C     6.0000    0    12.011    1.701711   -0.730171    0.332031
   6 C     6.0000    0    12.011   -0.746935    0.920852    0.123870
   7 C     6.0000    0    12.011   -3.223294   -0.689323   -0.129207
   8 C     6.0000    0    12.011   -5.678884    0.841580    0.487859
   9 C     6.0000    0    12.011   -8.163391   -0.405395   -0.511248
  10 F     9.0000    0    18.998    6.069021   -3.197512    0.779956
  11 F     9.0000    0    18.998    7.069582    0.104475    3.193540
  12 F     9.0000    0    18.998    4.016985    3.055437    0.913185
  13 F     9.0000    0    18.998    4.373114    1.114379   -2.751005
  14 F     9.0000    0    18.998    1.500497   -2.671244   -1.324394
  15 F     9.0000    0    18.998   -0.941789    2.381557    2.217292
  16 F     9.0000    0    18.998   -0.565170    2.436826   -1.929242
  17 F     9.0000    0    18.998   -3.102534   -2.679989    1.473086
  18 F     9.0000    0    18.998   -3.387110   -1.571102   -2.526306
  19 F     9.0000    0    18.998   -5.515718    3.173280   -0.557793
  20 F     9.0000    0    18.998   -5.895513    1.084287    3.020878
  21 F     9.0000    0    18.998   -8.282888   -2.842862    0.168427
  22 F     9.0000    0    18.998  -10.139646    0.813581    0.492074
  23 F     9.0000    0    18.998   -8.307275   -0.242925   -3.029121
  24 H     1.0000    0     1.008   11.155285   -3.807372   -2.165096

--------------------------------
INTERNAL COORDINATES (ANGSTROEM)
--------------------------------
 C      0   0   0     0.000000000000     0.00000000     0.00000000
 O      1   0   0     1.393990356793     0.00000000     0.00000000
 O      1   2   0     1.385486802956   136.13177198     0.00000000
 C      1   2   3     1.600608594862   111.52489317   181.18992567
 C      4   1   2     1.559863783763   113.16872737   228.91614990
 C      5   4   1     1.564732561934   113.58394786   148.64287440
 C      6   5   4     1.566675459667   113.91280616   163.93256239
 C      7   6   5     1.568817348692   113.20226571   162.98152714
 C      8   7   6     1.565717094808   113.22984595   162.36375422
 C      9   8   7     1.563173062643   114.14707705   162.41661495
 F      4   1   2     1.385592665621   111.82651119   350.11101305
 F      4   1   2     1.391490625050   110.20991618   108.63170802
 F      5   4   1     1.357041377479   110.29260564   270.15468021
 F      5   4   1     1.361428031433   108.58179722    28.57841973
 F      6   5   4     1.354527570075   109.22822656   285.03385927
 F      7   6   5     1.354739297058   108.88346185   283.65347401
 F      7   6   5     1.353957667090   109.15230848    42.38718856
 F      8   7   6     1.353771473879   109.25240264    41.79387651
 F      8   7   6     1.354368423305   108.69554158   283.25540020
 F      9   8   7     1.355028009646   109.45719767    41.95842364
 F      9   8   7     1.351425618925   109.05210362   282.91820052
 F     10   9   8     1.340551089588   110.79953142    50.02756898
 F     10   9   8     1.338530275591   108.63493714   169.35523750
 F     10   9   8     1.337341214598   110.96044107   288.72891896
 H      2   1   3     0.960000000033   180.00000000     0.00000000

---------------------------
INTERNAL COORDINATES (A.U.)
---------------------------
 C      0   0   0     0.000000000000     0.00000000     0.00000000
 O      1   0   0     2.634260007667     0.00000000     0.00000000
 O      1   2   0     2.618190619750   136.13177198     0.00000000
 C      1   2   3     3.024711891890   111.52489317   181.18992567
 C      4   1   2     2.947715357535   113.16872737   228.91614990
 C      5   4   1     2.956916014884   113.58394786   148.64287440
 C      6   5   4     2.960587559506   113.91280616   163.93256239
 C      7   6   5     2.964635143173   113.20226571   162.98152714
 C      8   7   6     2.958776512386   113.22984595   162.36375422
 C      9   8   7     2.953968988318   114.14707705   162.41661495
 F      4   1   2     2.618390671194   111.82651119   350.11101305
 F      4   1   2     2.629536199263   110.20991618   108.63170802
 F      5   4   1     2.564436555835   110.29260564   270.15468021
 F      5   4   1     2.572726130452   108.58179722    28.57841973
 F      6   5   4     2.559686148288   109.22822656   285.03385927
 F      7   6   5     2.560086254300   108.88346185   283.65347401
 F      7   6   5     2.558609187723   109.15230848    42.38718856
 F      8   7   6     2.558257333546   109.25240264    41.79387651
 F      8   7   6     2.559385404477   108.69554158   283.25540020
 F      9   8   7     2.560631842023   109.45719767    41.95842364
 F      9   8   7     2.553824310132   109.05210362   282.91820052
 F     10   9   8     2.533274427850   110.79953142    50.02756898
 F     10   9   8     2.529455642830   108.63493714   169.35523750
 F     10   9   8     2.527208643196   110.96044107   288.72891896
 H      2   1   3     1.814137088628   180.00000000     0.00000000

---------------------
BASIS SET INFORMATION
---------------------
There are 4 groups of distinct atoms

 Group   1 Type C   : 11s6p2d1f contracted to 5s3p2d1f pattern {62111/411/11/1}
 Group   2 Type O   : 11s6p2d1f contracted to 5s3p2d1f pattern {62111/411/11/1}
 Group   3 Type F   : 11s6p2d1f contracted to 5s3p2d1f pattern {62111/411/11/1}
 Group   4 Type H   : 5s1p contracted to 3s1p pattern {311/1}

Atom   0C    basis set group =>   1
Atom   1O    basis set group =>   2
Atom   2O    basis set group =>   2
Atom   3C    basis set group =>   1
Atom   4C    basis set group =>   1
Atom   5C    basis set group =>   1
Atom   6C    basis set group =>   1
Atom   7C    basis set group =>   1
Atom   8C    basis set group =>   1
Atom   9C    basis set group =>   1
Atom  10F    basis set group =>   3
Atom  11F    basis set group =>   3
Atom  12F    basis set group =>   3
Atom  13F    basis set group =>   3
Atom  14F    basis set group =>   3
Atom  15F    basis set group =>   3
Atom  16F    basis set group =>   3
Atom  17F    basis set group =>   3
Atom  18F    basis set group =>   3
Atom  19F    basis set group =>   3
Atom  20F    basis set group =>   3
Atom  21F    basis set group =>   3
Atom  22F    basis set group =>   3
Atom  23F    basis set group =>   3
Atom  24H    basis set group =>   4
---------------------------------
AUXILIARY/J BASIS SET INFORMATION
---------------------------------
There are 4 groups of distinct atoms

 Group   1 Type C   : 12s5p4d2f1g contracted to 6s4p3d1f1g pattern {711111/2111/211/2/1}
 Group   2 Type O   : 12s5p4d2f1g contracted to 6s4p3d1f1g pattern {711111/2111/211/2/1}
 Group   3 Type F   : 12s5p4d2f1g contracted to 6s4p3d1f1g pattern {711111/2111/211/2/1}
 Group   4 Type H   : 5s2p1d contracted to 3s1p1d pattern {311/2/1}

Atom   0C    basis set group =>   1
Atom   1O    basis set group =>   2
Atom   2O    basis set group =>   2
Atom   3C    basis set group =>   1
Atom   4C    basis set group =>   1
Atom   5C    basis set group =>   1
Atom   6C    basis set group =>   1
Atom   7C    basis set group =>   1
Atom   8C    basis set group =>   1
Atom   9C    basis set group =>   1
Atom  10F    basis set group =>   3
Atom  11F    basis set group =>   3
Atom  12F    basis set group =>   3
Atom  13F    basis set group =>   3
Atom  14F    basis set group =>   3
Atom  15F    basis set group =>   3
Atom  16F    basis set group =>   3
Atom  17F    basis set group =>   3
Atom  18F    basis set group =>   3
Atom  19F    basis set group =>   3
Atom  20F    basis set group =>   3
Atom  21F    basis set group =>   3
Atom  22F    basis set group =>   3
Atom  23F    basis set group =>   3
Atom  24H    basis set group =>   4


           ************************************************************
           *        Program running with 20 parallel MPI-processes    *
           *              working on a common directory               *
           ************************************************************
------------------------------------------------------------------------------
                             ORCA STARTUP CALCULATIONS
                           -- RI-GTO INTEGRALS CHOSEN --
------------------------------------------------------------------------------
------------------------------------------------------------------------------
                   ___                                                        
                  /   \      - P O W E R E D   B Y -                         
                 /     \                                                     
                 |  |  |   _    _      __       _____    __    __             
                 |  |  |  | |  | |    /  \     |  _  \  |  |  /  |          
                  \  \/   | |  | |   /    \    | | | |  |  | /  /          
                 / \  \   | |__| |  /  /\  \   | |_| |  |  |/  /          
                |  |  |   |  __  | /  /__\  \  |    /   |      \           
                |  |  |   | |  | | |   __   |  |    \   |  |\   \          
                \     /   | |  | | |  |  |  |  | |\  \  |  | \   \       
                 \___/    |_|  |_| |__|  |__|  |_| \__\ |__|  \__/        
                                                                              
                      - O R C A' S   B I G   F R I E N D -                    
                                      &                                       
                       - I N T E G R A L  F E E D E R -                       
                                                                              
 v1 FN, 2020, v2 2021, v3 2022-2024                                           
------------------------------------------------------------------------------


----------------------
SHARK INTEGRAL PACKAGE
----------------------

Number of atoms                             ...     25
Number of basis functions                   ...    750
Number of shells                            ...    268
Maximum angular momentum                    ...      3
Integral batch strategy                     ... SHARK/LIBINT Hybrid
RI-J (if used) integral strategy            ... SPLIT-RIJ (Revised 2003 algorithm where possible)
Printlevel                                  ...      1
Contraction scheme used                     ... SEGMENTED contraction
Prescreening option                         ... SCHWARTZ
   Thresh                                   ... 2.500e-11
   Tcut                                     ... 2.500e-12
   Tpresel                                  ... 2.500e-12 
Coulomb Range Separation                    ... NOT USED
Exchange Range Separation                   ... NOT USED
Multipole approximations                    ... NOT USED
Finite Nucleus Model                        ... NOT USED
CABS basis                                  ... NOT available
Auxiliary Coulomb fitting basis             ... AVAILABLE
   # of basis functions in Aux-J            ...   1187
   # of shells in Aux-J                     ...    365
   Maximum angular momentum in Aux-J        ...      4
Auxiliary J/K fitting basis                 ... NOT available
Auxiliary Correlation fitting basis         ... NOT available
Auxiliary 'external' fitting basis          ... NOT available

Checking pre-screening integrals            ... done (  0.0 sec) Dimension = 268
Check shell pair data                       ... done (  0.0 sec)
Shell pair information
Shell pair cut-off parameter TPreSel        ...   2.5e-12
Total number of shell pairs                 ...     36046
Shell pairs after pre-screening             ...     21894
Total number of primitive shell pairs       ...    118872
Primitive shell pairs kept                  ...     46507
          la=0 lb=0:   4183 shell pairs
          la=1 lb=0:   5977 shell pairs
          la=1 lb=1:   2069 shell pairs
          la=2 lb=0:   3244 shell pairs
          la=2 lb=1:   2370 shell pairs
          la=2 lb=2:    670 shell pairs
          la=3 lb=0:   1480 shell pairs
          la=3 lb=1:   1140 shell pairs
          la=3 lb=2:    613 shell pairs
          la=3 lb=3:    148 shell pairs

Calculating one electron integrals          ... done (  0.0 sec)
Calculating RI/J V-Matrix + Cholesky decomp.... done (  0.1 sec)
Calculating Nuclear repulsion               ... done (  0.0 sec) ENN=   2611.980599108676 Eh

Diagonalization of the overlap matrix:
Smallest eigenvalue                        ... 6.561e-05
Time for diagonalization                   ...    0.106 sec
Threshold for overlap eigenvalues          ... 1.000e-07
Number of eigenvalues below threshold      ... 0
Time for construction of square roots      ...    0.051 sec
Total time needed                          ...    0.163 sec

-------------------
DFT GRID GENERATION
-------------------

General Integration Accuracy     IntAcc      ... 4.388
Radial Grid Type                 RadialGrid  ... OptM3 with GC (2021)
Angular Grid (max. ang.)         AngularGrid ... 4 (Lebedev-302)
Angular grid pruning method      GridPruning ... 4 (adaptive)
Weight generation scheme         WeightScheme... mBecke (2022)
Basis function cutoff            BFCut       ... 1.0000e-11
Integration weight cutoff        WCut        ... 1.0000e-14
Partially contracted basis set               ... off
Rotationally invariant grid construction     ... off
Angular grids for H and He will be reduced by one unit

Total number of grid points                  ...   148770
Total number of batches                      ...     2335
Average number of points per batch           ...       63
Average number of grid points per atom       ...     5951

--------------------
COSX GRID GENERATION
--------------------

GRIDX 1
-------
General Integration Accuracy     IntAcc      ... 3.816
Radial Grid Type                 RadialGrid  ... OptM3 with GC (2021)
Angular Grid (max. ang.)         AngularGrid ... 1 (Lebedev-50)
Angular grid pruning method      GridPruning ... 4 (adaptive)
Weight generation scheme         WeightScheme... mBecke (2022)
Basis function cutoff            BFCut       ... 1.0000e-11
Integration weight cutoff        WCut        ... 1.0000e-14
Partially contracted basis set               ... on
Rotationally invariant grid construction     ... off
Angular grids for H and He will be reduced by one unit

Total number of grid points                  ...    18722
Total number of batches                      ...      158
Average number of points per batch           ...      118
Average number of grid points per atom       ...      749
UseSFitting                                  ... on

GRIDX 2
-------
General Integration Accuracy     IntAcc      ... 4.020
Radial Grid Type                 RadialGrid  ... OptM3 with GC (2021)
Angular Grid (max. ang.)         AngularGrid ... 2 (Lebedev-110)
Angular grid pruning method      GridPruning ... 4 (adaptive)
Weight generation scheme         WeightScheme... mBecke (2022)
Basis function cutoff            BFCut       ... 1.0000e-11
Integration weight cutoff        WCut        ... 1.0000e-14
Partially contracted basis set               ... on
Rotationally invariant grid construction     ... off
Angular grids for H and He will be reduced by one unit

Total number of grid points                  ...    44133
Total number of batches                      ...      358
Average number of points per batch           ...      123
Average number of grid points per atom       ...     1765
UseSFitting                                  ... on

GRIDX 3
-------
General Integration Accuracy     IntAcc      ... 4.338
Radial Grid Type                 RadialGrid  ... OptM3 with GC (2021)
Angular Grid (max. ang.)         AngularGrid ... 3 (Lebedev-194)
Angular grid pruning method      GridPruning ... 4 (adaptive)
Weight generation scheme         WeightScheme... mBecke (2022)
Basis function cutoff            BFCut       ... 1.0000e-11
Integration weight cutoff        WCut        ... 1.0000e-14
Partially contracted basis set               ... on
Rotationally invariant grid construction     ... off
Angular grids for H and He will be reduced by one unit

Total number of grid points                  ...    97728
Total number of batches                      ...      774
Average number of points per batch           ...      126
Average number of grid points per atom       ...     3909
UseSFitting                                  ... on
Initializing property integral containers    ... done (  0.0 sec)

SHARK setup successfully completed in   3.0 seconds

Maximum memory used throughout the entire STARTUP-calculation: 56.8 MB


           ************************************************************
           *        Program running with 20 parallel MPI-processes    *
           *              working on a common directory               *
           ************************************************************
-------------------------------------------------------------------------------
                                 ORCA GUESS
                   Start orbitals & Density for SCF / CASSCF
-------------------------------------------------------------------------------

------------
SCF SETTINGS
------------
Hamiltonian:
 Density Functional     Method          .... DFT(GTOs)
 Exchange Functional    Exchange        .... TPSS
 Correlation Functional Correlation     .... TPSS
 LDA part of GGA corr.  LDAOpt          .... PW91-LDA
 Gradients option       PostSCFGGA      .... off
 Hybrid DFT is turned on
   Fraction HF Exchange ScalHFX         ....  0.100000
   Scaling of DF-GGA-X  ScalDFX         ....  0.900000
   Scaling of DF-GGA-C  ScalDFC         ....  1.000000
   Scaling of DF-LDA-C  ScalLDAC        ....  1.000000
   Perturbative correction              ....  0.000000
   NL short-range parameter             ....  5.200000
 RI-approximation to the Coulomb term is turned on
   Number of AuxJ basis functions       .... 1187
   RIJ-COSX (HFX calculated with COS-X)).... on


General Settings:
 Integral files         IntName         .... rf_mecn_opt_TP_C4_P_B
 Hartree-Fock type      HFTyp           .... UHF
 Total Charge           Charge          ....    0
 Multiplicity           Mult            ....    2
 Number of Electrons    NEL             ....  191
 Basis Dimension        Dim             ....  750
 Nuclear Repulsion      ENuc            ....   2611.9805991087 Eh

Convergence Acceleration:
 AO-DIIS                CNVDIIS         .... on
   Start iteration      DIISMaxIt       ....     0
   Startup error        DIISStart       ....  0.200000
   # of expansion vecs  DIISMaxEq       ....     5
   Bias factor          DIISBfac        ....   1.050
   Max. coefficient     DIISMaxC        ....  10.000
 MO-DIIS                CNVKDIIS        .... off
 Trust-Rad. Augm. Hess. CNVTRAH         .... auto
   Auto Start mean grad. ratio tolernc. ....  1.125000
   Auto Start start iteration           ....    50
   Auto Start num. interpolation iter.  ....    10
   Max. Number of Micro iterations      ....    24
   Max. Number of Macro iterations      .... Maxiter - #DIIS iter
   Number of Davidson start vectors     ....     2
   Converg. threshold    (grad. norm)   ....   1.000e-05
   Grad. Scal. Fac. for Micro threshold ....   0.100
   Minimum threshold for Micro iter.    ....   1.000e-02
   NR start threshold (gradient norm)   ....   1.000e-04
   Initial trust radius                 ....   0.400
   Minimum AH scaling param. (alpha)    ....   1.000
   Maximum AH scaling param. (alpha)    .... 1000.000
   Quad. conv. algorithm                .... NR
   White noise on init. David. guess    .... on
   Maximum white noise                  ....   0.010
   Pseudo random numbers                .... off
   Inactive MOs                         .... canonical
   Orbital update algorithm             .... Taylor
   Preconditioner                       .... Diag
   Full preconditioner red. dimension   ....   250
 SOSCF                  CNVSOSCF        .... on
   Start iteration      SOSCFMaxIt      ....   150
   Startup grad/error   SOSCFStart      ....  0.001000
   Hessian update       SOSCFHessUp     .... L-BFGS
 Level Shifting         CNVShift        .... on
   Level shift para.    LevelShift      ....    0.2500
   Turn off err/grad.   ShiftErr        ....    0.0000
 Zerner damping         CNVZerner       .... off
 Static damping         CNVDamp         .... on
   Fraction old density DampFac         ....    0.8500
   Max. Damping (<1)    DampMax         ....    0.9800
   Min. Damping (>=0)   DampMin         ....    0.0000
   Turn off err/grad.   DampErr         ....    0.0300

SCF Procedure:
 Maximum # iterations   MaxIter         ....  1500
 SCF integral mode      SCFMode         .... Direct
   Integral package                     .... SHARK and LIBINT hybrid scheme
 Reset frequency        DirectResetFreq ....    20
 Integral Threshold     Thresh          ....  2.500e-11 Eh
 Primitive CutOff       TCut            ....  2.500e-12 Eh

Convergence Tolerance:
 Convergence Check Mode ConvCheckMode   .... Total+1el-Energy
 Convergence forced     ConvForced      .... 0
 Energy Change          TolE            ....  1.000e-08 Eh
 1-El. energy change                    ....  1.000e-05 Eh
 Orbital Gradient       TolG            ....  1.000e-05
 Orbital Rotation angle TolX            ....  1.000e-05
 DIIS Error             TolErr          ....  5.000e-07

------------------------------
INITIAL GUESS: MODEL POTENTIAL
------------------------------
Loading Hartree-Fock densities                     ... done
Calculating cut-offs                               ... done
Initializing the effective Hamiltonian             ... done
Setting up the integral package (SHARK)            ... done
Starting the Coulomb interaction                   ... done (   0.2 sec)
Making the grid                                    ... done (   0.4 sec)
Mapping shells                                     ... done
Starting the XC term evaluation                    ... done (   0.1 sec)
  promolecular density results
     # of electrons  =    191.000203496
     EX              =   -197.375318456
     EC              =     -6.682522191
     EX+EC           =   -204.057840647
Transforming the Hamiltonian                       ... done (   0.0 sec)
Diagonalizing the Hamiltonian                      ... done (   0.1 sec)
Back transforming the eigenvectors                 ... done (   0.0 sec)
Now organizing SCF variables                       ... done
                      ------------------
                      INITIAL GUESS DONE (   1.1 sec)
                      ------------------
             **** ENERGY FILE WAS UPDATED (rf_mecn_opt_TP_C4_P_B.en.tmp) ****
Finished Guess after   1.8 sec
Maximum memory used throughout the entire GUESS-calculation: 45.7 MB


           ************************************************************
           *        Program running with 20 parallel MPI-processes    *
           *              working on a common directory               *
           ************************************************************

-------------------------------------------------------------------------------------------
                                      ORCA LEAN-SCF
                              memory conserving SCF solver
-------------------------------------------------------------------------------------------

--------------------
CPCM SOLVATION MODEL
--------------------
CPCM parameters:
  Epsilon                                         ...      35.6880
  Refrac                                          ...       1.3442
  Rsolv                                           ...       1.3000
  Surface type                                    ... GAUSSIAN VDW
  Discretization scheme                           ... Constant charge density
    Threshold for H atoms                         ...       5.0000 (charges/Ang^2)
    Threshold for non-H atoms                     ...       5.0000 (charges/Ang^2)
  Epsilon function type                           ...         CPCM
Solvent:                                          ... ACETONITRILE
SMD-CDS solvent descriptors:
  Soln                                            ...       1.3442
  Soln25                                          ...       1.3416
  Sola                                            ...       0.0700
  Solb                                            ...       0.3200
  Solg                                            ...      41.2500
  Solc                                            ...       0.0000
  Solh                                            ...       0.0000
Radii:
  Scheme                                          ... Element-dependent radii
  Radius for C  used is    3.4960 Bohr (=   1.8500 Ang.)
  Radius for O  used is    4.0969 Bohr (=   2.1680 Ang.)
  Radius for F  used is    3.2692 Bohr (=   1.7300 Ang.)
  Radius for H  used is    2.2677 Bohr (=   1.2000 Ang.)
Calculating surface                               ...        done! (  0.0s)
Cavity surface points                             ...         2170
Cavity Volume                                     ...    2134.8130
Cavity Surface-area                               ...    1120.2556
Calculating surface distance matrix               ...        done! (  0.0s)
Performing Cholesky decomposition & store         ...        done! (  0.1s)
Overall time for CPCM initialization              ...                 0.1s

----------------------------------------D-I-I-S--------------------------------------------
Iteration    Energy (Eh)           Delta-E    RMSDP     MaxDP     DIISErr   Damp  Time(sec)
-------------------------------------------------------------------------------------------
               ***  Starting incremental Fock matrix formation  ***
    1    -1853.8460838612768384     0.00e+00  1.99e-04  1.63e-02  1.43e-01  0.850   6.4
Warning: op=1 Small HOMO/LUMO gap (   0.028) - skipping pre-diagonalization
         Will do a full diagonalization
    2    -1853.9887839024709137    -1.43e-01  1.86e-04  1.49e-02  8.63e-02  0.850   4.9
                               ***Turning on AO-DIIS***
    3    -1854.0575806755209669    -6.88e-02  7.97e-05  4.43e-03  4.91e-02  0.850   4.6
    4    -1854.0978251518622528    -4.02e-02  5.00e-05  3.15e-03  3.45e-02  0.850   4.4
    5    -1854.1263172102567296    -2.85e-02  4.03e-05  3.59e-03  2.70e-02  0.850   4.4
    6    -1854.1490413469823579    -2.27e-02  2.38e-04  2.39e-02  2.48e-02  0.000   4.2
    7    -1854.2715033061263057    -1.22e-01  4.20e-05  4.01e-03  5.12e-03  0.000   4.6
    8    -1854.2717855741552739    -2.82e-04  1.15e-05  1.35e-03  3.79e-03  0.000   4.0
    9    -1854.2718934820481991    -1.08e-04  4.79e-06  3.73e-04  1.05e-03  0.000   3.7
                              *** Initializing SOSCF ***
---------------------------------------S-O-S-C-F--------------------------------------
Iteration    Energy (Eh)           Delta-E    RMSDP     MaxDP     MaxGrad    Time(sec)
--------------------------------------------------------------------------------------
   10    -1854.2719115633749425    -1.81e-05  2.70e-06  3.44e-04  2.56e-04     4.3
               *** Restarting incremental Fock matrix formation ***
   11    -1854.2719247269028529    -1.32e-05  2.80e-06  2.66e-04  1.72e-04     7.6
   12    -1854.2719246452484185     8.17e-08  2.10e-06  1.99e-04  4.34e-04     4.7
   13    -1854.2719261546549205    -1.51e-06  1.65e-06  9.71e-05  2.22e-04     4.4
   14    -1854.2719258462188918     3.08e-07  8.94e-07  6.29e-05  1.35e-04     4.4
   15    -1854.2719265446780810    -6.98e-07  3.88e-07  3.04e-05  2.16e-05     4.3
   16    -1854.2719265503960742    -5.72e-09  2.00e-07  1.91e-05  2.84e-05     3.9
                 **** Energy Check signals convergence ****

               *****************************************************
               *                     SUCCESS                       *
               *           SCF CONVERGED AFTER  16 CYCLES          *
               *****************************************************

Recomputing exchange energy using gridx3       ... done (    8.426 sec)
Old exchange energy                            :    -19.880766243 Eh
New exchange energy                            :    -19.880775266 Eh
Exchange energy change after final integration :     -0.000009023 Eh
Total energy after final integration           :  -1854.271935573 Eh

SMD CDS free energy correction energy :                 3.65793     Kcal/mol
Total Energy after SMD CDS correction =             -1854.266106289 Eh
             **** ENERGY FILE WAS UPDATED (rf_mecn_opt_TP_C4_P_B.en.tmp) ****

----------------
TOTAL SCF ENERGY
----------------

Total Energy       :      -1854.26610628895128 Eh          -50457.14594 eV

Components:
Nuclear Repulsion  :       2611.98059910867551 Eh           71075.60552 eV
Electronic Energy  :      -4466.23551044547457 Eh         -121532.44683 eV
One Electron Energy:      -7775.97542586944928 Eh         -211595.04862 eV
Two Electron Energy:       3309.73991542397516 Eh           90062.60179 eV
CPCM Dielectric    :         -0.01701521359810 Eh              -0.46301 eV
SMD CDS (Gcds)     :          0.00582928425824 Eh               0.15862 eV

Virial components:
Potential Energy   :      -3701.13169084710444 Eh         -100712.91345 eV
Kinetic Energy     :       1846.86558455815293 Eh           50255.76751 eV
Virial Ratio       :          2.00400707111155

DFT components:
N(Alpha)           :       95.999971027140 electrons
N(Beta)            :       94.999962620564 electrons
N(Total)           :      190.999933647704 electrons
E(X)               :     -180.726154054921 Eh       
E(C)               :       -6.697742573628 Eh       
E(XC)              :     -187.423896628549 Eh       

CPCM Solvation Model Properties:
Surface-charge          :         -0.00881642760430
Corrected charge        :         -0.00000000000000
Outlying charge corr.   :          0.00000422499626 Eh               0.00011 eV
Free-energy (cav+disp)  :          0.00582928425824 Eh               0.15862 eV

---------------
SCF CONVERGENCE
---------------

  Last Energy change         ...    5.7180e-09  Tolerance :   1.0000e-08
  Last MAX-Density change    ...    1.9083e-05  Tolerance :   1.0000e-07
  Last RMS-Density change    ...    2.0008e-07  Tolerance :   5.0000e-09
  Last DIIS Error            ...    2.5601e-04  Tolerance :   5.0000e-07
  Last Orbital Gradient      ...    2.8442e-05  Tolerance :   1.0000e-05
  Last Orbital Rotation      ...    2.8521e-05  Tolerance :   1.0000e-05


----------------------
UHF SPIN CONTAMINATION
----------------------

Warning: in a DFT calculation there is little theoretical justification to 
         calculate <S**2> as in Hartree-Fock theory. We will do it anyways
         but you should keep in mind that the values have only limited relevance

Expectation value of <S**2>     :     0.753949
Ideal value S*(S+1) for S=0.5   :     0.750000
Deviation                       :     0.003949

----------------
ORBITAL ENERGIES
----------------
                 SPIN UP ORBITALS
  NO   OCC          E(Eh)            E(eV) 
   0   1.0000     -24.664676      -671.1600 
   1   1.0000     -24.662141      -671.0910 
   2   1.0000     -24.661335      -671.0690 
   3   1.0000     -24.660860      -671.0561 
   4   1.0000     -24.660851      -671.0559 
   5   1.0000     -24.660646      -671.0503 
   6   1.0000     -24.660083      -671.0350 
   7   1.0000     -24.659859      -671.0289 
   8   1.0000     -24.658200      -670.9837 
   9   1.0000     -24.654672      -670.8877 
  10   1.0000     -24.652221      -670.8210 
  11   1.0000     -24.652026      -670.8157 
  12   1.0000     -24.647543      -670.6937 
  13   1.0000     -24.646846      -670.6748 
  14   1.0000     -19.129091      -520.5290 
  15   1.0000     -19.097059      -519.6574 
  16   1.0000     -10.397481      -282.9298 
  17   1.0000     -10.345511      -281.5157 
  18   1.0000     -10.345135      -281.5054 
  19   1.0000     -10.344424      -281.4861 
  20   1.0000     -10.341229      -281.3991 
  21   1.0000     -10.340951      -281.3916 
  22   1.0000     -10.338352      -281.3209 
  23   1.0000     -10.280621      -279.7499 
  24   1.0000      -1.321600       -35.9626 
  25   1.0000      -1.295954       -35.2647 
  26   1.0000      -1.282200       -34.8904 
  27   1.0000      -1.276871       -34.7454 
  28   1.0000      -1.273450       -34.6523 
  29   1.0000      -1.254093       -34.1256 
  30   1.0000      -1.251703       -34.0606 
  31   1.0000      -1.237509       -33.6743 
  32   1.0000      -1.231802       -33.5190 
  33   1.0000      -1.229933       -33.4682 
  34   1.0000      -1.222991       -33.2793 
  35   1.0000      -1.220374       -33.2081 
  36   1.0000      -1.217873       -33.1400 
  37   1.0000      -1.202153       -32.7122 
  38   1.0000      -1.065391       -28.9908 
  39   1.0000      -0.978310       -26.6212 
  40   1.0000      -0.826732       -22.4965 
  41   1.0000      -0.810750       -22.0616 
  42   1.0000      -0.782690       -21.2981 
  43   1.0000      -0.750950       -20.4344 
  44   1.0000      -0.714872       -19.4527 
  45   1.0000      -0.685042       -18.6409 
  46   1.0000      -0.661030       -17.9875 
  47   1.0000      -0.642625       -17.4867 
  48   1.0000      -0.621180       -16.9032 
  49   1.0000      -0.617747       -16.8098 
  50   1.0000      -0.610249       -16.6057 
  51   1.0000      -0.598376       -16.2826 
  52   1.0000      -0.595845       -16.2138 
  53   1.0000      -0.594002       -16.1636 
  54   1.0000      -0.587294       -15.9811 
  55   1.0000      -0.582011       -15.8373 
  56   1.0000      -0.575433       -15.6583 
  57   1.0000      -0.571977       -15.5643 
  58   1.0000      -0.557640       -15.1742 
  59   1.0000      -0.556081       -15.1317 
  60   1.0000      -0.549240       -14.9456 
  61   1.0000      -0.544104       -14.8058 
  62   1.0000      -0.499524       -13.5927 
  63   1.0000      -0.484888       -13.1945 
  64   1.0000      -0.483940       -13.1687 
  65   1.0000      -0.476601       -12.9690 
  66   1.0000      -0.475898       -12.9498 
  67   1.0000      -0.472466       -12.8565 
  68   1.0000      -0.470487       -12.8026 
  69   1.0000      -0.466520       -12.6946 
  70   1.0000      -0.459402       -12.5010 
  71   1.0000      -0.455364       -12.3911 
  72   1.0000      -0.452508       -12.3134 
  73   1.0000      -0.447771       -12.1845 
  74   1.0000      -0.446716       -12.1558 
  75   1.0000      -0.438699       -11.9376 
  76   1.0000      -0.437159       -11.8957 
  77   1.0000      -0.435366       -11.8469 
  78   1.0000      -0.434684       -11.8283 
  79   1.0000      -0.425166       -11.5694 
  80   1.0000      -0.424128       -11.5411 
  81   1.0000      -0.422472       -11.4961 
  82   1.0000      -0.421910       -11.4807 
  83   1.0000      -0.417478       -11.3601 
  84   1.0000      -0.417140       -11.3510 
  85   1.0000      -0.413307       -11.2467 
  86   1.0000      -0.412912       -11.2359 
  87   1.0000      -0.407511       -11.0889 
  88   1.0000      -0.405461       -11.0332 
  89   1.0000      -0.392089       -10.6693 
  90   1.0000      -0.367461        -9.9991 
  91   1.0000      -0.342571        -9.3218 
  92   1.0000      -0.328722        -8.9450 
  93   1.0000      -0.325040        -8.8448 
  94   1.0000      -0.296823        -8.0770 
  95   1.0000      -0.286935        -7.8079 
  96   0.0000      -0.108425        -2.9504 
  97   0.0000      -0.032180        -0.8757 
  98   0.0000      -0.015681        -0.4267 
  99   0.0000       0.000661         0.0180 
 100   0.0000       0.019915         0.5419 
 101   0.0000       0.043549         1.1850 
 102   0.0000       0.058748         1.5986 
 103   0.0000       0.071301         1.9402 
 104   0.0000       0.092643         2.5209 
 105   0.0000       0.095854         2.6083 
 106   0.0000       0.100661         2.7391 

                 SPIN DOWN ORBITALS
  NO   OCC          E(Eh)            E(eV) 
   0   1.0000     -24.662140      -671.0910 
   1   1.0000     -24.661335      -671.0690 
   2   1.0000     -24.660846      -671.0557 
   3   1.0000     -24.660772      -671.0537 
   4   1.0000     -24.660649      -671.0504 
   5   1.0000     -24.660544      -671.0475 
   6   1.0000     -24.660080      -671.0349 
   7   1.0000     -24.659860      -671.0289 
   8   1.0000     -24.656818      -670.9461 
   9   1.0000     -24.654654      -670.8872 
  10   1.0000     -24.652193      -670.8203 
  11   1.0000     -24.650883      -670.7846 
  12   1.0000     -24.647459      -670.6915 
  13   1.0000     -24.646844      -670.6747 
  14   1.0000     -19.129093      -520.5291 
  15   1.0000     -19.097018      -519.6563 
  16   1.0000     -10.397486      -282.9300 
  17   1.0000     -10.345525      -281.5160 
  18   1.0000     -10.345199      -281.5072 
  19   1.0000     -10.344223      -281.4806 
  20   1.0000     -10.341068      -281.3948 
  21   1.0000     -10.340914      -281.3906 
  22   1.0000     -10.338385      -281.3218 
  23   1.0000     -10.264261      -279.3048 
  24   1.0000      -1.321597       -35.9625 
  25   1.0000      -1.295287       -35.2466 
  26   1.0000      -1.280894       -34.8549 
  27   1.0000      -1.276643       -34.7392 
  28   1.0000      -1.272494       -34.6263 
  29   1.0000      -1.253797       -34.1176 
  30   1.0000      -1.244404       -33.8620 
  31   1.0000      -1.237457       -33.6729 
  32   1.0000      -1.231800       -33.5190 
  33   1.0000      -1.229616       -33.4596 
  34   1.0000      -1.222616       -33.2691 
  35   1.0000      -1.219479       -33.1837 
  36   1.0000      -1.216572       -33.1046 
  37   1.0000      -1.202002       -32.7081 
  38   1.0000      -1.065398       -28.9910 
  39   1.0000      -0.978246       -26.6194 
  40   1.0000      -0.822620       -22.3846 
  41   1.0000      -0.804453       -21.8903 
  42   1.0000      -0.780867       -21.2485 
  43   1.0000      -0.745559       -20.2877 
  44   1.0000      -0.713688       -19.4204 
  45   1.0000      -0.682620       -18.5750 
  46   1.0000      -0.660409       -17.9706 
  47   1.0000      -0.638432       -17.3726 
  48   1.0000      -0.620181       -16.8760 
  49   1.0000      -0.617069       -16.7913 
  50   1.0000      -0.610171       -16.6036 
  51   1.0000      -0.597142       -16.2491 
  52   1.0000      -0.594797       -16.1852 
  53   1.0000      -0.590551       -16.0697 
  54   1.0000      -0.586294       -15.9539 
  55   1.0000      -0.581525       -15.8241 
  56   1.0000      -0.572919       -15.5899 
  57   1.0000      -0.570979       -15.5371 
  58   1.0000      -0.555794       -15.1239 
  59   1.0000      -0.553834       -15.0706 
  60   1.0000      -0.546620       -14.8743 
  61   1.0000      -0.542268       -14.7559 
  62   1.0000      -0.485935       -13.2230 
  63   1.0000      -0.483166       -13.1476 
  64   1.0000      -0.479996       -13.0614 
  65   1.0000      -0.476215       -12.9585 
  66   1.0000      -0.472319       -12.8525 
  67   1.0000      -0.471339       -12.8258 
  68   1.0000      -0.467719       -12.7273 
  69   1.0000      -0.466075       -12.6825 
  70   1.0000      -0.458946       -12.4885 
  71   1.0000      -0.453512       -12.3407 
  72   1.0000      -0.450856       -12.2684 
  73   1.0000      -0.446267       -12.1435 
  74   1.0000      -0.444516       -12.0959 
  75   1.0000      -0.437404       -11.9024 
  76   1.0000      -0.435548       -11.8519 
  77   1.0000      -0.434303       -11.8180 
  78   1.0000      -0.431484       -11.7413 
  79   1.0000      -0.424768       -11.5585 
  80   1.0000      -0.423674       -11.5288 
  81   1.0000      -0.420873       -11.4525 
  82   1.0000      -0.420360       -11.4386 
  83   1.0000      -0.417127       -11.3506 
  84   1.0000      -0.416471       -11.3328 
  85   1.0000      -0.413249       -11.2451 
  86   1.0000      -0.412417       -11.2224 
  87   1.0000      -0.407070       -11.0769 
  88   1.0000      -0.404319       -11.0021 
  89   1.0000      -0.390737       -10.6325 
  90   1.0000      -0.365657        -9.9500 
  91   1.0000      -0.341759        -9.2997 
  92   1.0000      -0.326424        -8.8824 
  93   1.0000      -0.324799        -8.8382 
  94   1.0000      -0.296555        -8.0697 
  95   0.0000      -0.147862        -4.0235 
  96   0.0000      -0.107607        -2.9281 
  97   0.0000      -0.028530        -0.7763 
  98   0.0000      -0.013529        -0.3682 
  99   0.0000       0.002475         0.0673 
 100   0.0000       0.022502         0.6123 
 101   0.0000       0.053088         1.4446 
 102   0.0000       0.062528         1.7015 
 103   0.0000       0.074831         2.0363 
 104   0.0000       0.093426         2.5423 
 105   0.0000       0.097073         2.6415 
*Only the first 10 virtual orbitals were printed.

                    ********************************
                    * MULLIKEN POPULATION ANALYSIS *
                    ********************************

--------------------------------------------
MULLIKEN ATOMIC CHARGES AND SPIN POPULATIONS
--------------------------------------------
   0 C :    0.339273   -0.001119
   1 O :   -0.430369   -0.000029
   2 O :   -0.370287    0.001372
   3 C :    0.348216    0.001001
   4 C :    0.359532    0.005006
   5 C :    0.084834    0.851053
   6 C :    0.326568    0.013928
   7 C :    0.279278   -0.007418
   8 C :    0.295819   -0.000336
   9 C :    0.409060   -0.000233
  10 F :   -0.168563    0.000919
  11 F :   -0.170024    0.000037
  12 F :   -0.158836    0.000788
  13 F :   -0.155802    0.024824
  14 F :   -0.139660    0.080236
  15 F :   -0.156448   -0.000058
  16 F :   -0.147268    0.028692
  17 F :   -0.151664    0.001153
  18 F :   -0.151308    0.000233
  19 F :   -0.148114    0.000076
  20 F :   -0.144626   -0.000017
  21 F :   -0.136617    0.000011
  22 F :   -0.132674   -0.000059
  23 F :   -0.133375   -0.000003
  24 H :    0.453052   -0.000057
Sum of atomic charges         :    0.0000000
Sum of atomic spin populations:    1.0000000

-----------------------------------------------------
MULLIKEN REDUCED ORBITAL CHARGES AND SPIN POPULATIONS
-----------------------------------------------------
CHARGE
  0 C s       :     3.175194  s :     3.175194
      pz      :     0.789538  p :     2.252531
      px      :     0.801465
      py      :     0.661528
      dz2     :     0.016514  d :     0.214938
      dxz     :     0.015183
      dyz     :     0.059672
      dx2y2   :     0.054291
      dxy     :     0.069277
      f0      :     0.001778  f :     0.018063
      f+1     :     0.001064
      f-1     :     0.002336
      f+2     :     0.002559
      f-2     :     0.001954
      f+3     :     0.003884
      f-3     :     0.004489

  1 O s       :     3.667482  s :     3.667482
      pz      :     1.717757  p :     4.746131
      px      :     1.685481
      py      :     1.342894
      dz2     :     0.001645  d :     0.013917
      dxz     :     0.001202
      dyz     :     0.003040
      dx2y2   :     0.003129
      dxy     :     0.004902
      f0      :     0.000275  f :     0.002839
      f+1     :     0.000128
      f-1     :     0.000380
      f+2     :     0.000245
      f-2     :     0.000430
      f+3     :     0.000940
      f-3     :     0.000439

  2 O s       :     3.884006  s :     3.884006
      pz      :     1.535109  p :     4.461124
      px      :     1.688791
      py      :     1.237225
      dz2     :     0.003109  d :     0.023841
      dxz     :     0.000326
      dyz     :     0.006309
      dx2y2   :     0.008794
      dxy     :     0.005303
      f0      :     0.000118  f :     0.001315
      f+1     :     0.000012
      f-1     :     0.000225
      f+2     :     0.000229
      f-2     :     0.000030
      f+3     :     0.000297
      f-3     :     0.000404

  3 C s       :     3.093413  s :     3.093413
      pz      :     0.684913  p :     2.260954
      px      :     0.924264
      py      :     0.651777
      dz2     :     0.048113  d :     0.271822
      dxz     :     0.054521
      dyz     :     0.066929
      dx2y2   :     0.047007
      dxy     :     0.055252
      f0      :     0.005357  f :     0.025596
      f+1     :     0.003622
      f-1     :     0.003947
      f+2     :     0.003651
      f-2     :     0.002098
      f+3     :     0.003861
      f-3     :     0.003059

  4 C s       :     3.077256  s :     3.077256
      pz      :     0.604888  p :     2.233651
      px      :     0.933296
      py      :     0.695467
      dz2     :     0.062254  d :     0.301630
      dxz     :     0.066720
      dyz     :     0.071454
      dx2y2   :     0.037826
      dxy     :     0.063376
      f0      :     0.003730  f :     0.027930
      f+1     :     0.004904
      f-1     :     0.007999
      f+2     :     0.002411
      f-2     :     0.002826
      f+3     :     0.003584
      f-3     :     0.002476

  5 C s       :     3.327675  s :     3.327675
      pz      :     0.834806  p :     2.418970
      px      :     0.898041
      py      :     0.686123
      dz2     :     0.035788  d :     0.152603
      dxz     :     0.022040
      dyz     :     0.021756
      dx2y2   :     0.027540
      dxy     :     0.045479
      f0      :     0.001800  f :     0.015917
      f+1     :     0.001456
      f-1     :     0.003393
      f+2     :     0.001757
      f-2     :     0.003239
      f+3     :     0.002312
      f-3     :     0.001960

  6 C s       :     3.114317  s :     3.114317
      pz      :     0.586319  p :     2.226254
      px      :     0.916466
      py      :     0.723469
      dz2     :     0.079996  d :     0.304657
      dxz     :     0.067131
      dyz     :     0.058720
      dx2y2   :     0.036183
      dxy     :     0.062627
      f0      :     0.006399  f :     0.028205
      f+1     :     0.003908
      f-1     :     0.004245
      f+2     :     0.004223
      f-2     :     0.005320
      f+3     :     0.002148
      f-3     :     0.001962

  7 C s       :     3.132170  s :     3.132170
      pz      :     0.597693  p :     2.259927
      px      :     0.937080
      py      :     0.725155
      dz2     :     0.076232  d :     0.300432
      dxz     :     0.064039
      dyz     :     0.062664
      dx2y2   :     0.035447
      dxy     :     0.062049
      f0      :     0.004847  f :     0.028193
      f+1     :     0.004443
      f-1     :     0.006471
      f+2     :     0.003210
      f-2     :     0.004321
      f+3     :     0.002735
      f-3     :     0.002166

  8 C s       :     3.104447  s :     3.104447
      pz      :     0.630623  p :     2.276554
      px      :     0.943221
      py      :     0.702710
      dz2     :     0.060638  d :     0.294958
      dxz     :     0.062795
      dyz     :     0.073720
      dx2y2   :     0.036713
      dxy     :     0.061092
      f0      :     0.003601  f :     0.028223
      f+1     :     0.005049
      f-1     :     0.008344
      f+2     :     0.002417
      f-2     :     0.002479
      f+3     :     0.003865
      f-3     :     0.002469

  9 C s       :     3.022650  s :     3.022650
      pz      :     0.666326  p :     2.166972
      px      :     0.821946
      py      :     0.678700
      dz2     :     0.067633  d :     0.361202
      dxz     :     0.071128
      dyz     :     0.088069
      dx2y2   :     0.065144
      dxy     :     0.069228
      f0      :     0.004463  f :     0.040116
      f+1     :     0.008025
      f-1     :     0.008951
      f+2     :     0.004502
      f-2     :     0.003175
      f+3     :     0.007534
      f-3     :     0.003465

 10 F s       :     3.922552  s :     3.922552
      pz      :     1.891866  p :     5.230889
      px      :     1.882501
      py      :     1.456522
      dz2     :     0.002043  d :     0.014489
      dxz     :     0.000270
      dyz     :     0.002777
      dx2y2   :     0.005519
      dxy     :     0.003881
      f0      :     0.000049  f :     0.000632
      f+1     :     0.000015
      f-1     :     0.000127
      f+2     :     0.000071
      f-2     :     0.000018
      f+3     :     0.000169
      f-3     :     0.000184

 11 F s       :     3.921874  s :     3.921874
      pz      :     1.470575  p :     5.233506
      px      :     1.899153
      py      :     1.863778
      dz2     :     0.006340  d :     0.014022
      dxz     :     0.003316
      dyz     :     0.003515
      dx2y2   :     0.000416
      dxy     :     0.000434
      f0      :     0.000224  f :     0.000622
      f+1     :     0.000136
      f-1     :     0.000181
      f+2     :     0.000037
      f-2     :     0.000038
      f+3     :     0.000003
      f-3     :     0.000003

 12 F s       :     3.918368  s :     3.918368
      pz      :     1.807219  p :     5.224127
      px      :     1.900398
      py      :     1.516510
      dz2     :     0.001971  d :     0.015643
      dxz     :     0.000786
      dyz     :     0.005068
      dx2y2   :     0.004634
      dxy     :     0.003184
      f0      :     0.000080  f :     0.000698
      f+1     :     0.000004
      f-1     :     0.000121
      f+2     :     0.000188
      f-2     :     0.000064
      f+3     :     0.000107
      f-3     :     0.000136

 13 F s       :     3.920647  s :     3.920647
      pz      :     1.444378  p :     5.219037
      px      :     1.899466
      py      :     1.875193
      dz2     :     0.007930  d :     0.015433
      dxz     :     0.003567
      dyz     :     0.003377
      dx2y2   :     0.000278
      dxy     :     0.000280
      f0      :     0.000341  f :     0.000685
      f+1     :     0.000152
      f-1     :     0.000162
      f+2     :     0.000011
      f-2     :     0.000017
      f+3     :     0.000001
      f-3     :     0.000001

 14 F s       :     3.923158  s :     3.923158
      pz      :     1.664481  p :     5.199741
      px      :     1.905251
      py      :     1.630009
      dz2     :     0.003295  d :     0.016084
      dxz     :     0.001465
      dyz     :     0.005869
      dx2y2   :     0.003083
      dxy     :     0.002372
      f0      :     0.000073  f :     0.000676
      f+1     :     0.000011
      f-1     :     0.000192
      f+2     :     0.000184
      f-2     :     0.000095
      f+3     :     0.000056
      f-3     :     0.000066

 15 F s       :     3.918463  s :     3.918463
      pz      :     1.586044  p :     5.221592
      px      :     1.900212
      py      :     1.735336
      dz2     :     0.004342  d :     0.015697
      dxz     :     0.002455
      dyz     :     0.005937
      dx2y2   :     0.001459
      dxy     :     0.001503
      f0      :     0.000117  f :     0.000697
      f+1     :     0.000055
      f-1     :     0.000265
      f+2     :     0.000125
      f-2     :     0.000097
      f+3     :     0.000020
      f-3     :     0.000018

 16 F s       :     3.918385  s :     3.918385
      pz      :     1.598470  p :     5.212419
      px      :     1.894322
      py      :     1.719627
      dz2     :     0.004088  d :     0.015766
      dxz     :     0.002405
      dyz     :     0.006066
      dx2y2   :     0.001587
      dxy     :     0.001620
      f0      :     0.000110  f :     0.000698
      f+1     :     0.000049
      f-1     :     0.000258
      f+2     :     0.000135
      f-2     :     0.000101
      f+3     :     0.000023
      f-3     :     0.000021

 17 F s       :     3.919673  s :     3.919673
      pz      :     1.711476  p :     5.215416
      px      :     1.900700
      py      :     1.603239
      dz2     :     0.002468  d :     0.015870
      dxz     :     0.001452
      dyz     :     0.006225
      dx2y2   :     0.003201
      dxy     :     0.002524
      f0      :     0.000078  f :     0.000705
      f+1     :     0.000010
      f-1     :     0.000181
      f+2     :     0.000203
      f-2     :     0.000098
      f+3     :     0.000063
      f-3     :     0.000071

 18 F s       :     3.918952  s :     3.918952
      pz      :     1.487858  p :     5.215780
      px      :     1.900244
      py      :     1.827678
      dz2     :     0.006692  d :     0.015875
      dxz     :     0.003320
      dyz     :     0.004608
      dx2y2   :     0.000567
      dxy     :     0.000688
      f0      :     0.000246  f :     0.000701
      f+1     :     0.000115
      f-1     :     0.000234
      f+2     :     0.000046
      f-2     :     0.000054
      f+3     :     0.000004
      f-3     :     0.000003

 19 F s       :     3.918588  s :     3.918588
      pz      :     1.814003  p :     5.213015
      px      :     1.897616
      py      :     1.501396
      dz2     :     0.002002  d :     0.015811
      dxz     :     0.000642
      dyz     :     0.004909
      dx2y2   :     0.004912
      dxy     :     0.003345
      f0      :     0.000079  f :     0.000700
      f+1     :     0.000004
      f-1     :     0.000119
      f+2     :     0.000182
      f-2     :     0.000055
      f+3     :     0.000114
      f-3     :     0.000147

 20 F s       :     3.916005  s :     3.916005
      pz      :     1.435121  p :     5.211917
      px      :     1.897454
      py      :     1.879342
      dz2     :     0.008352  d :     0.015986
      dxz     :     0.003833
      dyz     :     0.003386
      dx2y2   :     0.000205
      dxy     :     0.000210
      f0      :     0.000365  f :     0.000717
      f+1     :     0.000168
      f-1     :     0.000160
      f+2     :     0.000009
      f-2     :     0.000013
      f+3     :     0.000001
      f-3     :     0.000001

 21 F s       :     3.913340  s :     3.913340
      pz      :     1.854177  p :     5.206487
      px      :     1.888267
[...]
      pz      :     0.000415  p :     0.002835
      px      :    -0.000638
      py      :     0.003057
      dz2     :     0.000002  d :    -0.000090
      dxz     :    -0.000081
      dyz     :    -0.000031
      dx2y2   :     0.000032
      dxy     :    -0.000012
      f0      :    -0.000001  f :    -0.000008
      f+1     :    -0.000001
      f-1     :    -0.000002
      f+2     :    -0.000001
      f-2     :    -0.000004
      f+3     :    -0.000000
      f-3     :     0.000001

 16 F s       :     0.002073  s :     0.002073
      pz      :     0.001942  p :     0.025464
      px      :     0.014529
      py      :     0.008993
      dz2     :    -0.000050  d :     0.000027
      dxz     :    -0.000057
      dyz     :     0.000069
      dx2y2   :     0.000017
      dxy     :     0.000049
      f0      :     0.000001  f :    -0.000003
      f+1     :    -0.000001
      f-1     :    -0.000003
      f+2     :    -0.000001
      f-2     :     0.000001
      f+3     :    -0.000000
      f-3     :     0.000001

 17 F s       :     0.000375  s :     0.000375
      pz      :     0.000143  p :     0.000718
      px      :     0.000587
      py      :    -0.000012
      dz2     :     0.000026  d :     0.000184
      dxz     :     0.000010
      dyz     :    -0.000001
      dx2y2   :     0.000147
      dxy     :     0.000003
      f0      :     0.000000  f :     0.000008
      f+1     :     0.000000
      f-1     :     0.000000
      f+2     :     0.000003
      f-2     :     0.000000
      f+3     :     0.000000
      f-3     :     0.000004

 18 F s       :     0.000090  s :     0.000090
      pz      :     0.000139  p :     0.002340
      px      :     0.000921
      py      :     0.001279
      dz2     :     0.000092  d :     0.000178
      dxz     :     0.000034
      dyz     :     0.000017
      dx2y2   :    -0.000001
      dxy     :     0.000034
      f0      :     0.000005  f :     0.000009
      f+1     :    -0.000000
      f-1     :     0.000000
      f+2     :    -0.000000
      f-2     :     0.000003
      f+3     :     0.000001
      f-3     :     0.000000

 19 F s       :     0.000030  s :     0.000030
      pz      :    -0.000003  p :    -0.000055
      px      :    -0.000034
      py      :    -0.000019
      dz2     :     0.000001  d :     0.000010
      dxz     :     0.000004
      dyz     :     0.000006
      dx2y2   :     0.000001
      dxy     :    -0.000003
      f0      :     0.000000  f :     0.000001
      f+1     :     0.000000
      f-1     :     0.000000
      f+2     :     0.000000
      f-2     :     0.000000
      f+3     :     0.000000
      f-3     :     0.000000

 20 F s       :     0.000005  s :     0.000005
      pz      :    -0.000056  p :     0.000187
      px      :     0.000090
      py      :     0.000153
      dz2     :     0.000005  d :     0.000022
      dxz     :     0.000001
      dyz     :     0.000007
      dx2y2   :     0.000008
      dxy     :    -0.000000
      f0      :     0.000000  f :     0.000001
      f+1     :     0.000000
      f-1     :     0.000000
      f+2     :     0.000001
      f-2     :    -0.000000
      f+3     :     0.000000
      f-3     :     0.000000

 21 F s       :    -0.000001  s :    -0.000001
      pz      :     0.000003  p :    -0.000019
      px      :     0.000010
      py      :    -0.000031
      dz2     :     0.000000  d :     0.000005
      dxz     :     0.000000
      dyz     :     0.000000
      dx2y2   :     0.000004
      dxy     :     0.000000
      f0      :     0.000000  f :     0.000000
      f+1     :    -0.000000
      f-1     :     0.000000
      f+2     :     0.000000
      f-2     :    -0.000000
      f+3     :     0.000000
      f-3     :     0.000000

 22 F s       :     0.000021  s :     0.000021
      pz      :     0.000052  p :     0.000339
      px      :     0.000253
      py      :     0.000034
      dz2     :     0.000000  d :     0.000014
      dxz     :     0.000006
      dyz     :     0.000001
      dx2y2   :     0.000006
      dxy     :     0.000000
      f0      :     0.000000  f :     0.000001
      f+1     :     0.000000
      f-1     :     0.000000
      f+2     :     0.000000
      f-2     :    -0.000000
      f+3     :     0.000000
      f-3     :     0.000000

 23 F s       :     0.000006  s :     0.000006
      pz      :    -0.000012  p :     0.000048
      px      :     0.000021
      py      :     0.000039
      dz2     :     0.000000  d :     0.000006
      dxz     :     0.000002
      dyz     :     0.000003
      dx2y2   :     0.000000
      dxy     :     0.000001
      f0      :     0.000000  f :     0.000000
      f+1     :     0.000000
      f-1     :     0.000000
      f+2     :     0.000000
      f-2     :     0.000000
      f+3     :    -0.000000
      f-3     :     0.000000

 24 H s       :     0.000150  s :     0.000150
      pz      :     0.000040  p :     0.000046
      px      :     0.000012
      py      :    -0.000006



                      *****************************
                      * MAYER POPULATION ANALYSIS *
                      *****************************

  NA   - Mulliken gross atomic population
  ZA   - Total nuclear charge
  QA   - Mulliken gross atomic charge
  VA   - Mayer's total valence
  BVA  - Mayer's bonded valence
  FA   - Mayer's free valence

  ATOM       NA         ZA         QA         VA         BVA        FA
  0 C      5.7798     6.0000     0.2202     4.4124     4.4123     0.0000
  1 O      8.3422     8.0000    -0.3422     2.1931     2.1931     0.0000
  2 O      8.2888     8.0000    -0.2888     2.2099     2.2098     0.0001
  3 C      5.6297     6.0000     0.3703     4.0978     4.0969     0.0009
  4 C      5.6767     6.0000     0.3233     4.2548     4.2520     0.0028
  5 C      5.8921     6.0000     0.1079     3.9812     3.3978     0.5835
  6 C      5.6689     6.0000     0.3311     4.2971     4.2941     0.0030
  7 C      5.7221     6.0000     0.2779     4.1458     4.1455     0.0003
  8 C      5.7049     6.0000     0.2951     4.2346     4.2346     0.0000
  9 C      5.5900     6.0000     0.4100     4.5638     4.5638     0.0000
 10 F      9.1676     9.0000    -0.1676     1.1493     1.1493     0.0000
 11 F      9.1646     9.0000    -0.1646     1.1633     1.1633     0.0000
 12 F      9.1568     9.0000    -0.1568     1.1627     1.1626     0.0001
 13 F      9.1587     9.0000    -0.1587     1.1649     1.1648     0.0001
 14 F      9.1265     9.0000    -0.1265     1.2242     1.2128     0.0114
 15 F      9.1559     9.0000    -0.1559     1.1661     1.1661     0.0000
 16 F      9.1574     9.0000    -0.1574     1.1551     1.1543     0.0008
 17 F      9.1551     9.0000    -0.1551     1.1751     1.1751     0.0000
 18 F      9.1505     9.0000    -0.1505     1.1779     1.1779     0.0000
 19 F      9.1464     9.0000    -0.1464     1.1808     1.1808     0.0000
 20 F      9.1443     9.0000    -0.1443     1.1813     1.1813     0.0000
 21 F      9.1361     9.0000    -0.1361     1.1887     1.1887     0.0000
 22 F      9.1328     9.0000    -0.1328     1.1920     1.1920     0.0000
 23 F      9.1333     9.0000    -0.1333     1.1922     1.1922     0.0000
 24 H      0.6186     1.0000     0.3814     0.8798     0.8798     0.0000

  Mayer bond orders larger than 0.100000
B(  0-C ,  1-O ) :   1.3135 B(  0-C ,  2-O ) :   2.0706 B(  0-C ,  3-C ) :   0.9090 
B(  1-O , 24-H ) :   0.8207 B(  3-C ,  4-C ) :   0.9342 B(  3-C , 10-F ) :   1.0775 
B(  3-C , 11-F ) :   1.1005 B(  4-C ,  5-C ) :   1.0279 B(  4-C , 12-F ) :   1.1038 
B(  4-C , 13-F ) :   1.0832 B(  5-C ,  6-C ) :   1.0678 B(  5-C , 14-F ) :   1.1409 
B(  6-C ,  7-C ) :   0.9311 B(  6-C , 15-F ) :   1.0805 B(  6-C , 16-F ) :   1.0821 
B(  7-C ,  8-C ) :   0.9287 B(  7-C , 17-F ) :   1.0857 B(  7-C , 18-F ) :   1.0983 
B(  8-C ,  9-C ) :   0.9666 B(  8-C , 19-F ) :   1.1009 B(  8-C , 20-F ) :   1.1133 
B(  9-C , 21-F ) :   1.1581 B(  9-C , 22-F ) :   1.1621 B(  9-C , 23-F ) :   1.1703 


-------
TIMINGS
-------

Total SCF time: 0 days 0 hours 0 min 39 sec 

Total time                  ....      39.803 sec
Sum of individual times     ....      38.676 sec  ( 97.2%)

SCF preparation             ....       1.353 sec  (  3.4%)
Fock matrix formation       ....      32.944 sec  ( 82.8%)
  Startup                   ....       0.159 sec  (  0.5% of F)
  Split-RI-J                ....       2.059 sec  (  6.3% of F)
  Chain of spheres X        ....      21.216 sec  ( 64.4% of F)
  XC integration            ....       7.356 sec  ( 22.3% of F)
    XC Preparation          ....       0.000 sec  (  0.0% of XC)
    Basis function eval.    ....       0.472 sec  (  6.4% of XC)
    Density eval.           ....       2.227 sec  ( 30.3% of XC)
    XC-Functional eval.     ....       0.092 sec  (  1.2% of XC)
    XC-Potential eval.      ....       2.221 sec  ( 30.2% of XC)
  CPCM terms                ....       1.704 sec  (  5.2% of F)
Diagonalization             ....       0.000 sec  (  0.0%)
Density matrix formation    ....       0.474 sec  (  1.2%)
Total Energy calculation    ....       0.304 sec  (  0.8%)
Population analysis         ....       0.449 sec  (  1.1%)
Orbital Transformation      ....       0.401 sec  (  1.0%)
Orbital Orthonormalization  ....       0.000 sec  (  0.0%)
DIIS solution               ....       0.535 sec  (  1.3%)
SOSCF solution              ....       2.215 sec  (  5.6%)
Finished LeanSCF after  40.2 sec

Maximum memory used throughout the entire LEANSCF-calculation: 110.5 MB


-------------------------------------------------------------------------------
                          DFT DISPERSION CORRECTION                            
                                                                               
                              DFTD3 V3.1  Rev 1                                
                          USING Becke-Johnson damping                          
-------------------------------------------------------------------------------
The TPSSH functional is recognized
Active option DFTDOPT                   ...         4   

molecular C6(AA) [au] = 6515.032826 


            DFT-D V3
 parameters
 s6 scaling factor         :     1.0000 
 a1 scaling factor         :     0.4529 
 s8 scaling factor         :     2.2382 
 a2 scaling factor         :     4.6550 
 ad hoc parameters k1-k3   :    16.0000     1.3333    -4.0000 

 Edisp/kcal,au: -18.848680156460  -0.030037280591 
 E6   /kcal   :  -9.143593620 
 E8   /kcal   :  -9.705086536 
 % E8         :  51.489475419 

-------------------------   ----------------
Dispersion correction           -0.030037281
-------------------------   ----------------


-------------------------   --------------------
FINAL SINGLE POINT ENERGY     -1854.409882360565
-------------------------   --------------------

                                *** OPTIMIZATION RUN DONE ***



           ************************************************************
           *        Program running with 20 parallel MPI-processes    *
           *              working on a common directory               *
           ************************************************************

------------------------------------------------------------------------------
                              ORCA PROPERTY CALCULATIONS
------------------------------------------------------------------------------

GBWName                                 ... rf_mecn_opt_TP_C4_P_B.gbw
Number of atoms                         ...     25
Number of basis functions               ...    750
Max core memory                         ...   8000 MB

Electric properties:
Dipole moment                           ... YES
Quadrupole moment                       ...  NO
Static polarizability (Dipole/Dipole)   ...  NO
Static polarizability (Dipole/Quad.)    ...  NO
Static polarizability (Quad./Quad.)     ...  NO
Static polarizability (Velocity)        ...  NO

Atomic electric properties:
Dipole moment                           ...  NO
Quadrupole moment                       ...  NO
Static polarizability                   ...  NO

Choice of electric origin               ... Center of mass
Position of electric origin             ...    -0.155637    -0.037492    -0.234275

General magnetic properties:
Magnetizability                         ...  NO

EPR properties:
g-Tensor (aka g-matrix)                 ...  NO
Zero-Field splitting spin-orbit         ...  NO
Zero-field splitting spin-spin          ...  NO
Hyperfine couplings                     ...  NO (   0 nuclei)
Quadrupole couplings                    ...  NO (   0 nuclei)
Contact density                         ...  NO (   0 nuclei)

NMR properties:
Chemical shifts                         ...  NO (   0 nuclei)
Spin-rotation constants                 ...  NO (   0 nuclei)
Spin-spin couplings                     ...  NO (   0 nuclei,    0 pairs)

Choice of magnetic origin               ... GIAO
Position of magnetic origin             ...     0.000000     0.000000     0.000000

Properties with geometric perturbations:
SCF Hessian                             ...  NO
IR spectrum                             ...  NO
VCD spectrum                            ...  NO
X-ray spectroscopy properties:
SCF XES/XAS/RIXS spectra                ...  NO


-------------
DIPOLE MOMENT
-------------

Method             : SCF
Type of density    : Electron Density
Multiplicity       :   2
Irrep              :   0
Energy             : -1854.3798450799743023 Eh
Relativity type    : 
Basis              : AO
                                X                 Y                 Z
Electronic contribution:    -14.125765295       0.701628198      -1.690538203
Nuclear contribution   :     15.164789799      -1.278021225       1.202109115
                        -----------------------------------------
Total Dipole Moment    :      1.039024505      -0.576393027      -0.488429088
                        -----------------------------------------
Magnitude (a.u.)       :      1.284664866
Magnitude (Debye)      :      3.265358586



--------------------
Rotational spectrum 
--------------------
 
Rotational constants in cm-1:             0.018035             0.004417             0.004285 
Rotational constants in MHz :           540.661853           132.406242           128.447970 

Dipole components along the rotational axes: 
x,y,z [a.u.] :     1.084869    -0.261062    -0.636609 
x,y,z [Debye]:     2.757517    -0.663566    -1.618131 

 

Dipole moment calculation done in   0.1 sec 

Maximum memory used throughout the entire PROP-calculation: 57.9 MB

--------------------------------
SUGGESTED CITATIONS FOR THIS RUN
--------------------------------

Below you find a list of papers that are relevant to this ORCA run
We neither can nor want to force you to cite these papers, but we appreciate if you do
You receive ORCA, which is the product of decades of hard work by many enthusiastic individuals, for free
The only thing we kindly ask in return is that you cite our papers,
We deeply appreciate it, if you show your appreciation for ORCA by not just citing the generic ORCA reference.

Please note that relegating all ORCA citations to the supporting information does *not* help us.
SI sections are not indexed - citations you put there will not count into any citation statistics
But we need these citations in order to attract the funding resources that allow us to do what we are doing

Therefore, if you are a happy ORCA user, please consider citing a few of the papers listed below in the main body of your paper

In addition to the list printed below, the program has created the file rf_mecn_opt_TP_C4_P_B.bibtex that contains the list in bibtex format
You can import this file easily into all common literature databanks and citation aid programs


List of essential papers. We consider these as the minimum necessary citations

  1. Neese,F.
     Software update: the ORCA program system, version 5.0
     WIRES Comput. Molec. Sci., 2022 12(1)e1606
     doi.org/10.1002/wcms.1606

List of papers to cite with high priority. The work reported in these papers was absolutely
necessary for this run to complete.
Our perspective: the developers of density functionals and basis sets usually get cited in chemistry papers
Good! But without the algorithms to do something with them, the functionals or basis sets would not do anything.
Hence, in our opinion, the algorithm design and method developments papers are equally worthy of getting cited

  1. Neese,F.
     An improvement of the resolution of the identity approximation for the formation of the Coulomb matrix
     J. Comp. Chem., 2003 24(14)1740-1747
     doi.org/10.1002/jcc.10318
  2. Neese,F.; Wennmohs,F.; Hansen,A.; Becker,U.
     Efficient, approximate and parallel Hartree-Fock and hybrid DFT calculations. A 'chain-of-spheres' algorithm for the Hartree-Fock exchange
     Chem. Phys., 2009 356(1-3)98-109
     doi.org/10.1016/j.chemphys.2008.10.036
  3. Garcia-Rates,M.; Neese,F.
     Effect of the Solute Cavity on the Solvation Energy and its Derivatives within the Framework of the Gaussian Charge Scheme
     J. Comput. Chem., 2020 41 922-939
     doi.org/10.1002/jcc.26139
  4. Helmich-Paris,B.; de Souza,B.; Neese,F.; Izsák,R.
     An improved chain of spheres for exchange algorithm
     J. Chem. Phys., 2021 155 104109
     doi.org/doi: 10.1063/5.0058766.
  5. Neese,F.
     The SHARK Integral Generation and Digestion System
     J. Comp. Chem., 2022  1-16
     doi.org/10.1002/jcc.26942
  6. Grimme,S.; Antony,J.; Ehrlich,S.; Krieg,H.
     A consistent and accurate ab initio parametrization of density functional dispersion correction (DFT-D) for the 94 elements H-Pu
     J. Chem. Phys., 2010 132 154104
     doi.org/10.1063/1.3382344
  7. Grimme,S.; Ehrlich,S.; Goerigk,L.
     Effect of the damping function in dispersion corrected density functional theory
     J. Comput. Chem., 2011 32(7)1456-1465
     doi.org/10.1002/jcc.21759

List of suggested additional citations. These are papers that are important in the 'surrounding' of 
of this run, or papers that preceded the highly important papers. If you like your results we are grateful for a citation.

  1. Izsak,R.; Neese,F.
     An overlap fitted chain of spheres exchange method
     J. Chem. Phys., 2011 135 144105
     doi.org/10.1063/1.3646921
  2. Izsak,R.; Hansen,A.; Neese,F.
     The resolution of identity and chain of spheres approximations for the LPNO-CCSD singles Fock term
     Molec. Phys., 2012 110 2413-2417
     doi.org/10.1080/00268976.2012.687466
  3. Neese,F.
     The ORCA program system
     WIRES Comput. Molec. Sci., 2012 2(1)73-78
     doi.org/10.1002/wcms.81
  4. Izsak,R.; Neese,F.; Klopper,W.
     Robust fitting techniques in the chain of spheres approximation to the Fock exchange: The role of the complementary space
     J. Chem. Phys., 2013 139 
     doi.org/10.1063/1.4819264
  5. Neese,F.
     Software update: the ORCA program system, version 4.0
     WIRES Comput. Molec. Sci., 2018 8(1)1-6
     doi.org/10.1002/wcms.1327
  6. Neese,F.; Wennmohs,F.; Becker,U.; Riplinger,C.
     The ORCA quantum chemistry program package
     J. Chem. Phys., 2020 152 Art. No. L224108
     doi.org/10.1063/5.0004608

List of optional additional citations

  1. Neese,F.
     Approximate second-order SCF convergence for spin unrestricted wavefunctions
     Chem. Phys. Lett., 2000 325(1-3)93-98
     doi.org/10.1016/s0009-2614(00)00662-x

Timings for individual modules:

Sum of individual times          ...     4087.927 sec (=  68.132 min)
Startup calculation              ...      194.710 sec (=   3.245 min)   4.8 %
SCF iterations                   ...     2947.278 sec (=  49.121 min)  72.1 %
Property calculations            ...        0.854 sec (=   0.014 min)   0.0 %
SCF Gradient evaluation          ...      944.146 sec (=  15.736 min)  23.1 %
Geometry relaxation              ...        0.938 sec (=   0.016 min)   0.0 %
                             ****ORCA TERMINATED NORMALLY****
TOTAL RUN TIME: 0 days 1 hours 8 minutes 40 seconds 348 msec
