
                                 *****************
                                 * O   R   C   A *
                                 *****************

                                            #,                                       
                                            ###                                      
                                            ####                                     
                                            #####                                    
                                            ######                                   
                                           ########,                                 
                                     ,,################,,,,,                         
                               ,,#################################,,                 
                          ,,##########################################,,             
                       ,#########################################, ''#####,          
                    ,#############################################,,   '####,        
                  ,##################################################,,,,####,       
                ,###########''''           ''''###############################       
              ,#####''   ,,,,##########,,,,          '''####'''          '####       
            ,##' ,,,,###########################,,,                        '##       
           ' ,,###''''                  '''############,,,                           
         ,,##''                                '''############,,,,        ,,,,,,###''
      ,#''                                            '''#######################'''  
     '                                                          ''''####''''         
             ,#######,   #######,   ,#######,      ##                                
            ,#'     '#,  ##    ##  ,#'     '#,    #''#        ,####,   ,####,        
            ##       ##  ##   ,#'  ##            #'  '#       #'       #'  '#        
            ##       ##  #######   ##           ,######,      #####,   #    #        
            '#,     ,#'  ##    ##  '#,     ,#' ,#      #,     #,   #   #,  ,#        
             '#######'   ##     ##  '#######'  #'      '#     '####' # '####'        



                #########################################################
                #                        -***-                          #
                #          Department of theory and spectroscopy        #
                #                                                       #
                #                      Frank Neese                      #
                #                                                       #
                #     Directorship, Architecture, Infrastructure        #
                #                    SHARK, DRIVERS                     #
                #        Core code/Algorithms in most modules           #
                #                                                       #
                #        Max Planck Institute fuer Kohlenforschung      #
                #                Kaiser Wilhelm Platz 1                 #
                #                 D-45470 Muelheim/Ruhr                 #
                #                      Germany                          #
                #                                                       #
                #                  All rights reserved                  #
                #                        -***-                          #
                #########################################################


                         Program Version 6.0.1  -  RELEASE   -


 With contributions from (in alphabetic order):
[Max-Planck-Institut fuer Kohlenforschung]                               
  Daniel Aravena         : Magnetic Suceptibility                        
  Michael Atanasov       : Ab Initio Ligand Field Theory (pilot matlab implementation)
  Alexander A. Auer      : GIAO ZORA, VPT2 properties, NMR spectrum      
  Ute Becker             : All parallelization in ORCA, NUMFREQ, NUMCALC 
  Giovanni Bistoni       : ED, misc. LED, open-shell LED, HFLD           
  Martin Brehm           : Molecular dynamics                            
  Dmytro Bykov           : pre 5.0 version of the SCF Hessian            
  Marcos Casanova-Páez   : Triplet and SCS-CIS(D). UHF-(DLPNO)-IP/EA/STEOM-CCSD. UHF-CVS-IP/STEOM-CCSD   
  Vijay G. Chilkuri      : MRCI spin determinant printing, contributions to CSF-ICE 
  Pauline Colinet        : FMM embedding                                 
  Dipayan Datta          : RHF DLPNO-CCSD density                        
  Achintya Kumar Dutta   : EOM-CC, STEOM-CC                              
  Nicolas Foglia         : Exact transition moments, OPA infrastructure, MCD improvements    
  Dmitry Ganyushin       : Spin-Orbit,Spin-Spin,Magnetic field MRCI      
  Miquel Garcia-Rates    : C-PCM and meta-GGA Hessian, CCSD/C-PCM, Gaussian charge scheme 
  Tiago L. C. Gouveia    : GS-ROHF, GS-ROCIS                             
  Yang Guo               : DLPNO-NEVPT2, F12-NEVPT2, CIM, IAO-localization        
  Andreas Hansen         : Spin unrestricted coupled pair/coupled cluster methods 
  Ingolf Harden          : AUTO-CI MPn and infrastructure                
  Benjamin Helmich-Paris : MC-RPA, TRAH-(SCF,CASSCF), AVAS, COSX integrals, SCF dyn. polar. 
  Lee Huntington         : MR-EOM, pCC                                   
  Robert Izsak           : Overlap fitted RIJCOSX, COSX-SCS-MP3, EOM     
  Riya Kayal             : Wick's Theorem for AUTO-CI, AUTO-CI UHF-CCSDT 
  Emily Kempfer          : AUTO-CI, RHF CISDT and CCSDT                  
  Christian Kollmar      : KDIIS, OOCD, Brueckner-CCSD(T), CCSD density, CASPT2, CASPT2-K, improved NEVPT2 
  Axel Koslowski         : Symmetry handling                             
  Simone Kossmann        : meta-GGA functionals, TD-DFT gradient, OOMP2, (MP2 Hessian; deprecated post 5.0) 
  Lucas Lang             : DCDCAS                                        
  Marvin Lechner         : AUTO-CI (C++ implementation), FIC-MRCC        
  Spencer Leger          : CASSCF response                               
  Dagmar Lenk            : GEPOL surface, SMD, ORCA-2-JSON               
  Dimitrios Liakos       : Extrapolation schemes; Compound Job, initial MDCI parallelization 
  Dimitrios Manganas     : Further ROCIS development; embedding schemes. LFT, Crystal Embedding 
  Dimitrios Pantazis     : SARC Basis sets                               
  Anastasios Papadopoulos: AUTO-CI, single reference methods and gradients 
  Taras Petrenko         : pre 6.0 DFT Hessian and TD-DFT gradient, (ASA, deprecated), ECA, 1-Electron XAS/XES, NRVS 
  Peter Pinski           : DLPNO-MP2, DLPNO-MP2 Gradient                 
  Christoph Reimann      : Effective Core Potentials                     
  Marius Retegan         : Local ZFS, SOC                                
  Christoph Riplinger    : Optimizer, TS searches, QM/MM, DLPNO-CCSD(T), (RO)-DLPNO pert. Triples 
  Michael Roemelt        : Original ROCIS implementation                 
  Masaaki Saitow         : Open-shell DLPNO-CCSD energy and density      
  Barbara Sandhoefer     : DKH picture change effects                    
  Kantharuban Sivalingam : CASSCF convergence/infrastructure, NEVPT2 and variants, FIC-MRCI 
  Bernardo de Souza      : ESD, SOC TD-DFT                               
  Georgi L. Stoychev     : AutoAux, RI-MP2 NMR, DLPNO-MP2 response, X2C  
  Van Anh Tran           : RI-MP2 g-tensors                              
  Willem Van den Heuvel  : Paramagnetic NMR                              
  Zikuan Wang            : NOTCH, Electric field optimization            
  Frank Wennmohs         : Technical directorship and infrastructure     
  Hang Xu                : AUTO-CI-Response properties                   
                                                                         
[FACCTs GmbH]                                                            
  Markus Bursch, Miquel Garcia-Rates, Christoph Riplinger, Bernardo de Souza, Georgi L. Stoychev 
                                                                 
  APM, Basis sets (HGBS, AHGBS, def-TZVP (Ac-Lr), def2-XVPD (La-Lu)), CI-OPT, improved COSX, DLPNO-Multilevel,           
  DOCKER, DRACO, updates on ESD, GOAT, IRC, LR-CPCM, MBIS, meta-GGA TD-DFT gradient, ML-optimized integration grids, 
  MM, NACMEs, nearIR, NEB, NEB-TS, NL-DFT gradient (VV10), 2- and 3-layer-ONIOM, interface openCOSMO-RS, QMMM,   
  Crystal-QMMM, SF, symmetry and pop. for TD-DFT, r2SCAN hybrids, SOLVATOR                                   
                                                                         
[Other institutions]                                                     
  V. Asgeirsson          : NEB                                           
  Christoph Bannwarth    : sTDA-DFT, sTD-DFT, PBEh-3c, B97-3c, D3        
  Sebastian Ehlert       : rSCAN, r2SCAN, r2SCAN-3c, D4, dhf basis sets  
  Marvin Friede          : D4 for Fr, Ra, Ac-Lr                          
  Lars Goerigk           : TD-DFT with DH, B97 family of functionals     
  Stefan Grimme          : VdW corrections, initial TS optimization, DFT functionals, gCP, sTDA/sTD-DF 
  Waldemar Hujo          : DFT-NL                                        
  H. Jonsson             : NEB                                           
  Holger Kruse           : gCP                                           
  Marcel Mueller         : wB97X-3c, vDZP basis set                      
  Hagen Neugebauer       : wr2SCAN                                       
  Tobias Risthaus        : range-separated hybrid DFT                    
  Lukas Wittmann         : regularized MP2, r2SCAN double-hybrids, wr2SCAN        
                                                                         
We gratefully acknowledge several colleagues who have allowed us to      
interface, adapt or use parts of their codes:                            
  Ed Valeev, F. Pavosevic, A. Kumar             : LibInt (2-el integral package), F12 methods 
  Garnet Chan, S. Sharma, J. Yang, R. Olivares  : DMRG                   
  Ulf Ekstrom                                   : XCFun DFT Library      
  Mihaly Kallay                                 : mrcc  (arbitrary order and MRCC methods)
  Frank Weinhold                                : gennbo (NPA and NBO analysis)           
  Simon Mueller                                 : openCOSMO-RS                            
  Christopher J. Cramer and Donald G. Truhlar   : smd solvation model                     
  S Lehtola, MJT Oliveira, MAL Marques          : LibXC Library                           
  Liviu Ungur et al                             : ANISO software                          


 Your calculation uses the libint2 library for the computation of 2-el integrals
 For citations please refer to: http://libint.valeyev.net

 Your ORCA version has been built with support for libXC version: 6.2.2
 For citations please refer to: https://libxc.gitlab.io

 This ORCA versions uses:
   CBLAS   interface :  Fast vector & matrix operations
   LAPACKE interface :  Fast linear algebra routines
   SCALAPACK package :  Parallel linear algebra routines
   Shared memory     :  Shared parallel matrices
   BLAS/LAPACK       :  OpenBLAS 0.3.27  USE64BITINT DYNAMIC_ARCH NO_AFFINITY SkylakeX SINGLE_THREADED
        Core in use  :  SkylakeX
   Copyright (c) 2011-2014, The OpenBLAS Project


NOTE: MaxCore=8000 MB was set to SCF,MP2,MDCI,CIPSI,MRCI and CIS
      => If you want to overwrite this, your respective input block should be placed after the MaxCore statement
Your calculation utilizes the atom-pairwise dispersion correction
with the Becke-Johnson damping scheme (D3BJ)


Your calculation utilizes the SMD solvation module
Please cite in your paper:
A.V. Marenich, C.J. Cramer, D.G. Truhlar J. Phys. Chem. B, 113, (2009), 6378 

Warning: RI is on but no J-basis has been assigned. Assigning Def2/J (nothing to worry about!)
================================================================================

----- Orbital basis set information -----
Your calculation utilizes the basis: def2-TZVP
   F. Weigend and R. Ahlrichs, Phys. Chem. Chem. Phys. 7, 3297 (2005).

----- AuxJ basis set information -----
Your calculation utilizes the auxiliary basis: def2/J
   F. Weigend, Phys. Chem. Chem. Phys. 8, 1057 (2006).

================================================================================
                                        WARNINGS
                       Please study these warnings very carefully!
================================================================================



WARNING: SCAN, rSCAN, or r2SCAN functional requested.
  ===> : libXC variant has now been activated.



WARNING: your system is open-shell and RHF/RKS was chosen
  ===> : WILL SWITCH to UHF/UKS


================================================================================
                                       INPUT FILE
================================================================================
NAME = rf_mecn_freq_r2s_C6_D_B.inp
|  1> !r2scanh def2-TZVP freq d3 TightSCF SlowConv defgrid2
|  2>  
|  3> %pal
|  4> nprocs 20
|  5> end
|  6>  
|  7> %scf
|  8> MaxIter 1500
|  9> end
| 10>  
| 11> %maxcore 8000
| 12>  
| 13> !CPCM
| 14> %cpcm smd true
| 15> SMDsolvent "ACETONITRILE"
| 16> end
| 17>  
| 18> * xyz -1 2
| 19> 6        4.504089000     -0.112913000     -0.891161000
| 20> 8        4.847997000     -1.054391000     -1.612410000
| 21> 8        4.882916000      1.065019000     -0.828992000
| 22> 6        3.368574000     -0.442247000      0.147923000
| 23> 6        2.050457000      0.299773000     -0.173542000
| 24> 6        0.788253000     -0.297101000      0.514160000
| 25> 6       -0.434062000      0.666841000      0.547779000
| 26> 6       -1.707202000     -0.046377000      0.859083000
| 27> 6       -3.081248000      0.422278000      0.496161000
| 28> 6       -3.678415000     -0.258634000     -0.760884000
| 29> 9        3.081922000     -1.770538000      0.193797000
| 30> 9        3.752813000     -0.085493000      1.404166000
| 31> 9        2.157132000      1.591021000      0.187661000
| 32> 9        1.849720000      0.248028000     -1.508251000
| 33> 9        0.417709000     -1.407194000     -0.150173000
| 34> 9        1.086849000     -0.630759000      1.782247000
| 35> 9       -0.188023000      1.634098000      1.468392000
| 36> 9       -0.549782000      1.272646000     -0.652850000
| 37> 9       -1.647344000     -1.061142000      1.696067000
| 38> 9       -3.070268000      1.750134000      0.263753000
| 39> 9       -3.923758000      0.162679000      1.516456000
| 40> 9       -3.705123000     -1.577195000     -0.590443000
| 41> 9       -4.917112000      0.172226000     -0.968668000
| 42> 9       -2.942307000      0.024187000     -1.829864000
| 43> *
| 44> 
| 45>                          ****END OF INPUT****
================================================================================

                       ****************************
                       * Single Point Calculation *
                       ****************************

---------------------------------
CARTESIAN COORDINATES (ANGSTROEM)
---------------------------------
  C      4.504089   -0.112913   -0.891161
  O      4.847997   -1.054391   -1.612410
  O      4.882916    1.065019   -0.828992
  C      3.368574   -0.442247    0.147923
  C      2.050457    0.299773   -0.173542
  C      0.788253   -0.297101    0.514160
  C     -0.434062    0.666841    0.547779
  C     -1.707202   -0.046377    0.859083
  C     -3.081248    0.422278    0.496161
  C     -3.678415   -0.258634   -0.760884
  F      3.081922   -1.770538    0.193797
  F      3.752813   -0.085493    1.404166
  F      2.157132    1.591021    0.187661
  F      1.849720    0.248028   -1.508251
  F      0.417709   -1.407194   -0.150173
  F      1.086849   -0.630759    1.782247
  F     -0.188023    1.634098    1.468392
  F     -0.549782    1.272646   -0.652850
  F     -1.647344   -1.061142    1.696067
  F     -3.070268    1.750134    0.263753
  F     -3.923758    0.162679    1.516456
  F     -3.705123   -1.577195   -0.590443
  F     -4.917112    0.172226   -0.968668
  F     -2.942307    0.024187   -1.829864

----------------------------
CARTESIAN COORDINATES (A.U.)
----------------------------
  NO LB      ZA    FRAG     MASS         X           Y           Z
   0 C     6.0000    0    12.011    8.511495   -0.213375   -1.684050
   1 O     8.0000    0    15.999    9.161387   -1.992510   -3.047013
   2 O     8.0000    0    15.999    9.227374    2.012594   -1.566568
   3 C     6.0000    0    12.011    6.365682   -0.835726    0.279534
   4 C     6.0000    0    12.011    3.874802    0.566489   -0.327947
   5 C     6.0000    0    12.011    1.489582   -0.561440    0.971622
   6 C     6.0000    0    12.011   -0.820258    1.260147    1.035152
   7 C     6.0000    0    12.011   -3.226144   -0.087640    1.623432
   8 C     6.0000    0    12.011   -5.822715    0.797990    0.937608
   9 C     6.0000    0    12.011   -6.951197   -0.488747   -1.437862
  10 F     9.0000    0    18.998    5.823989   -3.345832    0.366223
  11 F     9.0000    0    18.998    7.091789   -0.161558    2.653489
  12 F     9.0000    0    18.998    4.076389    3.006594    0.354628
  13 F     9.0000    0    18.998    3.495464    0.468705   -2.850181
  14 F     9.0000    0    18.998    0.789356   -2.659211   -0.283786
  15 F     9.0000    0    18.998    2.053847   -1.191962    3.367959
  16 F     9.0000    0    18.998   -0.355312    3.087998    2.774859
  17 F     9.0000    0    18.998   -1.038937    2.404952   -1.233708
  18 F     9.0000    0    18.998   -3.113029   -2.005268    3.205102
  19 F     9.0000    0    18.998   -5.801966    3.307274    0.498421
  20 F     9.0000    0    18.998   -7.414828    0.307419    2.865687
  21 F     9.0000    0    18.998   -7.001668   -2.980467   -1.115776
  22 F     9.0000    0    18.998   -9.291995    0.325460   -1.830517
  23 F     9.0000    0    18.998   -5.560154    0.045707   -3.457942

--------------------------------
INTERNAL COORDINATES (ANGSTROEM)
--------------------------------
 C      0   0   0     0.000000000000     0.00000000     0.00000000
 O      1   0   0     1.234849649532     0.00000000     0.00000000
 O      1   2   0     1.238910278073   131.99361546     0.00000000
 C      1   2   3     1.574023747545   115.27529412   179.65672537
 C      4   1   2     1.546404168487   112.16559449   247.48178708
 C      5   4   1     1.556390551981   114.54397477   161.79666900
 C      6   5   4     1.557038334708   114.12712655   162.53624380
 C      7   6   5     1.492137914383   112.23461849   164.17737217
 C      8   7   6     1.496446556755   125.67247680   203.65083890
 C      9   8   7     1.549326211506   114.39607726   100.02581363
 F      4   1   2     1.359643620094   112.25768795     8.29082222
 F      4   1   2     1.361271281077   110.53316572   127.07014180
 F      5   4   1     1.345053367097   109.70733686   283.80398600
 F      5   4   1     1.350711295161   108.28298068    41.80761204
 F      6   5   4     1.345714553490   108.75529728   282.88369085
 F      6   5   4     1.344816668453   109.37375237    41.55852944
 F      7   6   5     1.357810586694   108.26464547   286.67400343
 F      7   6   5     1.349778060300   109.02338249    43.20858769
 F      8   7   6     1.316766190956   117.52812352    34.81040319
 F      9   8   7     1.348085900675   110.04821234   339.25023903
 F      9   8   7     1.348412632663   109.26319784   219.63292157
 F     10   9   8     1.329799444452   109.84794041    57.24944331
 F     10   9   8     1.327849685795   110.11552563   177.11578347
 F     10   9   8     1.328367775168   110.22820565   297.13812976

---------------------------
INTERNAL COORDINATES (A.U.)
---------------------------
 C      0   0   0     0.000000000000     0.00000000     0.00000000
 O      1   0   0     2.333527654184     0.00000000     0.00000000
 O      1   2   0     2.341201130057   131.99361546     0.00000000
 C      1   2   3     2.974473811149   115.27529412   179.65672537
 C      4   1   2     2.922280370795   112.16559449   247.48178708
 C      5   4   1     2.941151900667   114.54397477   161.79666900
 C      6   5   4     2.942376032615   114.12712655   162.53624380
 C      7   6   5     2.819732012225   112.23461849   164.17737217
 C      8   7   6     2.827874166317   125.67247680   203.65083890
 C      9   8   7     2.927802231851   114.39607726   100.02581363
 F      4   1   2     2.569354081710   112.25768795     8.29082222
 F      4   1   2     2.572429915208   110.53316572   127.07014180
 F      5   4   1     2.541782499321   109.70733686   283.80398600
 F      5   4   1     2.552474433848   108.28298068    41.80761204
 F      6   5   4     2.543031960528   108.75529728   282.88369085
 F      6   5   4     2.541335203709   109.37375237    41.55852944
 F      7   6   5     2.565890150591   108.26464547   286.67400343
 F      7   6   5     2.550710875542   109.02338249    43.20858769
 F      8   7   6     2.488327483314   117.52812352    34.81040319
 F      9   8   7     2.547513157277   110.04821234   339.25023903
 F      9   8   7     2.548130591253   109.26319784   219.63292157
 F     10   9   8     2.512956763056   109.84794041    57.24944331
 F     10   9   8     2.509272253165   110.11552563   177.11578347
 F     10   9   8     2.510251300194   110.22820565   297.13812976

---------------------
BASIS SET INFORMATION
---------------------
There are 3 groups of distinct atoms

 Group   1 Type C   : 11s6p2d1f contracted to 5s3p2d1f pattern {62111/411/11/1}
 Group   2 Type O   : 11s6p2d1f contracted to 5s3p2d1f pattern {62111/411/11/1}
 Group   3 Type F   : 11s6p2d1f contracted to 5s3p2d1f pattern {62111/411/11/1}

Atom   0C    basis set group =>   1
Atom   1O    basis set group =>   2
Atom   2O    basis set group =>   2
Atom   3C    basis set group =>   1
Atom   4C    basis set group =>   1
Atom   5C    basis set group =>   1
Atom   6C    basis set group =>   1
Atom   7C    basis set group =>   1
Atom   8C    basis set group =>   1
Atom   9C    basis set group =>   1
Atom  10F    basis set group =>   3
Atom  11F    basis set group =>   3
Atom  12F    basis set group =>   3
Atom  13F    basis set group =>   3
Atom  14F    basis set group =>   3
Atom  15F    basis set group =>   3
Atom  16F    basis set group =>   3
Atom  17F    basis set group =>   3
Atom  18F    basis set group =>   3
Atom  19F    basis set group =>   3
Atom  20F    basis set group =>   3
Atom  21F    basis set group =>   3
Atom  22F    basis set group =>   3
Atom  23F    basis set group =>   3
---------------------------------
AUXILIARY/J BASIS SET INFORMATION
---------------------------------
There are 3 groups of distinct atoms

 Group   1 Type C   : 12s5p4d2f1g contracted to 6s4p3d1f1g pattern {711111/2111/211/2/1}
 Group   2 Type O   : 12s5p4d2f1g contracted to 6s4p3d1f1g pattern {711111/2111/211/2/1}
 Group   3 Type F   : 12s5p4d2f1g contracted to 6s4p3d1f1g pattern {711111/2111/211/2/1}

Atom   0C    basis set group =>   1
Atom   1O    basis set group =>   2
Atom   2O    basis set group =>   2
Atom   3C    basis set group =>   1
Atom   4C    basis set group =>   1
Atom   5C    basis set group =>   1
Atom   6C    basis set group =>   1
Atom   7C    basis set group =>   1
Atom   8C    basis set group =>   1
Atom   9C    basis set group =>   1
Atom  10F    basis set group =>   3
Atom  11F    basis set group =>   3
Atom  12F    basis set group =>   3
Atom  13F    basis set group =>   3
Atom  14F    basis set group =>   3
Atom  15F    basis set group =>   3
Atom  16F    basis set group =>   3
Atom  17F    basis set group =>   3
Atom  18F    basis set group =>   3
Atom  19F    basis set group =>   3
Atom  20F    basis set group =>   3
Atom  21F    basis set group =>   3
Atom  22F    basis set group =>   3
Atom  23F    basis set group =>   3


           ************************************************************
           *        Program running with 20 parallel MPI-processes    *
           *              working on a common directory               *
           ************************************************************
------------------------------------------------------------------------------
                             ORCA STARTUP CALCULATIONS
                           -- RI-GTO INTEGRALS CHOSEN --
------------------------------------------------------------------------------
------------------------------------------------------------------------------
                   ___                                                        
                  /   \      - P O W E R E D   B Y -                         
                 /     \                                                     
                 |  |  |   _    _      __       _____    __    __             
                 |  |  |  | |  | |    /  \     |  _  \  |  |  /  |          
                  \  \/   | |  | |   /    \    | | | |  |  | /  /          
                 / \  \   | |__| |  /  /\  \   | |_| |  |  |/  /          
                |  |  |   |  __  | /  /__\  \  |    /   |      \           
                |  |  |   | |  | | |   __   |  |    \   |  |\   \          
                \     /   | |  | | |  |  |  |  | |\  \  |  | \   \       
                 \___/    |_|  |_| |__|  |__|  |_| \__\ |__|  \__/        
                                                                              
                      - O R C A' S   B I G   F R I E N D -                    
                                      &                                       
                       - I N T E G R A L  F E E D E R -                       
                                                                              
 v1 FN, 2020, v2 2021, v3 2022-2024                                           
------------------------------------------------------------------------------


----------------------
SHARK INTEGRAL PACKAGE
----------------------

Number of atoms                             ...     24
Number of basis functions                   ...    744
Number of shells                            ...    264
Maximum angular momentum                    ...      3
Integral batch strategy                     ... SHARK/LIBINT Hybrid
RI-J (if used) integral strategy            ... SPLIT-RIJ (Revised 2003 algorithm where possible)
Printlevel                                  ...      1
Contraction scheme used                     ... SEGMENTED contraction
Prescreening option                         ... SCHWARTZ
   Thresh                                   ... 2.500e-11
   Tcut                                     ... 2.500e-12
   Tpresel                                  ... 2.500e-12 
Coulomb Range Separation                    ... NOT USED
Exchange Range Separation                   ... NOT USED
Multipole approximations                    ... NOT USED
Finite Nucleus Model                        ... NOT USED
CABS basis                                  ... NOT available
Auxiliary Coulomb fitting basis             ... AVAILABLE
   # of basis functions in Aux-J            ...   1176
   # of shells in Aux-J                     ...    360
   Maximum angular momentum in Aux-J        ...      4
Auxiliary J/K fitting basis                 ... NOT available
Auxiliary Correlation fitting basis         ... NOT available
Auxiliary 'external' fitting basis          ... NOT available

Checking pre-screening integrals            ... done (  0.0 sec) Dimension = 264
Check shell pair data                       ... done (  0.0 sec)
Shell pair information
Shell pair cut-off parameter TPreSel        ...   2.5e-12
Total number of shell pairs                 ...     34980
Shell pairs after pre-screening             ...     22043
Total number of primitive shell pairs       ...    115968
Primitive shell pairs kept                  ...     46982
          la=0 lb=0:   4122 shell pairs
          la=1 lb=0:   5997 shell pairs
          la=1 lb=1:   2084 shell pairs
          la=2 lb=0:   3281 shell pairs
          la=2 lb=1:   2416 shell pairs
          la=2 lb=2:    689 shell pairs
          la=3 lb=0:   1505 shell pairs
          la=3 lb=1:   1163 shell pairs
          la=3 lb=2:    630 shell pairs
          la=3 lb=3:    156 shell pairs

Calculating one electron integrals          ... done (  0.0 sec)
Calculating RI/J V-Matrix + Cholesky decomp.... done (  0.1 sec)
Calculating Nuclear repulsion               ... done (  0.0 sec) ENN=   2648.846896515694 Eh

Diagonalization of the overlap matrix:
Smallest eigenvalue                        ... 4.997e-05
Time for diagonalization                   ...    0.118 sec
Threshold for overlap eigenvalues          ... 1.000e-07
Number of eigenvalues below threshold      ... 0
Time for construction of square roots      ...    0.051 sec
Total time needed                          ...    0.175 sec

-------------------
DFT GRID GENERATION
-------------------

General Integration Accuracy     IntAcc      ... 4.388
Radial Grid Type                 RadialGrid  ... OptM3 with GC (2021)
Angular Grid (max. ang.)         AngularGrid ... 4 (Lebedev-302)
Angular grid pruning method      GridPruning ... 4 (adaptive)
Weight generation scheme         WeightScheme... mBecke (2022)
Basis function cutoff            BFCut       ... 1.0000e-11
Integration weight cutoff        WCut        ... 1.0000e-14
Partially contracted basis set               ... off
Rotationally invariant grid construction     ... off
Angular grids for H and He will be reduced by one unit

Total number of grid points                  ...   145444
Total number of batches                      ...     2286
Average number of points per batch           ...       63
Average number of grid points per atom       ...     6060

--------------------
COSX GRID GENERATION
--------------------

GRIDX 1
-------
General Integration Accuracy     IntAcc      ... 3.816
Radial Grid Type                 RadialGrid  ... OptM3 with GC (2021)
Angular Grid (max. ang.)         AngularGrid ... 1 (Lebedev-50)
Angular grid pruning method      GridPruning ... 4 (adaptive)
Weight generation scheme         WeightScheme... mBecke (2022)
Basis function cutoff            BFCut       ... 1.0000e-11
Integration weight cutoff        WCut        ... 1.0000e-14
Partially contracted basis set               ... on
Rotationally invariant grid construction     ... off
Angular grids for H and He will be reduced by one unit

Total number of grid points                  ...    18263
Total number of batches                      ...      153
Average number of points per batch           ...      119
Average number of grid points per atom       ...      761
UseSFitting                                  ... on

GRIDX 2
-------
General Integration Accuracy     IntAcc      ... 4.020
Radial Grid Type                 RadialGrid  ... OptM3 with GC (2021)
Angular Grid (max. ang.)         AngularGrid ... 2 (Lebedev-110)
Angular grid pruning method      GridPruning ... 4 (adaptive)
Weight generation scheme         WeightScheme... mBecke (2022)
Basis function cutoff            BFCut       ... 1.0000e-11
Integration weight cutoff        WCut        ... 1.0000e-14
Partially contracted basis set               ... on
Rotationally invariant grid construction     ... off
Angular grids for H and He will be reduced by one unit

Total number of grid points                  ...    43303
Total number of batches                      ...      350
Average number of points per batch           ...      123
Average number of grid points per atom       ...     1804
UseSFitting                                  ... on

GRIDX 3
-------
General Integration Accuracy     IntAcc      ... 4.338
Radial Grid Type                 RadialGrid  ... OptM3 with GC (2021)
Angular Grid (max. ang.)         AngularGrid ... 3 (Lebedev-194)
Angular grid pruning method      GridPruning ... 4 (adaptive)
Weight generation scheme         WeightScheme... mBecke (2022)
Basis function cutoff            BFCut       ... 1.0000e-11
Integration weight cutoff        WCut        ... 1.0000e-14
Partially contracted basis set               ... on
Rotationally invariant grid construction     ... off
Angular grids for H and He will be reduced by one unit

Total number of grid points                  ...    95956
Total number of batches                      ...      761
Average number of points per batch           ...      126
Average number of grid points per atom       ...     3998
UseSFitting                                  ... on
Initializing property integral containers    ... done (  0.0 sec)

SHARK setup successfully completed in   3.4 seconds

Maximum memory used throughout the entire STARTUP-calculation: 57.2 MB


           ************************************************************
           *        Program running with 20 parallel MPI-processes    *
           *              working on a common directory               *
           ************************************************************
-------------------------------------------------------------------------------
                                 ORCA GUESS
                   Start orbitals & Density for SCF / CASSCF
-------------------------------------------------------------------------------

------------
SCF SETTINGS
------------
Hamiltonian:
 Density Functional     Method          .... DFT(GTOs)
  Functional kind                       .... Exchange
  Functional name                       .... Re-regularized SCAN exchange by Furness et al
  Functional family                     .... MGGA
  Functional refs                              
    [ 0] J. W. Furness, A. D. Kaplan, J. Ning, J. P. Perdew, and J. Sun.,  J. Phys. Chem. Lett. 11, 8208-8215 (2020), doi: 10.1021/acs.jpclett.0c02405
    [ 1] J. W. Furness, A. D. Kaplan, J. Ning, J. P. Perdew, and J. Sun.,  J. Phys. Chem. Lett. 11, 9248-9248 (2020), doi: 10.1021/acs.jpclett.0c03077
  Functional external parameters        .... 6
    Parameter  0 _c1        =  6.670000e-01 : c1 parameter        
    Parameter  1 _c2        =  8.000000e-01 : c2 parameter        
    Parameter  2 _d         =  1.240000e+00 : d parameter         
    Parameter  3 _k1        =  6.500000e-02 : k1 parameter        
    Parameter  4 _eta       =  1.000000e-03 : eta parameter       
    Parameter  5 _dp2       =  3.610000e-01 : dp2 parameter       
  Functional kind                       .... Correlation
  Functional name                       .... Re-regularized SCAN correlation by Furness et al
  Functional family                     .... MGGA
  Functional refs                              
    [ 0] J. W. Furness, A. D. Kaplan, J. Ning, J. P. Perdew, and J. Sun.,  J. Phys. Chem. Lett. 11, 8208-8215 (2020), doi: 10.1021/acs.jpclett.0c02405
    [ 1] J. W. Furness, A. D. Kaplan, J. Ning, J. P. Perdew, and J. Sun.,  J. Phys. Chem. Lett. 11, 9248-9248 (2020), doi: 10.1021/acs.jpclett.0c03077
  Functional external parameters        .... 1
    Parameter  0 _eta       =  1.000000e-03 : Regularization parameter
 Gradients option       PostSCFGGA      .... off
 Hybrid DFT is turned on
   Fraction HF Exchange ScalHFX         ....  0.100000
   Scaling of DF-GGA-X  ScalDFX         ....  0.900000
   Scaling of DF-GGA-C  ScalDFC         ....  1.000000
   Scaling of DF-LDA-C  ScalLDAC        ....  1.000000
   Perturbative correction              ....  0.000000
   NL short-range parameter             .... 11.900000
 RI-approximation to the Coulomb term is turned on
   Number of AuxJ basis functions       .... 1176
   RIJ-COSX (HFX calculated with COS-X)).... on


General Settings:
 Integral files         IntName         .... rf_mecn_freq_r2s_C6_D_B
 Hartree-Fock type      HFTyp           .... UHF
 Total Charge           Charge          ....   -1
 Multiplicity           Mult            ....    2
 Number of Electrons    NEL             ....  191
 Basis Dimension        Dim             ....  744
 Nuclear Repulsion      ENuc            ....   2648.8468965157 Eh

Convergence Acceleration:
 AO-DIIS                CNVDIIS         .... on
   Start iteration      DIISMaxIt       ....     0
   Startup error        DIISStart       ....  0.200000
   # of expansion vecs  DIISMaxEq       ....     5
   Bias factor          DIISBfac        ....   1.050
   Max. coefficient     DIISMaxC        ....  10.000
 MO-DIIS                CNVKDIIS        .... off
 Trust-Rad. Augm. Hess. CNVTRAH         .... auto
   Auto Start mean grad. ratio tolernc. ....  1.125000
   Auto Start start iteration           ....    50
   Auto Start num. interpolation iter.  ....    10
   Max. Number of Micro iterations      ....    24
   Max. Number of Macro iterations      .... Maxiter - #DIIS iter
   Number of Davidson start vectors     ....     2
   Converg. threshold    (grad. norm)   ....   1.000e-05
   Grad. Scal. Fac. for Micro threshold ....   0.100
   Minimum threshold for Micro iter.    ....   1.000e-02
   NR start threshold (gradient norm)   ....   1.000e-04
   Initial trust radius                 ....   0.400
   Minimum AH scaling param. (alpha)    ....   1.000
   Maximum AH scaling param. (alpha)    .... 1000.000
   Quad. conv. algorithm                .... NR
   White noise on init. David. guess    .... on
   Maximum white noise                  ....   0.010
   Pseudo random numbers                .... off
   Inactive MOs                         .... canonical
   Orbital update algorithm             .... Taylor
   Preconditioner                       .... Diag
   Full preconditioner red. dimension   ....   250
 SOSCF                  CNVSOSCF        .... on
   Start iteration      SOSCFMaxIt      ....   150
   Startup grad/error   SOSCFStart      ....  0.001000
   Hessian update       SOSCFHessUp     .... L-BFGS
 Level Shifting         CNVShift        .... on
   Level shift para.    LevelShift      ....    0.2500
   Turn off err/grad.   ShiftErr        ....    0.0000
 Zerner damping         CNVZerner       .... off
 Static damping         CNVDamp         .... on
   Fraction old density DampFac         ....    0.8500
   Max. Damping (<1)    DampMax         ....    0.9800
   Min. Damping (>=0)   DampMin         ....    0.0000
   Turn off err/grad.   DampErr         ....    0.0300

SCF Procedure:
 Maximum # iterations   MaxIter         ....  1500
 SCF integral mode      SCFMode         .... Direct
   Integral package                     .... SHARK and LIBINT hybrid scheme
 Reset frequency        DirectResetFreq ....    20
 Integral Threshold     Thresh          ....  2.500e-11 Eh
 Primitive CutOff       TCut            ....  2.500e-12 Eh

Convergence Tolerance:
 Convergence Check Mode ConvCheckMode   .... Total+1el-Energy
 Convergence forced     ConvForced      .... 0
 Energy Change          TolE            ....  1.000e-08 Eh
 1-El. energy change                    ....  1.000e-05 Eh
 Orbital Gradient       TolG            ....  1.000e-05
 Orbital Rotation angle TolX            ....  1.000e-05
 DIIS Error             TolErr          ....  5.000e-07

------------------------------
INITIAL GUESS: MODEL POTENTIAL
------------------------------
Loading Hartree-Fock densities                     ... done
Calculating cut-offs                               ... done
Initializing the effective Hamiltonian             ... done
Setting up the integral package (SHARK)            ... done
Starting the Coulomb interaction                   ... done (   0.2 sec)
Making the grid                                    ... done (   0.5 sec)
Mapping shells                                     ... done
Starting the XC term evaluation                    ... done (   0.1 sec)
  promolecular density results
     # of electrons  =    190.000547739
     EX              =   -197.248858246
     EC              =     -6.679863578
     EX+EC           =   -203.928721824
Transforming the Hamiltonian                       ... done (   0.1 sec)
Diagonalizing the Hamiltonian                      ... done (   0.1 sec)
Back transforming the eigenvectors                 ... done (   0.0 sec)
Now organizing SCF variables                       ... done
                      ------------------
                      INITIAL GUESS DONE (   1.2 sec)
                      ------------------
             **** ENERGY FILE WAS UPDATED (rf_mecn_freq_r2s_C6_D_B.en.tmp) ****
Finished Guess after   2.0 sec
Maximum memory used throughout the entire GUESS-calculation: 46.0 MB


           ************************************************************
           *        Program running with 20 parallel MPI-processes    *
           *              working on a common directory               *
           ************************************************************

-------------------------------------------------------------------------------------------
                                      ORCA LEAN-SCF
                              memory conserving SCF solver
-------------------------------------------------------------------------------------------

--------------------
CPCM SOLVATION MODEL
--------------------
CPCM parameters:
  Epsilon                                         ...      35.6880
  Refrac                                          ...       1.3442
  Rsolv                                           ...       1.3000
  Surface type                                    ... GAUSSIAN VDW
  Discretization scheme                           ... Constant charge density
    Threshold for H atoms                         ...       5.0000 (charges/Ang^2)
    Threshold for non-H atoms                     ...       5.0000 (charges/Ang^2)
  Epsilon function type                           ...         CPCM
Solvent:                                          ... ACETONITRILE
SMD-CDS solvent descriptors:
  Soln                                            ...       1.3442
  Soln25                                          ...       1.3416
  Sola                                            ...       0.0700
  Solb                                            ...       0.3200
  Solg                                            ...      41.2500
  Solc                                            ...       0.0000
  Solh                                            ...       0.0000
Radii:
  Scheme                                          ... Element-dependent radii
  Radius for C  used is    3.4960 Bohr (=   1.8500 Ang.)
  Radius for O  used is    4.0969 Bohr (=   2.1680 Ang.)
  Radius for F  used is    3.2692 Bohr (=   1.7300 Ang.)
Calculating surface                               ...        done! (  0.0s)
Cavity surface points                             ...         2113
Cavity Volume                                     ...    2102.5652
Cavity Surface-area                               ...    1104.2598
Calculating surface distance matrix               ...        done! (  0.0s)
Performing Cholesky decomposition & store         ...        done! (  0.1s)
Overall time for CPCM initialization              ...                 0.1s

----------------------------------------D-I-I-S--------------------------------------------
Iteration    Energy (Eh)           Delta-E    RMSDP     MaxDP     DIISErr   Damp  Time(sec)
-------------------------------------------------------------------------------------------
               ***  Starting incremental Fock matrix formation  ***
    1    -1852.6842737316146668     0.00e+00  2.57e-04  3.06e-02  1.55e-01  0.850   8.0
Warning: op=0 Small HOMO/LUMO gap (   0.056) - skipping pre-diagonalization
         Will do a full diagonalization
    2    -1852.8124387851476058    -1.28e-01  3.40e-04  6.34e-02  1.09e-01  0.850   5.3
                               ***Turning on AO-DIIS***
    3    -1852.8839841076105586    -7.15e-02  1.79e-04  3.20e-02  6.74e-02  0.850   4.6
    4    -1852.9276766573066197    -4.37e-02  1.00e-04  1.38e-02  5.08e-02  0.850   4.4
    5    -1852.9590067951885430    -3.13e-02  6.37e-05  4.73e-03  4.20e-02  0.850   4.3
    6    -1852.9838871009442300    -2.49e-02  4.82e-05  2.62e-03  3.60e-02  0.850   4.2
    7    -1853.0046011214371902    -2.07e-02  4.14e-05  1.96e-03  3.10e-02  0.850   4.0
    8    -1853.0221249246815205    -1.75e-02  3.64e-05  1.73e-03  2.62e-02  0.850   4.0
    9    -1853.0367568395440685    -1.46e-02  2.08e-04  1.02e-02  2.18e-02  0.000   4.1
   10    -1853.1137152723777035    -7.70e-02  1.69e-05  2.68e-03  2.61e-03  0.000   4.4
                              *** Initializing SOSCF ***
---------------------------------------S-O-S-C-F--------------------------------------
Iteration    Energy (Eh)           Delta-E    RMSDP     MaxDP     MaxGrad    Time(sec)
--------------------------------------------------------------------------------------
   11    -1853.1138133582999217    -9.81e-05  8.46e-06  1.32e-03  5.54e-04     4.4
               *** Restarting incremental Fock matrix formation ***
   12    -1853.1138330107596630    -1.97e-05  5.56e-06  3.50e-04  2.61e-04     7.5
   13    -1853.1138329429377336     6.78e-08  4.15e-06  3.91e-04  3.49e-04     5.0
   14    -1853.1138367002531595    -3.76e-06  2.11e-06  1.57e-04  1.02e-04     4.7
   15    -1853.1138364764210564     2.24e-07  1.06e-06  1.15e-04  8.05e-05     4.4
   16    -1853.1138370548869716    -5.78e-07  6.31e-07  8.04e-05  1.32e-05     4.0
   17    -1853.1138370798635151    -2.50e-08  3.14e-07  3.91e-05  1.83e-05     3.8
   18    -1853.1138370755224969     4.34e-09  1.68e-07  1.87e-05  3.61e-06     3.5
                 **** Energy Check signals convergence ****

               *****************************************************
               *                     SUCCESS                       *
               *           SCF CONVERGED AFTER  18 CYCLES          *
               *****************************************************

Recomputing exchange energy using gridx3       ... done (    8.704 sec)
Old exchange energy                            :    -19.918810306 Eh
New exchange energy                            :    -19.918826203 Eh
Exchange energy change after final integration :     -0.000015898 Eh
Total energy after final integration           :  -1853.113852973 Eh

SMD CDS free energy correction energy :                 3.16387     Kcal/mol
Total Energy after SMD CDS correction =             -1853.108811023 Eh
             **** ENERGY FILE WAS UPDATED (rf_mecn_freq_r2s_C6_D_B.en.tmp) ****

----------------
TOTAL SCF ENERGY
----------------

Total Energy       :      -1853.10881102311305 Eh          -50425.65434 eV

Components:
Nuclear Repulsion  :       2648.84689651569443 Eh           72078.78847 eV
Electronic Energy  :      -4501.87587582653214 Eh         -122502.27048 eV
One Electron Energy:      -7872.53278557943577 Eh         -214222.50796 eV
Two Electron Energy:       3370.65690975290363 Eh           91720.23748 eV
CPCM Dielectric    :         -0.08485776468496 Eh              -2.30910 eV
SMD CDS (Gcds)     :          0.00504195022799 Eh               0.13720 eV

Virial components:
Potential Energy   :      -3700.08931692391343 Eh         -100684.54902 eV
Kinetic Energy     :       1846.98050590080038 Eh           50258.89468 eV
Virial Ratio       :          2.00331801288792

DFT components:
N(Alpha)           :       96.000003612121 electrons
N(Beta)            :       94.999988244476 electrons
N(Total)           :      190.999991856597 electrons
E(X)               :     -180.221651151834 Eh       
E(C)               :       -6.649768890429 Eh       
E(XC)              :     -186.871420042263 Eh       

CPCM Solvation Model Properties:
Surface-charge          :          0.99048500948152
Corrected charge        :          1.00000000000000
Outlying charge corr.   :          0.00000500512808 Eh               0.00014 eV
Free-energy (cav+disp)  :          0.00504195022799 Eh               0.13720 eV

---------------
SCF CONVERGENCE
---------------

  Last Energy change         ...   -4.3410e-09  Tolerance :   1.0000e-08
  Last MAX-Density change    ...    1.8718e-05  Tolerance :   1.0000e-07
  Last RMS-Density change    ...    1.6781e-07  Tolerance :   5.0000e-09
  Last DIIS Error            ...    5.5352e-04  Tolerance :   5.0000e-07
  Last Orbital Gradient      ...    3.6134e-06  Tolerance :   1.0000e-05
  Last Orbital Rotation      ...    2.0072e-05  Tolerance :   1.0000e-05


----------------------
UHF SPIN CONTAMINATION
----------------------

Warning: in a DFT calculation there is little theoretical justification to 
         calculate <S**2> as in Hartree-Fock theory. We will do it anyways
         but you should keep in mind that the values have only limited relevance

Expectation value of <S**2>     :     0.757021
Ideal value S*(S+1) for S=0.5   :     0.750000
Deviation                       :     0.007021

----------------
ORBITAL ENERGIES
----------------
                 SPIN UP ORBITALS
  NO   OCC          E(Eh)            E(eV) 
   0   1.0000     -24.742970      -673.2905 
   1   1.0000     -24.728693      -672.9019 
   2   1.0000     -24.728501      -672.8967 
   3   1.0000     -24.727871      -672.8796 
   4   1.0000     -24.724668      -672.7924 
   5   1.0000     -24.723112      -672.7501 
   6   1.0000     -24.722358      -672.7296 
   7   1.0000     -24.720536      -672.6800 
   8   1.0000     -24.720526      -672.6797 
   9   1.0000     -24.715276      -672.5368 
  10   1.0000     -24.709783      -672.3874 
  11   1.0000     -24.709760      -672.3867 
  12   1.0000     -24.685807      -671.7349 
  13   1.0000     -24.685550      -671.7280 
  14   1.0000     -19.048954      -518.3484 
  15   1.0000     -19.047200      -518.3007 
  16   1.0000     -10.433500      -283.9100 
  17   1.0000     -10.381821      -282.5037 
  18   1.0000     -10.378833      -282.4224 
  19   1.0000     -10.372011      -282.2368 
  20   1.0000     -10.358789      -281.8770 
  21   1.0000     -10.321656      -280.8665 
  22   1.0000     -10.307779      -280.4889 
  23   1.0000     -10.233221      -278.4601 
  24   1.0000      -1.356566       -36.9140 
  25   1.0000      -1.324632       -36.0451 
  26   1.0000      -1.313755       -35.7491 
  27   1.0000      -1.302706       -35.4484 
  28   1.0000      -1.299366       -35.3576 
  29   1.0000      -1.295469       -35.2515 
  30   1.0000      -1.269099       -34.5339 
  31   1.0000      -1.266159       -34.4539 
  32   1.0000      -1.263438       -34.3799 
  33   1.0000      -1.255837       -34.1731 
  34   1.0000      -1.251592       -34.0575 
  35   1.0000      -1.244016       -33.8514 
  36   1.0000      -1.238199       -33.6931 
  37   1.0000      -1.210616       -32.9425 
  38   1.0000      -1.028630       -27.9904 
  39   1.0000      -0.944256       -25.6945 
  40   1.0000      -0.854716       -23.2580 
  41   1.0000      -0.819724       -22.3058 
  42   1.0000      -0.788619       -21.4594 
  43   1.0000      -0.748542       -20.3689 
  44   1.0000      -0.708678       -19.2841 
  45   1.0000      -0.671580       -18.2746 
  46   1.0000      -0.658370       -17.9151 
  47   1.0000      -0.632156       -17.2018 
  48   1.0000      -0.625156       -17.0114 
  49   1.0000      -0.624624       -16.9969 
  50   1.0000      -0.616022       -16.7628 
  51   1.0000      -0.610205       -16.6045 
  52   1.0000      -0.607097       -16.5200 
  53   1.0000      -0.592372       -16.1192 
  54   1.0000      -0.588806       -16.0222 
  55   1.0000      -0.582775       -15.8581 
  56   1.0000      -0.570925       -15.5357 
  57   1.0000      -0.568427       -15.4677 
  58   1.0000      -0.561576       -15.2813 
  59   1.0000      -0.553750       -15.0683 
  60   1.0000      -0.539308       -14.6753 
  61   1.0000      -0.523033       -14.2324 
  62   1.0000      -0.492528       -13.4024 
  63   1.0000      -0.490098       -13.3363 
  64   1.0000      -0.485370       -13.2076 
  65   1.0000      -0.483453       -13.1554 
  66   1.0000      -0.482678       -13.1343 
  67   1.0000      -0.472078       -12.8459 
  68   1.0000      -0.466291       -12.6884 
  69   1.0000      -0.463559       -12.6141 
  70   1.0000      -0.461644       -12.5620 
  71   1.0000      -0.457392       -12.4463 
  72   1.0000      -0.451283       -12.2800 
  73   1.0000      -0.448815       -12.2129 
  74   1.0000      -0.446518       -12.1504 
  75   1.0000      -0.445090       -12.1115 
  76   1.0000      -0.440192       -11.9782 
  77   1.0000      -0.438108       -11.9215 
  78   1.0000      -0.431302       -11.7363 
  79   1.0000      -0.425694       -11.5837 
  80   1.0000      -0.424389       -11.5482 
  81   1.0000      -0.422973       -11.5097 
  82   1.0000      -0.420388       -11.4393 
  83   1.0000      -0.417285       -11.3549 
  84   1.0000      -0.411683       -11.2025 
  85   1.0000      -0.400395       -10.8953 
  86   1.0000      -0.397280       -10.8105 
  87   1.0000      -0.387908       -10.5555 
  88   1.0000      -0.383434       -10.4338 
  89   1.0000      -0.375143       -10.2082 
  90   1.0000      -0.365438        -9.9441 
  91   1.0000      -0.328898        -8.9498 
  92   1.0000      -0.265920        -7.2361 
  93   1.0000      -0.241330        -6.5669 
  94   1.0000      -0.224995        -6.1224 
  95   1.0000      -0.222961        -6.0671 
  96   0.0000      -0.012393        -0.3372 
  97   0.0000       0.017379         0.4729 
  98   0.0000       0.034546         0.9400 
  99   0.0000       0.049842         1.3563 
 100   0.0000       0.071272         1.9394 
 101   0.0000       0.090535         2.4636 
 102   0.0000       0.100811         2.7432 
 103   0.0000       0.118631         3.2281 
 104   0.0000       0.126312         3.4371 
 105   0.0000       0.133629         3.6362 
 106   0.0000       0.147181         4.0050 

                 SPIN DOWN ORBITALS
  NO   OCC          E(Eh)            E(eV) 
   0   1.0000     -24.737773      -673.1490 
   1   1.0000     -24.728651      -672.9008 
   2   1.0000     -24.728441      -672.8951 
   3   1.0000     -24.727517      -672.8700 
   4   1.0000     -24.724074      -672.7763 
   5   1.0000     -24.722388      -672.7304 
   6   1.0000     -24.721929      -672.7179 
   7   1.0000     -24.720444      -672.6775 
   8   1.0000     -24.720423      -672.6769 
   9   1.0000     -24.713298      -672.4830 
  10   1.0000     -24.709780      -672.3873 
  11   1.0000     -24.709758      -672.3867 
  12   1.0000     -24.685803      -671.7349 
  13   1.0000     -24.685550      -671.7280 
  14   1.0000     -19.048947      -518.3482 
  15   1.0000     -19.047200      -518.3007 
  16   1.0000     -10.432761      -283.8899 
  17   1.0000     -10.382912      -282.5334 
  18   1.0000     -10.379760      -282.4476 
  19   1.0000     -10.371834      -282.2320 
  20   1.0000     -10.358791      -281.8770 
  21   1.0000     -10.321650      -280.8664 
  22   1.0000     -10.290657      -280.0230 
  23   1.0000     -10.233220      -278.4601 
  24   1.0000      -1.356108       -36.9016 
  25   1.0000      -1.323289       -36.0085 
  26   1.0000      -1.311649       -35.6918 
  27   1.0000      -1.301382       -35.4124 
  28   1.0000      -1.297144       -35.2971 
  29   1.0000      -1.289845       -35.0985 
  30   1.0000      -1.269084       -34.5335 
  31   1.0000      -1.265820       -34.4447 
  32   1.0000      -1.262961       -34.3669 
  33   1.0000      -1.255165       -34.1548 
  34   1.0000      -1.250239       -34.0207 
  35   1.0000      -1.241808       -33.7913 
  36   1.0000      -1.238168       -33.6923 
  37   1.0000      -1.210612       -32.9424 
  38   1.0000      -1.028624       -27.9903 
  39   1.0000      -0.944249       -25.6943 
  40   1.0000      -0.838291       -22.8111 
  41   1.0000      -0.817521       -22.2459 
  42   1.0000      -0.785369       -21.3710 
  43   1.0000      -0.740598       -20.1527 
  44   1.0000      -0.707007       -19.2386 
  45   1.0000      -0.667229       -18.1562 
  46   1.0000      -0.656348       -17.8601 
  47   1.0000      -0.627848       -17.0846 
  48   1.0000      -0.624013       -16.9803 
  49   1.0000      -0.622532       -16.9399 
  50   1.0000      -0.615149       -16.7390 
  51   1.0000      -0.608890       -16.5688 
  52   1.0000      -0.605628       -16.4800 
  53   1.0000      -0.590925       -16.0799 
  54   1.0000      -0.586795       -15.9675 
  55   1.0000      -0.580484       -15.7958 
  56   1.0000      -0.569358       -15.4930 
  57   1.0000      -0.566424       -15.4132 
  58   1.0000      -0.560515       -15.2524 
  59   1.0000      -0.552804       -15.0426 
  60   1.0000      -0.539285       -14.6747 
  61   1.0000      -0.494280       -13.4501 
  62   1.0000      -0.489307       -13.3147 
  63   1.0000      -0.488577       -13.2948 
  64   1.0000      -0.485129       -13.2010 
  65   1.0000      -0.482519       -13.1300 
  66   1.0000      -0.480946       -13.0872 
  67   1.0000      -0.471242       -12.8232 
  68   1.0000      -0.465328       -12.6622 
  69   1.0000      -0.462142       -12.5755 
  70   1.0000      -0.459934       -12.5154 
  71   1.0000      -0.455439       -12.3931 
  72   1.0000      -0.448279       -12.1983 
  73   1.0000      -0.447631       -12.1807 
  74   1.0000      -0.445498       -12.1226 
  75   1.0000      -0.443461       -12.0672 
  76   1.0000      -0.439224       -11.9519 
  77   1.0000      -0.437030       -11.8922 
  78   1.0000      -0.430524       -11.7151 
  79   1.0000      -0.424500       -11.5512 
  80   1.0000      -0.423907       -11.5351 
  81   1.0000      -0.421562       -11.4713 
  82   1.0000      -0.419293       -11.4095 
  83   1.0000      -0.416964       -11.3462 
  84   1.0000      -0.410571       -11.1722 
  85   1.0000      -0.399730       -10.8772 
  86   1.0000      -0.397265       -10.8101 
  87   1.0000      -0.387845       -10.5538 
  88   1.0000      -0.381001       -10.3676 
  89   1.0000      -0.375128       -10.2077 
  90   1.0000      -0.362129        -9.8540 
  91   1.0000      -0.327430        -8.9098 
  92   1.0000      -0.241326        -6.5668 
  93   1.0000      -0.224999        -6.1225 
  94   1.0000      -0.222967        -6.0672 
  95   0.0000      -0.121298        -3.3007 
  96   0.0000      -0.010247        -0.2788 
  97   0.0000       0.018888         0.5140 
  98   0.0000       0.038700         1.0531 
  99   0.0000       0.054348         1.4789 
 100   0.0000       0.083422         2.2700 
 101   0.0000       0.099419         2.7053 
 102   0.0000       0.104020         2.8305 
 103   0.0000       0.125952         3.4273 
 104   0.0000       0.128287         3.4909 
 105   0.0000       0.143487         3.9045 
*Only the first 10 virtual orbitals were printed.

                    ********************************
                    * MULLIKEN POPULATION ANALYSIS *
                    ********************************

--------------------------------------------
MULLIKEN ATOMIC CHARGES AND SPIN POPULATIONS
--------------------------------------------
   0 C :    0.212040   -0.000031
   1 O :   -0.509932    0.000211
   2 O :   -0.523259    0.000029
   3 C :    0.346698    0.000230
   4 C :    0.297557    0.000684
   5 C :    0.330544   -0.003316
   6 C :    0.367698   -0.001565
   7 C :    0.100504    0.852266
   8 C :    0.354855   -0.038383
   9 C :    0.477173    0.026406
  10 F :   -0.208193   -0.000000
  11 F :   -0.213938    0.000059
  12 F :   -0.178905   -0.000015
  13 F :   -0.186873    0.000046
  14 F :   -0.175147    0.000962
  15 F :   -0.173167    0.001622
  16 F :   -0.176680    0.033480
  17 F :   -0.177014    0.005840
  18 F :   -0.145612    0.091510
  19 F :   -0.169281    0.009478
  20 F :   -0.167334    0.012731
  21 F :   -0.162854    0.000642
  22 F :   -0.157351    0.006142
  23 F :   -0.161530    0.000975
Sum of atomic charges         :   -1.0000000
Sum of atomic spin populations:    1.0000000

-----------------------------------------------------
MULLIKEN REDUCED ORBITAL CHARGES AND SPIN POPULATIONS
-----------------------------------------------------
CHARGE
  0 C s       :     3.017649  s :     3.017649
      pz      :     0.852484  p :     2.496209
      px      :     0.866767
      py      :     0.776957
      dz2     :     0.033761  d :     0.249555
      dxz     :     0.025677
      dyz     :     0.064593
      dx2y2   :     0.056580
      dxy     :     0.068943
      f0      :     0.003034  f :     0.024547
      f+1     :     0.001472
      f-1     :     0.003594
      f+2     :     0.004411
      f-2     :     0.003312
      f+3     :     0.003517
      f-3     :     0.005207

  1 O s       :     3.801613  s :     3.801613
      pz      :     1.516349  p :     4.677383
      px      :     1.626757
      py      :     1.534278
      dz2     :     0.006208  d :     0.029095
      dxz     :     0.003258
      dyz     :     0.008161
      dx2y2   :     0.005311
      dxy     :     0.006157
      f0      :     0.000170  f :     0.001841
      f+1     :     0.000055
      f-1     :     0.000470
      f+2     :     0.000346
      f-2     :     0.000330
      f+3     :     0.000240
      f-3     :     0.000230

  2 O s       :     3.802522  s :     3.802522
      pz      :     1.674377  p :     4.690006
      px      :     1.628169
      py      :     1.387460
      dz2     :     0.003089  d :     0.028914
      dxz     :     0.000990
      dyz     :     0.007604
      dx2y2   :     0.008803
      dxy     :     0.008428
      f0      :     0.000217  f :     0.001817
      f+1     :     0.000055
      f-1     :     0.000250
      f+2     :     0.000235
      f-2     :     0.000125
      f+3     :     0.000445
      f-3     :     0.000491

  3 C s       :     3.112907  s :     3.112907
      pz      :     0.705873  p :     2.259749
      px      :     0.927617
      py      :     0.626260
      dz2     :     0.048902  d :     0.254351
      dxz     :     0.044950
      dyz     :     0.065196
      dx2y2   :     0.042742
      dxy     :     0.052561
      f0      :     0.005701  f :     0.026295
      f+1     :     0.003513
      f-1     :     0.003826
      f+2     :     0.003977
      f-2     :     0.002269
      f+3     :     0.003744
      f-3     :     0.003265

  4 C s       :     3.139039  s :     3.139039
      pz      :     0.627772  p :     2.254993
      px      :     0.953805
      py      :     0.673416
      dz2     :     0.050871  d :     0.280780
      dxz     :     0.059523
      dyz     :     0.073052
      dx2y2   :     0.037886
      dxy     :     0.059448
      f0      :     0.004348  f :     0.027630
      f+1     :     0.004615
      f-1     :     0.007047
      f+2     :     0.002822
      f-2     :     0.001829
      f+3     :     0.004412
      f-3     :     0.002556

  5 C s       :     3.146416  s :     3.146416
      pz      :     0.617219  p :     2.208276
      px      :     0.884464
      py      :     0.706594
      dz2     :     0.068861  d :     0.286896
      dxz     :     0.058534
      dyz     :     0.064319
      dx2y2   :     0.039708
      dxy     :     0.055475
      f0      :     0.004377  f :     0.027866
      f+1     :     0.003840
      f-1     :     0.007026
      f+2     :     0.003450
      f-2     :     0.003306
      f+3     :     0.002863
      f-3     :     0.003006

  6 C s       :     3.078422  s :     3.078422
      pz      :     0.596104  p :     2.231742
      px      :     0.908156
      py      :     0.727481
      dz2     :     0.073395  d :     0.294543
      dxz     :     0.067346
      dyz     :     0.057586
      dx2y2   :     0.036681
      dxy     :     0.059535
      f0      :     0.005397  f :     0.027595
      f+1     :     0.003694
      f-1     :     0.005224
      f+2     :     0.004095
      f-2     :     0.004614
      f+3     :     0.002330
      f-3     :     0.002241

  7 C s       :     3.217802  s :     3.217802
      pz      :     0.853404  p :     2.506878
      px      :     0.904500
      py      :     0.748974
      dz2     :     0.031345  d :     0.156865
      dxz     :     0.033297
      dyz     :     0.016977
      dx2y2   :     0.027088
      dxy     :     0.048159
      f0      :     0.001882  f :     0.017951
      f+1     :     0.001518
      f-1     :     0.003996
      f+2     :     0.002099
      f-2     :     0.003216
      f+3     :     0.003265
      f-3     :     0.001976

  8 C s       :     3.056585  s :     3.056585
      pz      :     0.776268  p :     2.264259
      px      :     0.828602
      py      :     0.659389
      dz2     :     0.055805  d :     0.296570
      dxz     :     0.048043
      dyz     :     0.071206
      dx2y2   :     0.052829
      dxy     :     0.068687
      f0      :     0.004323  f :     0.027730
      f+1     :     0.003331
      f-1     :     0.003320
      f+2     :     0.005373
      f-2     :     0.003174
      f+3     :     0.005197
      f-3     :     0.003012

  9 C s       :     3.020577  s :     3.020577
      pz      :     0.784561  p :     2.106045
      px      :     0.656866
      py      :     0.664618
      dz2     :     0.059822  d :     0.355748
      dxz     :     0.069229
      dyz     :     0.072601
      dx2y2   :     0.070269
      dxy     :     0.083827
      f0      :     0.006785  f :     0.040457
      f+1     :     0.004089
      f-1     :     0.003881
      f+2     :     0.007399
      f-2     :     0.004172
      f+3     :     0.009313
      f-3     :     0.004818

 10 F s       :     3.920007  s :     3.920007
      pz      :     1.899753  p :     5.271611
      px      :     1.886248
      py      :     1.485610
      dz2     :     0.002203  d :     0.015904
      dxz     :     0.000326
      dyz     :     0.003177
      dx2y2   :     0.005856
      dxy     :     0.004342
      f0      :     0.000056  f :     0.000671
      f+1     :     0.000018
      f-1     :     0.000130
      f+2     :     0.000079
      f-2     :     0.000021
      f+3     :     0.000179
      f-3     :     0.000188

 11 F s       :     3.921896  s :     3.921896
      pz      :     1.522943  p :     5.275729
      px      :     1.878323
      py      :     1.874463
      dz2     :     0.006329  d :     0.015647
      dxz     :     0.004376
      dyz     :     0.003517
      dx2y2   :     0.000717
      dxy     :     0.000707
      f0      :     0.000203  f :     0.000666
      f+1     :     0.000180
      f-1     :     0.000155
      f+2     :     0.000055
      f-2     :     0.000063
      f+3     :     0.000006
      f-3     :     0.000004

 12 F s       :     3.924096  s :     3.924096
      pz      :     1.860125  p :     5.237180
      px      :     1.901711
      py      :     1.475344
      dz2     :     0.002196  d :     0.016915
      dxz     :     0.000431
      dyz     :     0.004252
      dx2y2   :     0.006064
      dxy     :     0.003971
      f0      :     0.000069  f :     0.000715
      f+1     :     0.000009
      f-1     :     0.000124
      f+2     :     0.000142
      f-2     :     0.000032
      f+3     :     0.000149
      f-3     :     0.000190

 13 F s       :     3.926617  s :     3.926617
      pz      :     1.454626  p :     5.242987
      px      :     1.897114
      py      :     1.891248
      dz2     :     0.008518  d :     0.016571
      dxz     :     0.004240
      dyz     :     0.003312
      dx2y2   :     0.000266
      dxy     :     0.000235
      f0      :     0.000336  f :     0.000698
      f+1     :     0.000186
      f-1     :     0.000146
      f+2     :     0.000014
      f-2     :     0.000013
      f+3     :     0.000002
      f-3     :     0.000001

 14 F s       :     3.928075  s :     3.928075
      pz      :     1.786606  p :     5.229391
      px      :     1.865088
      py      :     1.577697
      dz2     :     0.002274  d :     0.016967
      dxz     :     0.001469
      dyz     :     0.005410
      dx2y2   :     0.003965
      dxy     :     0.003850
      f0      :     0.000078  f :     0.000714
      f+1     :     0.000020
      f-1     :     0.000124
      f+2     :     0.000154
      f-2     :     0.000123
      f+3     :     0.000117
      f-3     :     0.000099

 15 F s       :     3.926618  s :     3.926618
      pz      :     1.493447  p :     5.228848
      px      :     1.877620
      py      :     1.857781
      dz2     :     0.007364  d :     0.016988
      dxz     :     0.004308
      dyz     :     0.004088
      dx2y2   :     0.000536
      dxy     :     0.000692
      f0      :     0.000255  f :     0.000713
      f+1     :     0.000177
      f-1     :     0.000179
      f+2     :     0.000038
      f-2     :     0.000057
      f+3     :     0.000003
      f-3     :     0.000004

 16 F s       :     3.926645  s :     3.926645
      pz      :     1.691887  p :     5.233200
      px      :     1.887918
      py      :     1.653395
      dz2     :     0.002872  d :     0.016158
      dxz     :     0.001960
      dyz     :     0.006307
      dx2y2   :     0.002584
      dxy     :     0.002434
      f0      :     0.000078  f :     0.000678
      f+1     :     0.000030
      f-1     :     0.000185
      f+2     :     0.000164
      f-2     :     0.000120
      f+3     :     0.000053
      f-3     :     0.000049

 17 F s       :     3.930142  s :     3.930142
      pz      :     1.534312  p :     5.229392
      px      :     1.901341
      py      :     1.793739
      dz2     :     0.005968  d :     0.016783
      dxz     :     0.003131
      dyz     :     0.005546
      dx2y2   :     0.000971
      dxy     :     0.001167
      f0      :     0.000178  f :     0.000697
      f+1     :     0.000091
      f-1     :     0.000252
      f+2     :     0.000077
      f-2     :     0.000081
      f+3     :     0.000010
      f-3     :     0.000007

 18 F s       :     3.931266  s :     3.931266
      pz      :     1.682958  p :     5.194786
      px      :     1.902250
      py      :     1.609578
      dz2     :     0.003943  d :     0.018781
      dxz     :     0.001841
      dyz     :     0.006631
      dx2y2   :     0.003767
      dxy     :     0.002600
      f0      :     0.000086  f :     0.000779
      f+1     :     0.000013
      f-1     :     0.000222
      f+2     :     0.000206
      f-2     :     0.000113
      f+3     :     0.000062
      f-3     :     0.000078

 19 F s       :     3.928974  s :     3.928974
      pz      :     1.882108  p :     5.222889
      px      :     1.895493
      py      :     1.445287
      dz2     :     0.002214  d :     0.016716
      dxz     :     0.000297
      dyz     :     0.004067
      dx2y2   :     0.006517
      dxy     :     0.003621
      f0      :     0.000069  f :     0.000702
      f+1     :     0.000008
      f-1     :     0.000129
      f+2     :     0.000122
      f-2     :     0.000018
      f+3     :     0.000141
      f-3     :     0.000215

 20 F s       :     3.926483  s :     3.926483
      pz      :     1.634907  p :     5.223526
      px      :     1.714622
      py      :     1.873997
      dz2     :     0.004135  d :     0.016619
      dxz     :     0.006298
      dyz     :     0.002389
      dx2y2   :     0.002123
      dxy     :     0.001673
      f0      :     0.000102  f :     0.000706
      f+1     :     0.000223
      f-1     :     0.000052
      f+2     :     0.000145
      f-2     :     0.000118
      f+3     :     0.000035
      f-3     :     0.000031

 21 F s       :     3.924921  s :     3.924921
      pz      :     1.883571  p :     5.219934
      px      :     1.890021
      py      :     1.446342
      dz2     :     0.002390  d :     0.017233
      dxz     :     0.000217
      dyz     :     0.004161
      dx2y2   :     0.006897
      dxy     :     0.003568
      f0      :     0.000073  f :     0.000766
      f+1     :     0.000010
      f-1     :     0.000145
      f+2     :     0.000126
      f-2     :     0.000016
      f+3     :     0.000153
      f-3     :     0.000242

 22 F s       :     3.922993  s :     3.922993
      pz      :     1.874946  p :     5.216259
      px      :     1.497111
      py      :     1.844202
      dz2     :     0.002414  d :     0.017322
      dxz     :     0.003884
      dyz     :     0.000555
      dx2y2   :     0.005645
      dxy     :     0.004825
      f0      :     0.000072  f :     0.000777
      f+1     :     0.000134
      f-1     :     0.000025
      f+2     :     0.000094
      f-2     :     0.000053
      f+3     :     0.000182
      f-3     :     0.000217

 23 F s       :     3.924651  s :     3.924651
      pz      :     1.594948  p :     5.218763
      px      :     1.754389
      py      :     1.869426
      dz2     :     0.004933  d :     0.017345
      dxz     :     0.006233
      dyz     :     0.002968
      dx2y2   :     0.001680
      dxy     :     0.001530
      f0      :     0.000130  f :     0.000771
      f+1     :     0.000246
      f-1     :     0.000082
      f+2     :     0.000134
      f-2     :     0.000126
      f+3     :     0.000028
      f-3     :     0.000026


SPIN
  0 C s       :    -0.000107  s :    -0.000107
      pz      :     0.000049  p :     0.000070
      px      :     0.000041
      py      :    -0.000020
      dz2     :     0.000006  d :     0.000005
      dxz     :    -0.000002
      dyz     :     0.000006
      dx2y2   :    -0.000004
      dxy     :    -0.000000
      f0      :    -0.000000  f :     0.000001
      f+1     :     0.000000
      f-1     :     0.000000
      f+2     :     0.000000
      f-2     :     0.000000
      f+3     :     0.000000
      f-3     :     0.000000

  1 O s       :     0.000016  s :     0.000016
      pz      :     0.000113  p :     0.000196
      px      :     0.000049
      py      :     0.000034
      dz2     :    -0.000000  d :    -0.000000
      dxz     :    -0.000000
      dyz     :     0.000000
      dx2y2   :     0.000000
      dxy     :    -0.000000
      f0      :    -0.000000  f :    -0.000000
      f+1     :     0.000000
      f-1     :    -0.000000
      f+2     :    -0.000000
      f-2     :    -0.000000
      f+3     :    -0.000000
      f-3     :    -0.000000

  2 O s       :     0.000008  s :     0.000008
      pz      :     0.000011  p :     0.000020
      px      :    -0.000017
      py      :     0.000027
      dz2     :     0.000000  d :    -0.000000
      dxz     :    -0.000000
      dyz     :     0.000000
      dx2y2   :    -0.000000
      dxy     :     0.000000
      f0      :    -0.000000  f :     0.000000
      f+1     :    -0.000000
      f-1     :     0.000000
      f+2     :     0.000000
      f-2     :    -0.000000
      f+3     :     0.000000
      f-3     :     0.000000

  3 C s       :    -0.000034  s :    -0.000034
      pz      :     0.000000  p :     0.000269
      px      :     0.000230
      py      :     0.000039
      dz2     :    -0.000004  d :    -0.000007
      dxz     :     0.000008
      dyz     :    -0.000003
      dx2y2   :    -0.000017
      dxy     :     0.000009
      f0      :    -0.000000  f :     0.000001
      f+1     :    -0.000000
      f-1     :     0.000000
      f+2     :     0.000000
      f-2     :     0.000000
      f+3     :     0.000000
      f-3     :     0.000000

  4 C s       :    -0.000119  s :    -0.000119
      pz      :     0.000346  p :     0.000825
      px      :     0.000012
      py      :     0.000468
      dz2     :    -0.000001  d :    -0.000029
      dxz     :    -0.000011
      dyz     :     0.000005
      dx2y2   :     0.000007
      dxy     :    -0.000029
      f0      :     0.000000  f :     0.000007
      f+1     :     0.000000
      f-1     :     0.000000
      f+2     :     0.000002
      f-2     :    -0.000000
      f+3     :     0.000004
      f-3     :     0.000001

  5 C s       :    -0.003687  s :    -0.003687
      pz      :    -0.000918  p :     0.000980
      px      :    -0.000755
      py      :     0.002652
      dz2     :    -0.000244  d :    -0.000630
      dxz     :    -0.000100
      dyz     :    -0.000010
      dx2y2   :    -0.000312
      dxy     :     0.000036
      f0      :     0.000006  f :     0.000021
      f+1     :    -0.000004
      f-1     :    -0.000004
      f+2     :     0.000008
      f-2     :     0.000009
      f+3     :     0.000010
      f-3     :    -0.000004

  6 C s       :    -0.002309  s :    -0.002309
      pz      :     0.009090  p :    -0.014602
      px      :    -0.023816
      py      :     0.000124
      dz2     :    -0.000250  d :     0.013712
      dxz     :     0.004350
      dyz     :     0.003238
      dx2y2   :     0.003226
      dxy     :     0.003147
      f0      :     0.000346  f :     0.001634
      f+1     :     0.000202
      f-1     :     0.000136
      f+2     :     0.000384
      f-2     :     0.000195
      f+3     :     0.000277
      f-3     :     0.000094

  7 C s       :     0.065587  s :     0.065587
      pz      :     0.476841  p :     0.788040
      px      :     0.036078
      py      :     0.275120
      dz2     :     0.000126  d :     0.001655
      dxz     :     0.002295
      dyz     :    -0.001553
      dx2y2   :    -0.001180
      dxy     :     0.001967
      f0      :    -0.000538  f :    -0.003016
      f+1     :    -0.000346
      f-1     :    -0.001027
      f+2     :    -0.000536
      f-2     :    -0.000468
      f+3     :    -0.000103
      f-3     :     0.000001

  8 C s       :    -0.015682  s :    -0.015682
      pz      :    -0.009917  p :    -0.044812
      px      :    -0.026932
      py      :    -0.007962
      dz2     :     0.001888  d :     0.020731
      dxz     :     0.015293
      dyz     :    -0.000272
      dx2y2   :     0.000851
      dxy     :     0.002971
      f0      :     0.000212  f :     0.001378
      f+1     :     0.000205
      f-1     :     0.000029
      f+2     :     0.000269
      f-2     :     0.000121
      f+3     :     0.000197
      f-3     :     0.000346

  9 C s       :     0.006489  s :     0.006489
      pz      :     0.011138  p :     0.017952
      px      :     0.001759
      py      :     0.005056
      dz2     :     0.000389  d :     0.001976
      dxz     :     0.000315
      dyz     :     0.000259
      dx2y2   :     0.000965
      dxy     :     0.000048
      f0      :    -0.000001  f :    -0.000011
      f+1     :    -0.000020
      f-1     :    -0.000003
      f+2     :     0.000028
      f-2     :    -0.000005
      f+3     :     0.000003
      f-3     :    -0.000013

 10 F s       :     0.000004  s :     0.000004
      pz      :     0.000002  p :    -0.000006
      px      :    -0.000003
      py      :    -0.000005
      dz2     :     0.000000  d :     0.000001
      dxz     :    -0.000000
      dyz     :     0.000000
      dx2y2   :     0.000001
      dxy     :     0.000000
      f0      :    -0.000000  f :     0.000000
      f+1     :    -0.000000
      f-1     :     0.000000
      f+2     :    -0.000000
      f-2     :    -0.000000
      f+3     :     0.000000
      f-3     :     0.000000

 11 F s       :     0.000001  s :     0.000001
      pz      :     0.000000  p :     0.000058
      px      :     0.000049
      py      :     0.000008
      dz2     :     0.000000  d :    -0.000000
      dxz     :    -0.000000
      dyz     :     0.000000
      dx2y2   :    -0.000000
      dxy     :     0.000000
      f0      :    -0.000000  f :    -0.000000
      f+1     :    -0.000000
      f-1     :     0.000000
      f+2     :    -0.000000
      f-2     :    -0.000000
      f+3     :    -0.000000
      f-3     :    -0.000000

 12 F s       :    -0.000051  s :    -0.000051
      pz      :    -0.000006  p :     0.000033
      px      :     0.000025
      py      :     0.000014
      dz2     :     0.000000  d :     0.000003
      dxz     :     0.000002
      dyz     :     0.000001
      dx2y2   :     0.000000
      dxy     :     0.000001
      f0      :    -0.000000  f :     0.000000
      f+1     :     0.000000
      f-1     :    -0.000000
      f+2     :     0.000000
      f-2     :    -0.000000
      f+3     :     0.000000
[...]
 14:     95.16   0.000590    2.98  0.001935  (-0.024521  0.016396 -0.032637)
 15:    129.35   0.000368    1.86  0.000889  ( 0.026419 -0.008930  0.010544)
 16:    145.97   0.001142    5.77  0.002442  ( 0.047169 -0.014717  0.000486)
 17:    176.27   0.001127    5.70  0.001996  ( 0.024766 -0.009503  0.035947)
 18:    189.17   0.000387    1.96  0.000638  ( 0.004637 -0.000692  0.024824)
 19:    199.30   0.000220    1.11  0.000345  (-0.017691 -0.004537  0.003362)
 20:    208.81   0.001113    5.63  0.001664  (-0.019759 -0.035050 -0.006725)
 21:    215.28   0.000831    4.20  0.001204  ( 0.007645 -0.010070 -0.032320)
 22:    245.60   0.000027    0.14  0.000034  ( 0.002119 -0.000323 -0.005440)
 23:    250.07   0.000079    0.40  0.000098  ( 0.000339 -0.003044 -0.009419)
 24:    260.25   0.000238    1.21  0.000286  (-0.005514  0.000977 -0.015957)
 25:    275.31   0.000993    5.02  0.001125  ( 0.033327  0.000736 -0.003770)
 26:    295.20   0.000225    1.14  0.000238  (-0.012497  0.008873  0.001711)
 27:    310.45   0.000088    0.45  0.000089  ( 0.007353 -0.004860 -0.003316)
 28:    339.77   0.000001    0.01  0.000001  ( 0.000962 -0.000375 -0.000399)
 29:    342.84   0.000472    2.38  0.000430  (-0.015660  0.004915 -0.012654)
 30:    360.54   0.000059    0.30  0.000051  (-0.004921 -0.001982 -0.004775)
 31:    364.08   0.000091    0.46  0.000078  (-0.008411  0.001858  0.001908)
 32:    373.00   0.000483    2.44  0.000404  ( 0.019768 -0.000608  0.003585)
 33:    376.75   0.000003    0.01  0.000002  ( 0.000021  0.000546  0.001341)
 34:    415.64   0.000376    1.90  0.000282  (-0.009446 -0.013881 -0.000438)
 35:    438.05   0.000289    1.46  0.000206  ( 0.000649  0.009805 -0.010461)
 36:    474.03   0.000737    3.73  0.000486  ( 0.018478 -0.010554 -0.005716)
 37:    496.92   0.007981   40.33  0.005012  ( 0.069379 -0.014095 -0.000080)
 38:    535.67   0.003514   17.76  0.002047  ( 0.044046 -0.008319  0.006133)
 39:    540.64   0.004322   21.84  0.002495  (-0.048269  0.007171  0.010639)
 40:    560.29   0.004619   23.34  0.002573  (-0.034496  0.029410 -0.022753)
 41:    576.57   0.008715   44.04  0.004717  (-0.062568 -0.023835  0.015308)
 42:    600.76   0.000490    2.48  0.000255  (-0.011613  0.010804 -0.001726)
 43:    606.59   0.003024   15.28  0.001556  (-0.038529 -0.003824 -0.007532)
 44:    642.46   0.003448   17.42  0.001675  ( 0.008825 -0.019013 -0.035148)
 45:    657.95   0.039266  198.44  0.018624  (-0.136005 -0.009192  0.006483)
 46:    671.09   0.003268   16.52  0.001520  ( 0.033050 -0.013093 -0.015999)
 47:    722.37   0.002007   10.14  0.000867  ( 0.022973 -0.003446 -0.018089)
 48:    735.35   0.006614   33.42  0.002807  ( 0.028921  0.012054  0.042721)
 49:    783.55   0.003013   15.23  0.001200  ( 0.023986 -0.007518 -0.023836)
 50:    803.42   0.019236   97.21  0.007472  ( 0.051806  0.019800 -0.066301)
 51:    891.36   0.006716   33.94  0.002351  ( 0.033045  0.016464  0.031434)
 52:   1003.80   0.033935  171.50  0.010550  (-0.039863 -0.014789 -0.093499)
 53:   1062.44   0.009836   49.71  0.002889  (-0.025692 -0.039697 -0.025555)
 54:   1099.07   0.051175  258.62  0.014530  ( 0.001951  0.104723  0.059661)
 55:   1107.76   0.046958  237.31  0.013228  ( 0.036311  0.083125  0.070713)
 56:   1129.76   0.024817  125.41  0.006855  (-0.014607 -0.035288  0.073459)
 57:   1130.39   0.043435  219.50  0.011991  (-0.001331  0.000029  0.109495)
 58:   1144.91   0.021400  108.15  0.005833  ( 0.052915  0.054988 -0.003010)
 59:   1156.78   0.096620  488.28  0.026065  (-0.027323 -0.077783 -0.138810)
 60:   1161.92   0.133588  675.10  0.035879  ( 0.031424 -0.177752  0.057406)
 61:   1175.81   0.033137  167.46  0.008795  (-0.045659  0.049466 -0.065293)
 62:   1194.41   0.053120  268.45  0.013879  (-0.032742  0.108962 -0.030563)
 63:   1199.59   0.104109  526.13  0.027083  (-0.115270 -0.053758  0.104431)
 64:   1209.73   0.001227    6.20  0.000317  ( 0.000377  0.005546  0.016901)
 65:   1271.38   0.004106   20.75  0.001008  ( 0.020584  0.009439  0.022250)
 66:   1288.22   0.002542   12.85  0.000616  (-0.005214 -0.011934 -0.021124)
 67:   1317.03   0.030355  153.40  0.007193  ( 0.074388 -0.003980  0.040536)
 68:   1355.62   0.013438   67.91  0.003093  ( 0.049039  0.008375 -0.024869)
 69:   1385.55   0.060278  304.62  0.013576  (-0.093366 -0.027945  0.063859)
 70:   1421.17   0.004122   20.83  0.000905  ( 0.008451 -0.019813  0.021001)
 71:   1758.31   0.160461  810.91  0.028479  ( 0.000538  0.157930  0.059468)

* The epsilon (eps) is given for a Dirac delta lineshape.
** The dipole moment derivative (T) already includes vibrational overlap.

The first frequency considered to be a vibration is 7
The total number of vibrations considered is 65


--------------------------
THERMOCHEMISTRY AT 298.15K
--------------------------

Temperature         ...   298.15 K
Pressure            ...     1.00 atm
Total Mass          ...   394.06 AMU
Quasi RRHO          ...     True
Cut-Off Frequency   ...     1.00 cm^-1

Throughout the following assumptions are being made:
  (1) The electronic state is orbitally nondegenerate
      but the spin degeneracy is treated
  (2) There are no thermally accessible electronically excited states
  (3) Hindered rotations indicated by low frequency modes are not
      treated as such but are treated as vibrations and this may
      cause some error
  (4) All equations used are the standard statistical mechanics
      equations for an ideal gas
  (5) All vibrations are strictly harmonic

freq.      18.03  E(vib)   ...       0.57 
freq.      34.31  E(vib)   ...       0.54 
freq.      44.04  E(vib)   ...       0.53 
freq.      47.64  E(vib)   ...       0.53 
freq.      60.17  E(vib)   ...       0.51 
freq.      62.60  E(vib)   ...       0.51 
freq.      77.15  E(vib)   ...       0.49 
freq.      95.16  E(vib)   ...       0.47 
freq.     129.35  E(vib)   ...       0.43 
freq.     145.97  E(vib)   ...       0.41 
freq.     176.27  E(vib)   ...       0.38 
freq.     189.17  E(vib)   ...       0.36 
freq.     199.30  E(vib)   ...       0.35 
freq.     208.81  E(vib)   ...       0.34 
freq.     215.28  E(vib)   ...       0.34 
freq.     245.60  E(vib)   ...       0.31 
freq.     250.07  E(vib)   ...       0.31 
freq.     260.25  E(vib)   ...       0.30 
freq.     275.31  E(vib)   ...       0.28 
freq.     295.20  E(vib)   ...       0.27 
freq.     310.45  E(vib)   ...       0.26 
freq.     339.77  E(vib)   ...       0.23 
freq.     342.84  E(vib)   ...       0.23 
freq.     360.54  E(vib)   ...       0.22 
freq.     364.08  E(vib)   ...       0.22 
freq.     373.00  E(vib)   ...       0.21 
freq.     376.75  E(vib)   ...       0.21 
freq.     415.64  E(vib)   ...       0.18 
freq.     438.05  E(vib)   ...       0.17 
freq.     474.03  E(vib)   ...       0.15 
freq.     496.92  E(vib)   ...       0.14 
freq.     535.67  E(vib)   ...       0.12 
freq.     540.64  E(vib)   ...       0.12 
freq.     560.29  E(vib)   ...       0.11 
freq.     576.57  E(vib)   ...       0.11 
freq.     600.76  E(vib)   ...       0.10 
freq.     606.59  E(vib)   ...       0.10 
freq.     642.46  E(vib)   ...       0.09 
freq.     657.95  E(vib)   ...       0.08 
freq.     671.09  E(vib)   ...       0.08 
freq.     722.37  E(vib)   ...       0.07 
freq.     735.35  E(vib)   ...       0.06 
freq.     783.55  E(vib)   ...       0.05 
freq.     803.42  E(vib)   ...       0.05 
freq.     891.36  E(vib)   ...       0.04 
freq.    1003.80  E(vib)   ...       0.02 
freq.    1062.44  E(vib)   ...       0.02 
freq.    1099.07  E(vib)   ...       0.02 
freq.    1107.76  E(vib)   ...       0.02 
freq.    1129.76  E(vib)   ...       0.01 
freq.    1130.39  E(vib)   ...       0.01 
freq.    1144.91  E(vib)   ...       0.01 
freq.    1156.78  E(vib)   ...       0.01 
freq.    1161.92  E(vib)   ...       0.01 
freq.    1175.81  E(vib)   ...       0.01 
freq.    1194.41  E(vib)   ...       0.01 
freq.    1199.59  E(vib)   ...       0.01 
freq.    1209.73  E(vib)   ...       0.01 
freq.    1271.38  E(vib)   ...       0.01 
freq.    1288.22  E(vib)   ...       0.01 
freq.    1317.03  E(vib)   ...       0.01 
freq.    1355.62  E(vib)   ...       0.01 
freq.    1385.55  E(vib)   ...       0.00 
freq.    1421.17  E(vib)   ...       0.00 
freq.    1758.31  E(vib)   ...       0.00 

------------
INNER ENERGY
------------

The inner energy is: U= E(el) + E(ZPE) + E(vib) + E(rot) + E(trans)
    E(el)   - is the total energy from the electronic structure calculation
              = E(kin-el) + E(nuc-el) + E(el-el) + E(nuc-nuc)
    E(ZPE)  - the the zero temperature vibrational energy from the frequency calculation
    E(vib)  - the the finite temperature correction to E(ZPE) due to population
              of excited vibrational states
    E(rot)  - is the rotational thermal energy
    E(trans)- is the translational thermal energy

Summary of contributions to the inner energy U:
Electronic energy                ...  -1853.11692876 Eh
Zero point energy                ...      0.09391394 Eh      58.93 kcal/mol
Thermal vibrational correction   ...      0.01886959 Eh      11.84 kcal/mol
Thermal rotational correction    ...      0.00141627 Eh       0.89 kcal/mol
Thermal translational correction ...      0.00141627 Eh       0.89 kcal/mol
-----------------------------------------------------------------------
Total thermal energy                  -1853.00131268 Eh


Summary of corrections to the electronic energy:
(perhaps to be used in another calculation)
Total thermal correction                  0.02170213 Eh      13.62 kcal/mol
Non-thermal (ZPE) correction              0.09391394 Eh      58.93 kcal/mol
-----------------------------------------------------------------------
Total correction                          0.11561607 Eh      72.55 kcal/mol


--------
ENTHALPY
--------

The enthalpy is H = U + kB*T
                kB is Boltzmann's constant
Total thermal energy              ...  -1853.00131268 Eh 
Thermal Enthalpy correction       ...      0.00094421 Eh       0.59 kcal/mol
-----------------------------------------------------------------------
Total Enthalpy                    ...  -1853.00036847 Eh


Note: Only C1 symmetry has been detected, increase convergence thresholds 
      if your molecule has a higher symmetry. Symmetry factor of 1.0 is   
      used for the rotational entropy correction. 
 

Note: Rotational entropy computed according to Herzberg 
Infrared and Raman Spectra, Chapter V,1, Van Nostrand Reinhold, 1945 
Point Group:  C1, Symmetry Number:   1  
Rotational constants in cm-1:     0.019289     0.004255     0.004192 

Vibrational entropy computed according to the QRRHO of S. Grimme
Chem.Eur.J. 2012 18 9955 using a reference frequency of 100.0 cm-1


-------
ENTROPY
-------

The entropy contributions are T*S = T*(S(el)+S(vib)+S(rot)+S(trans))
     S(el)   - electronic entropy
     S(vib)  - vibrational entropy
     S(rot)  - rotational entropy
     S(trans)- translational entropy
The entropies will be listed as multiplied by the temperature to get
units of energy

Electronic entropy                ...      0.00065446 Eh      0.41 kcal/mol
Vibrational entropy               ...      0.03385964 Eh     21.25 kcal/mol
Rotational entropy                ...      0.01653673 Eh     10.38 kcal/mol
Translational entropy             ...      0.02081341 Eh     13.06 kcal/mol
-----------------------------------------------------------------------
Final entropy term                ...      0.07186423 Eh     45.10 kcal/mol

In case the symmetry of your molecule has not been determined correctly
or in case you have a reason to use a different symmetry number we print 
out the resulting rotational entropy values for sn=1,12:

 non-linear molecules -----------------------------------
|  sn= 1 | S(rot)=       0.01653673 Eh     10.38 kcal/mol|
|  sn= 2 | S(rot)=       0.01588227 Eh      9.97 kcal/mol|
|  sn= 3 | S(rot)=       0.01549944 Eh      9.73 kcal/mol|
|  sn= 4 | S(rot)=       0.01522781 Eh      9.56 kcal/mol|
|  sn= 5 | S(rot)=       0.01501713 Eh      9.42 kcal/mol|
|  sn= 6 | S(rot)=       0.01484498 Eh      9.32 kcal/mol|
|  sn= 7 | S(rot)=       0.01469944 Eh      9.22 kcal/mol|
|  sn= 8 | S(rot)=       0.01457336 Eh      9.14 kcal/mol|
|  sn= 9 | S(rot)=       0.01446215 Eh      9.08 kcal/mol|
|  sn=10 | S(rot)=       0.01436267 Eh      9.01 kcal/mol|
|  sn=11 | S(rot)=       0.01427268 Eh      8.96 kcal/mol|
|  sn=12 | S(rot)=       0.01419052 Eh      8.90 kcal/mol|
 linear molecules ---------------------------------------
|  Dinfh | S(rot)=       0.01049490 Eh      6.59 kcal/mol|
|  Cinfv | S(rot)=       0.01114935 Eh      7.00 kcal/mol|
 --------------------------------------------------------


-------------------
GIBBS FREE ENERGY
-------------------

The Gibbs free energy is G = H - T*S

Total enthalpy                    ...  -1853.00036847 Eh 
Total entropy correction          ...     -0.07186423 Eh    -45.10 kcal/mol
-----------------------------------------------------------------------
Final Gibbs free energy         ...  -1853.07223271 Eh

For completeness - the Gibbs free energy minus the electronic energy
G-E(el)                           ...      0.04469605 Eh     28.05 kcal/mol


Maximum memory used throughout the entire PROP-calculation: 522.5 MB

--------------------------------
SUGGESTED CITATIONS FOR THIS RUN
--------------------------------

Below you find a list of papers that are relevant to this ORCA run
We neither can nor want to force you to cite these papers, but we appreciate if you do
You receive ORCA, which is the product of decades of hard work by many enthusiastic individuals, for free
The only thing we kindly ask in return is that you cite our papers,
We deeply appreciate it, if you show your appreciation for ORCA by not just citing the generic ORCA reference.

Please note that relegating all ORCA citations to the supporting information does *not* help us.
SI sections are not indexed - citations you put there will not count into any citation statistics
But we need these citations in order to attract the funding resources that allow us to do what we are doing

Therefore, if you are a happy ORCA user, please consider citing a few of the papers listed below in the main body of your paper

In addition to the list printed below, the program has created the file rf_mecn_freq_r2s_C6_D_B.bibtex that contains the list in bibtex format
You can import this file easily into all common literature databanks and citation aid programs


List of essential papers. We consider these as the minimum necessary citations

  1. Neese,F.
     Software update: the ORCA program system, version 5.0
     WIRES Comput. Molec. Sci., 2022 12(1)e1606
     doi.org/10.1002/wcms.1606

List of papers to cite with high priority. The work reported in these papers was absolutely
necessary for this run to complete.
Our perspective: the developers of density functionals and basis sets usually get cited in chemistry papers
Good! But without the algorithms to do something with them, the functionals or basis sets would not do anything.
Hence, in our opinion, the algorithm design and method developments papers are equally worthy of getting cited

  1. Neese,F.
     An improvement of the resolution of the identity approximation for the formation of the Coulomb matrix
     J. Comp. Chem., 2003 24(14)1740-1747
     doi.org/10.1002/jcc.10318
  2. Neese,F.; Wennmohs,F.; Hansen,A.; Becker,U.
     Efficient, approximate and parallel Hartree-Fock and hybrid DFT calculations. A 'chain-of-spheres' algorithm for the Hartree-Fock exchange
     Chem. Phys., 2009 356(1-3)98-109
     doi.org/10.1016/j.chemphys.2008.10.036
  3. Bykov,D.; Petrenko,T.; Izsak,R.; Kossmann,S.; Becker,U.; Valeev,E.; Neese,F.
     Efficient implementation of the analytic second derivatives of Hartree-Fock and hybrid DFT energies: a detailed analysis of different approximations
     Molec. Phys., 2015 113 1961-1977
     doi.org/10.1080/00268976.2015.1025114
  4. Garcia-Rates,M.; Neese,F.
     Efficient implementation of the analytical second derivatives of hartree-fock and hybrid DFT energies within the framework of the conductor-like polarizable continuum model
     J. Comput. Chem., 2019 40 1816-1828
     doi.org/10.1002/jcc.25833
  5. Garcia-Rates,M.; Neese,F.
     Effect of the Solute Cavity on the Solvation Energy and its Derivatives within the Framework of the Gaussian Charge Scheme
     J. Comput. Chem., 2020 41 922-939
     doi.org/10.1002/jcc.26139
  6. Helmich-Paris,B.; de Souza,B.; Neese,F.; Izsák,R.
     An improved chain of spheres for exchange algorithm
     J. Chem. Phys., 2021 155 104109
     doi.org/doi: 10.1063/5.0058766.
  7. Neese,F.
     The SHARK Integral Generation and Digestion System
     J. Comp. Chem., 2022  1-16
     doi.org/10.1002/jcc.26942
  8. Lehtola,S.; Steigemann,C.; Oliveira,M.; Marques,M.
     Recent developments in Libxc - A comprehensive library of functionals for density functional theory
     Software X, 2018 7 
     doi.org/10.1016/j.softx.2017.11.002
  9. Grimme,S.; Antony,J.; Ehrlich,S.; Krieg,H.
     A consistent and accurate ab initio parametrization of density functional dispersion correction (DFT-D) for the 94 elements H-Pu
     J. Chem. Phys., 2010 132 154104
     doi.org/10.1063/1.3382344
 10. Grimme,S.; Ehrlich,S.; Goerigk,L.
     Effect of the damping function in dispersion corrected density functional theory
     J. Comput. Chem., 2011 32(7)1456-1465
     doi.org/10.1002/jcc.21759
 11. Bursch,M.; Neugebauer,H.; Ehlert,S.; Grimme,S.
     Dispersion corrected r2SCAN based global hybrid functionals: r2SCANh, r2SCAN0, and r2SCAN50
     J. Phys. Chem., 2022 156(13)134105
     doi.org/10.1063/5.0086040

List of suggested additional citations. These are papers that are important in the 'surrounding' of 
of this run, or papers that preceded the highly important papers. If you like your results we are grateful for a citation.

  1. Izsak,R.; Neese,F.
     An overlap fitted chain of spheres exchange method
     J. Chem. Phys., 2011 135 144105
     doi.org/10.1063/1.3646921
  2. Izsak,R.; Hansen,A.; Neese,F.
     The resolution of identity and chain of spheres approximations for the LPNO-CCSD singles Fock term
     Molec. Phys., 2012 110 2413-2417
     doi.org/10.1080/00268976.2012.687466
  3. Neese,F.
     The ORCA program system
     WIRES Comput. Molec. Sci., 2012 2(1)73-78
     doi.org/10.1002/wcms.81
  4. Izsak,R.; Neese,F.; Klopper,W.
     Robust fitting techniques in the chain of spheres approximation to the Fock exchange: The role of the complementary space
     J. Chem. Phys., 2013 139 
     doi.org/10.1063/1.4819264
  5. Neese,F.
     Software update: the ORCA program system, version 4.0
     WIRES Comput. Molec. Sci., 2018 8(1)1-6
     doi.org/10.1002/wcms.1327
  6. Neese,F.; Wennmohs,F.; Becker,U.; Riplinger,C.
     The ORCA quantum chemistry program package
     J. Chem. Phys., 2020 152 Art. No. L224108
     doi.org/10.1063/5.0004608
  7. Wittmann,L.; Neugebauer,H.; Grimme,S.; Bursch,M.
     Dispersion-corrected r2SCAN based double-hybrid functionals
     J. Chem. Phys., 2023 159(22)224103
     doi.org/10.1063/5.0174988

List of optional additional citations

  1. Neese,F.
     Approximate second-order SCF convergence for spin unrestricted wavefunctions
     Chem. Phys. Lett., 2000 325(1-3)93-98
     doi.org/10.1016/s0009-2614(00)00662-x

Timings for individual modules:

Sum of individual times          ...     1277.182 sec (=  21.286 min)
Startup calculation              ...        3.990 sec (=   0.067 min)   0.3 %
SCF iterations                   ...       98.610 sec (=   1.643 min)   7.7 %
Property integrals               ...      379.775 sec (=   6.330 min)  29.7 %
SCF Response                     ...      538.148 sec (=   8.969 min)  42.1 %
Property calculations            ...      256.658 sec (=   4.278 min)  20.1 %
                             ****ORCA TERMINATED NORMALLY****
TOTAL RUN TIME: 0 days 0 hours 21 minutes 17 seconds 908 msec
