
                                 *****************
                                 * O   R   C   A *
                                 *****************

                                            #,                                       
                                            ###                                      
                                            ####                                     
                                            #####                                    
                                            ######                                   
                                           ########,                                 
                                     ,,################,,,,,                         
                               ,,#################################,,                 
                          ,,##########################################,,             
                       ,#########################################, ''#####,          
                    ,#############################################,,   '####,        
                  ,##################################################,,,,####,       
                ,###########''''           ''''###############################       
              ,#####''   ,,,,##########,,,,          '''####'''          '####       
            ,##' ,,,,###########################,,,                        '##       
           ' ,,###''''                  '''############,,,                           
         ,,##''                                '''############,,,,        ,,,,,,###''
      ,#''                                            '''#######################'''  
     '                                                          ''''####''''         
             ,#######,   #######,   ,#######,      ##                                
            ,#'     '#,  ##    ##  ,#'     '#,    #''#        ,####,   ,####,        
            ##       ##  ##   ,#'  ##            #'  '#       #'       #'  '#        
            ##       ##  #######   ##           ,######,      #####,   #    #        
            '#,     ,#'  ##    ##  '#,     ,#' ,#      #,     #,   #   #,  ,#        
             '#######'   ##     ##  '#######'  #'      '#     '####' # '####'        



                #########################################################
                #                        -***-                          #
                #          Department of theory and spectroscopy        #
                #                                                       #
                #                      Frank Neese                      #
                #                                                       #
                #     Directorship, Architecture, Infrastructure        #
                #                    SHARK, DRIVERS                     #
                #        Core code/Algorithms in most modules           #
                #                                                       #
                #        Max Planck Institute fuer Kohlenforschung      #
                #                Kaiser Wilhelm Platz 1                 #
                #                 D-45470 Muelheim/Ruhr                 #
                #                      Germany                          #
                #                                                       #
                #                  All rights reserved                  #
                #                        -***-                          #
                #########################################################


                         Program Version 6.0.1  -  RELEASE   -


 With contributions from (in alphabetic order):
[Max-Planck-Institut fuer Kohlenforschung]                               
  Daniel Aravena         : Magnetic Suceptibility                        
  Michael Atanasov       : Ab Initio Ligand Field Theory (pilot matlab implementation)
  Alexander A. Auer      : GIAO ZORA, VPT2 properties, NMR spectrum      
  Ute Becker             : All parallelization in ORCA, NUMFREQ, NUMCALC 
  Giovanni Bistoni       : ED, misc. LED, open-shell LED, HFLD           
  Martin Brehm           : Molecular dynamics                            
  Dmytro Bykov           : pre 5.0 version of the SCF Hessian            
  Marcos Casanova-Páez   : Triplet and SCS-CIS(D). UHF-(DLPNO)-IP/EA/STEOM-CCSD. UHF-CVS-IP/STEOM-CCSD   
  Vijay G. Chilkuri      : MRCI spin determinant printing, contributions to CSF-ICE 
  Pauline Colinet        : FMM embedding                                 
  Dipayan Datta          : RHF DLPNO-CCSD density                        
  Achintya Kumar Dutta   : EOM-CC, STEOM-CC                              
  Nicolas Foglia         : Exact transition moments, OPA infrastructure, MCD improvements    
  Dmitry Ganyushin       : Spin-Orbit,Spin-Spin,Magnetic field MRCI      
  Miquel Garcia-Rates    : C-PCM and meta-GGA Hessian, CCSD/C-PCM, Gaussian charge scheme 
  Tiago L. C. Gouveia    : GS-ROHF, GS-ROCIS                             
  Yang Guo               : DLPNO-NEVPT2, F12-NEVPT2, CIM, IAO-localization        
  Andreas Hansen         : Spin unrestricted coupled pair/coupled cluster methods 
  Ingolf Harden          : AUTO-CI MPn and infrastructure                
  Benjamin Helmich-Paris : MC-RPA, TRAH-(SCF,CASSCF), AVAS, COSX integrals, SCF dyn. polar. 
  Lee Huntington         : MR-EOM, pCC                                   
  Robert Izsak           : Overlap fitted RIJCOSX, COSX-SCS-MP3, EOM     
  Riya Kayal             : Wick's Theorem for AUTO-CI, AUTO-CI UHF-CCSDT 
  Emily Kempfer          : AUTO-CI, RHF CISDT and CCSDT                  
  Christian Kollmar      : KDIIS, OOCD, Brueckner-CCSD(T), CCSD density, CASPT2, CASPT2-K, improved NEVPT2 
  Axel Koslowski         : Symmetry handling                             
  Simone Kossmann        : meta-GGA functionals, TD-DFT gradient, OOMP2, (MP2 Hessian; deprecated post 5.0) 
  Lucas Lang             : DCDCAS                                        
  Marvin Lechner         : AUTO-CI (C++ implementation), FIC-MRCC        
  Spencer Leger          : CASSCF response                               
  Dagmar Lenk            : GEPOL surface, SMD, ORCA-2-JSON               
  Dimitrios Liakos       : Extrapolation schemes; Compound Job, initial MDCI parallelization 
  Dimitrios Manganas     : Further ROCIS development; embedding schemes. LFT, Crystal Embedding 
  Dimitrios Pantazis     : SARC Basis sets                               
  Anastasios Papadopoulos: AUTO-CI, single reference methods and gradients 
  Taras Petrenko         : pre 6.0 DFT Hessian and TD-DFT gradient, (ASA, deprecated), ECA, 1-Electron XAS/XES, NRVS 
  Peter Pinski           : DLPNO-MP2, DLPNO-MP2 Gradient                 
  Christoph Reimann      : Effective Core Potentials                     
  Marius Retegan         : Local ZFS, SOC                                
  Christoph Riplinger    : Optimizer, TS searches, QM/MM, DLPNO-CCSD(T), (RO)-DLPNO pert. Triples 
  Michael Roemelt        : Original ROCIS implementation                 
  Masaaki Saitow         : Open-shell DLPNO-CCSD energy and density      
  Barbara Sandhoefer     : DKH picture change effects                    
  Kantharuban Sivalingam : CASSCF convergence/infrastructure, NEVPT2 and variants, FIC-MRCI 
  Bernardo de Souza      : ESD, SOC TD-DFT                               
  Georgi L. Stoychev     : AutoAux, RI-MP2 NMR, DLPNO-MP2 response, X2C  
  Van Anh Tran           : RI-MP2 g-tensors                              
  Willem Van den Heuvel  : Paramagnetic NMR                              
  Zikuan Wang            : NOTCH, Electric field optimization            
  Frank Wennmohs         : Technical directorship and infrastructure     
  Hang Xu                : AUTO-CI-Response properties                   
                                                                         
[FACCTs GmbH]                                                            
  Markus Bursch, Miquel Garcia-Rates, Christoph Riplinger, Bernardo de Souza, Georgi L. Stoychev 
                                                                 
  APM, Basis sets (HGBS, AHGBS, def-TZVP (Ac-Lr), def2-XVPD (La-Lu)), CI-OPT, improved COSX, DLPNO-Multilevel,           
  DOCKER, DRACO, updates on ESD, GOAT, IRC, LR-CPCM, MBIS, meta-GGA TD-DFT gradient, ML-optimized integration grids, 
  MM, NACMEs, nearIR, NEB, NEB-TS, NL-DFT gradient (VV10), 2- and 3-layer-ONIOM, interface openCOSMO-RS, QMMM,   
  Crystal-QMMM, SF, symmetry and pop. for TD-DFT, r2SCAN hybrids, SOLVATOR                                   
                                                                         
[Other institutions]                                                     
  V. Asgeirsson          : NEB                                           
  Christoph Bannwarth    : sTDA-DFT, sTD-DFT, PBEh-3c, B97-3c, D3        
  Sebastian Ehlert       : rSCAN, r2SCAN, r2SCAN-3c, D4, dhf basis sets  
  Marvin Friede          : D4 for Fr, Ra, Ac-Lr                          
  Lars Goerigk           : TD-DFT with DH, B97 family of functionals     
  Stefan Grimme          : VdW corrections, initial TS optimization, DFT functionals, gCP, sTDA/sTD-DF 
  Waldemar Hujo          : DFT-NL                                        
  H. Jonsson             : NEB                                           
  Holger Kruse           : gCP                                           
  Marcel Mueller         : wB97X-3c, vDZP basis set                      
  Hagen Neugebauer       : wr2SCAN                                       
  Tobias Risthaus        : range-separated hybrid DFT                    
  Lukas Wittmann         : regularized MP2, r2SCAN double-hybrids, wr2SCAN        
                                                                         
We gratefully acknowledge several colleagues who have allowed us to      
interface, adapt or use parts of their codes:                            
  Ed Valeev, F. Pavosevic, A. Kumar             : LibInt (2-el integral package), F12 methods 
  Garnet Chan, S. Sharma, J. Yang, R. Olivares  : DMRG                   
  Ulf Ekstrom                                   : XCFun DFT Library      
  Mihaly Kallay                                 : mrcc  (arbitrary order and MRCC methods)
  Frank Weinhold                                : gennbo (NPA and NBO analysis)           
  Simon Mueller                                 : openCOSMO-RS                            
  Christopher J. Cramer and Donald G. Truhlar   : smd solvation model                     
  S Lehtola, MJT Oliveira, MAL Marques          : LibXC Library                           
  Liviu Ungur et al                             : ANISO software                          


 Your calculation uses the libint2 library for the computation of 2-el integrals
 For citations please refer to: http://libint.valeyev.net

 Your ORCA version has been built with support for libXC version: 6.2.2
 For citations please refer to: https://libxc.gitlab.io

 This ORCA versions uses:
   CBLAS   interface :  Fast vector & matrix operations
   LAPACKE interface :  Fast linear algebra routines
   SCALAPACK package :  Parallel linear algebra routines
   Shared memory     :  Shared parallel matrices
   BLAS/LAPACK       :  OpenBLAS 0.3.27  USE64BITINT DYNAMIC_ARCH NO_AFFINITY SkylakeX SINGLE_THREADED
        Core in use  :  SkylakeX
   Copyright (c) 2011-2014, The OpenBLAS Project


NOTE: MaxCore=8000 MB was set to SCF,MP2,MDCI,CIPSI,MRCI and CIS
      => If you want to overwrite this, your respective input block should be placed after the MaxCore statement
Your calculation utilizes the atom-pairwise dispersion correction
with the Becke-Johnson damping scheme (D3BJ)


Your calculation utilizes the SMD solvation module
Please cite in your paper:
A.V. Marenich, C.J. Cramer, D.G. Truhlar J. Phys. Chem. B, 113, (2009), 6378 

Warning: RI is on but no J-basis has been assigned. Assigning Def2/J (nothing to worry about!)
================================================================================

----- Orbital basis set information -----
Your calculation utilizes the basis: def2-TZVP
   F. Weigend and R. Ahlrichs, Phys. Chem. Chem. Phys. 7, 3297 (2005).

----- AuxJ basis set information -----
Your calculation utilizes the auxiliary basis: def2/J
   F. Weigend, Phys. Chem. Chem. Phys. 8, 1057 (2006).

================================================================================
                                        WARNINGS
                       Please study these warnings very carefully!
================================================================================



WARNING: SCAN, rSCAN, or r2SCAN functional requested.
  ===> : libXC variant has now been activated.



WARNING: Geometry Optimization
  ===> : Switching off AutoStart
         For restart on a previous wavefunction, please use MOREAD

================================================================================
                                       INPUT FILE
================================================================================
NAME = rf_mecn_opt_r2s_D_B_01.inp
|  1> !r2scanh def2-TZVP opt d3 TightSCF SlowConv defgrid2
|  2> 
|  3> %pal
|  4> nprocs 20
|  5> end
|  6>  
|  7> %scf
|  8> MaxIter 1500
|  9> end
| 10>  
| 11> %maxcore 8000 #verificar
| 12>  
| 13> !CPCM
| 14> %cpcm smd true
| 15> SMDsolvent "ACETONITRILE"
| 16> end
| 17>  
| 18> * xyz -1 1
| 19> 6        4.790427000     -0.033865800     -0.529943200
| 20> 8        5.449345000     -1.206924000     -0.894594600
| 21> 8        4.978223000      1.323071000     -0.737377200
| 22> 6        3.506687600     -0.338741600      0.376153800
| 23> 6        2.222300000      0.400524800     -0.110681600
| 24> 6        0.900506800     -0.386389800      0.175703000
| 25> 6       -0.395261200      0.487294000      0.065549000
| 26> 6       -1.705693600     -0.364773800     -0.068373600
| 27> 6       -3.005136200      0.445344800      0.258164000
| 28> 6       -4.319880200     -0.214526000     -0.270540800
| 29> 9        3.211587400     -1.692050400      0.412735200
| 30> 9        3.741061800      0.055285800      1.689948800
| 31> 9        2.125696800      1.616867800      0.483236600
| 32> 9        2.314152400      0.589704000     -1.455769200
| 33> 9        0.794028800     -1.413561400     -0.700839000
| 34> 9        0.958350600     -0.884509000      1.435093400
| 35> 9       -0.498373400      1.260265600      1.173340200
| 36> 9       -0.299075000      1.289512600     -1.020910800
| 37> 9       -1.641790400     -1.418189000      0.779523800
| 38> 9       -1.792381400     -0.831391600     -1.336863600
| 39> 9       -2.918792200      1.679227200     -0.295171200
| 40> 9       -3.119771000      0.573779800      1.598579800
| 41> 9       -4.383115600     -1.504377600      0.089127600
| 42> 9       -5.365669800      0.430528600      0.260394200
| 43> 9       -4.396020400     -0.128550600     -1.602941800
| 44> *
| 45> 
| 46>                          ****END OF INPUT****
================================================================================

                       *****************************
                       * Geometry Optimization Run *
                       *****************************

Geometry optimization settings:
Update method            Update   .... BFGS
Choice of coordinates    CoordSys .... (2022) Redundant Internals
Initial Hessian          InHess   .... Almloef's Model
Max. no of cycles        MaxIter  .... 75

Convergence Tolerances:
Energy Change            TolE     ....  5.0000e-06 Eh
Max. Gradient            TolMAXG  ....  3.0000e-04 Eh/bohr
RMS Gradient             TolRMSG  ....  1.0000e-04 Eh/bohr
Max. Displacement        TolMAXD  ....  4.0000e-03 bohr
RMS Displacement         TolRMSD  ....  2.0000e-03 bohr
Strict Convergence                .... False

------------------------------------------------------------------------------
                        ORCA OPTIMIZATION COORDINATE SETUP
------------------------------------------------------------------------------

The optimization will be done in redundant internal coordinates (2022)
Making redundant internal coordinates   ...  (2022 redundants) done
Evaluating the initial hessian          ...  (Almloef) done
Evaluating the coordinates              ...  done
Calculating the B-matrix                .... done
Calculating the G-matrix                .... done
Diagonalizing the G-matrix              .... done
Small eigenvalue found = 5.470e-03
Small eigenvalue found = 1.492e-02
Small eigenvalue found = 2.979e-02
The first mode is                       ....   41
The number of degrees of freedom        ....   69

    -----------------------------------------------------------------
                    Redundant Internal Coordinates


    -----------------------------------------------------------------
         Definition                    Initial Value    Approx d2E/dq
    -----------------------------------------------------------------
      1. B(O   1,C   0)                  1.3940         0.551454   
      2. B(O   2,C   0)                  1.3855         0.568952   
      3. B(C   3,C   0)                  1.6006         0.288221   
      4. B(C   4,C   3)                  1.5599         0.334759   
      5. B(C   5,C   4)                  1.5647         0.328824   
      6. B(C   6,C   5)                  1.5667         0.326486   
      7. B(C   7,C   6)                  1.5688         0.323927   
      8. B(C   8,C   7)                  1.5657         0.327637   
      9. B(C   9,C   8)                  1.5632         0.330714   
     10. B(F  10,C   3)                  1.3856         0.528443   
     11. B(F  11,C   3)                  1.3915         0.517117   
     12. B(F  12,C   4)                  1.3570         0.586881   
     13. B(F  13,C   4)                  1.3614         0.577499   
     14. B(F  14,C   5)                  1.3545         0.592326   
     15. B(F  15,C   5)                  1.3556         0.590092   
     16. B(F  16,C   6)                  1.3547         0.591865   
     17. B(F  17,C   6)                  1.3540         0.593567   
     18. B(F  18,C   7)                  1.3538         0.593973   
     19. B(F  19,C   7)                  1.3544         0.592672   
     20. B(F  20,C   8)                  1.3550         0.591238   
     21. B(F  21,C   8)                  1.3514         0.599114   
     22. B(F  22,C   9)                  1.3406         0.623533   
     23. B(F  23,C   9)                  1.3385         0.628179   
     24. B(F  24,C   9)                  1.3373         0.630929   
     25. A(O   1,C   0,C   3)          111.5249         0.369222   
     26. A(O   1,C   0,O   2)          136.1318         0.413163   
     27. A(O   2,C   0,C   3)          112.3347         0.371210   
     28. A(C   0,C   3,F  10)          111.8265         0.364982   
     29. A(C   4,C   3,F  11)          107.4072         0.373095   
     30. A(F  10,C   3,F  11)          106.7094         0.399684   
     31. A(C   0,C   3,C   4)          113.1687         0.341363   
     32. A(C   0,C   3,F  11)          110.2099         0.363632   
     33. A(C   4,C   3,F  10)          107.2033         0.374492   
     34. A(C   3,C   4,F  12)          110.2926         0.381351   
     35. A(F  12,C   4,F  13)          108.2194         0.415201   
     36. A(C   3,C   4,C   5)          113.5839         0.349005   
     37. A(C   5,C   4,F  13)          107.9208         0.379109   
     38. A(C   3,C   4,F  13)          108.5818         0.380286   
     39. A(C   5,C   4,F  12)          108.0911         0.380169   
     40. A(F  14,C   5,F  15)          109.0206         0.417483   
     41. A(C   4,C   5,C   6)          113.9128         0.347536   
     42. A(C   6,C   5,F  15)          107.7906         0.380059   
     43. A(C   4,C   5,F  15)          108.5900         0.380529   
     44. A(C   6,C   5,F  14)          108.2026         0.380308   
     45. A(C   4,C   5,F  14)          109.2282         0.380779   
     46. A(C   5,C   6,C   7)          113.2023         0.346660   
     47. A(F  16,C   6,F  17)          108.8752         0.417862   
     48. A(C   7,C   6,F  17)          108.2186         0.379927   
     49. A(C   5,C   6,F  17)          109.1523         0.380446   
     50. A(C   7,C   6,F  16)          108.4284         0.379738   
     51. A(C   5,C   6,F  16)          108.8835         0.380256   
     52. A(C   8,C   7,F  18)          108.1296         0.380723   
     53. A(C   6,C   7,F  18)          109.2524         0.379972   
     54. A(F  18,C   7,F  19)          108.7561         0.418014   
     55. A(C   6,C   7,C   8)          113.2298         0.346865   
     56. A(C   8,C   7,F  19)          108.6915         0.380579   
     57. A(C   6,C   7,F  19)          108.6955         0.379828   
     58. A(C   9,C   8,F  21)          107.7127         0.381912   
     59. A(C   7,C   8,F  21)          109.0521         0.381293   
     60. A(C   9,C   8,F  20)          107.4499         0.381036   
     61. A(C   7,C   8,C   9)          114.1471         0.348078   
     62. A(F  20,C   8,F  21)          108.8987         0.418476   
     63. A(C   7,C   8,F  20)          109.4572         0.380419   
     64. A(F  23,C   9,F  24)          108.6464         0.426961   
     65. A(F  22,C   9,F  24)          109.0552         0.426394   
     66. A(C   8,C   9,F  24)          110.9604         0.385362   
     67. A(F  22,C   9,F  23)          108.6877         0.426061   
     68. A(C   8,C   9,F  23)          108.6349         0.385069   
     69. A(C   8,C   9,F  22)          110.7995         0.384572   
     70. D(F  11,C   3,C   0,O   1)    108.6317         0.006601   
     71. D(F  10,C   3,C   0,O   1)     -9.8890         0.006601   
     72. D(C   4,C   3,C   0,O   2)     49.8076         0.006601   
     73. D(C   4,C   3,C   0,O   1)   -131.0839         0.006601   
     74. D(F  10,C   3,C   0,O   2)    171.0025         0.006601   
     75. D(C   5,C   4,C   3,C   0)    148.6429         0.009100   
     76. D(F  12,C   4,C   3,F  11)     32.0233         0.009100   
     77. D(C   5,C   4,C   3,F  11)    -89.4885         0.009100   
     78. D(F  12,C   4,C   3,C   0)    -89.8453         0.009100   
     79. D(F  12,C   4,C   3,F  10)    146.3851         0.009100   
     80. D(C   5,C   4,C   3,F  10)     24.8733         0.009100   
     81. D(F  14,C   5,C   4,C   3)    -74.9661         0.008811   
     82. D(C   6,C   5,C   4,F  12)     41.2001         0.008811   
     83. D(C   6,C   5,C   4,C   3)    163.9326         0.008811   
     84. D(C   6,C   5,C   4,F  13)    -75.6292         0.008811   
     85. D(F  14,C   5,C   4,F  13)     45.4721         0.008811   
     86. D(F  14,C   5,C   4,F  12)    162.3014         0.008811   
     87. D(F  16,C   6,C   5,F  14)    161.9826         0.008700   
     88. D(F  16,C   6,C   5,C   4)    -76.3465         0.008700   
     89. D(C   7,C   6,C   5,F  15)    -76.4529         0.008700   
     90. D(C   7,C   6,C   5,F  14)     41.3107         0.008700   
     91. D(F  16,C   6,C   5,F  15)     44.2190         0.008700   
     92. D(C   7,C   6,C   5,C   4)    162.9815         0.008700   
     93. D(F  18,C   7,C   6,F  17)    162.9167         0.008578   
     94. D(F  18,C   7,C   6,F  16)    -79.1358         0.008578   
     95. D(F  18,C   7,C   6,C   5)     41.7939         0.008578   
     96. D(C   8,C   7,C   6,F  17)    -76.5134         0.008578   
     97. D(C   8,C   7,C   6,F  16)     41.4341         0.008578   
     98. D(C   8,C   7,C   6,C   5)    162.3638         0.008578   
     99. D(C   9,C   8,C   7,F  18)    -76.3785         0.008755   
    100. D(C   9,C   8,C   7,C   6)    162.4166         0.008755   
    101. D(F  20,C   8,C   7,F  19)    -78.9355         0.008755   
    102. D(F  20,C   8,C   7,F  18)    163.1633         0.008755   
    103. D(F  20,C   8,C   7,C   6)     41.9584         0.008755   
    104. D(C   9,C   8,C   7,F  19)     41.5227         0.008755   
    105. D(F  23,C   9,C   8,F  21)     48.1091         0.008903   
    106. D(F  23,C   9,C   8,F  20)    -69.0724         0.008903   
    107. D(F  23,C   9,C   8,C   7)    169.3552         0.008903   
    108. D(F  22,C   9,C   8,F  21)    -71.2185         0.008903   
    109. D(F  22,C   9,C   8,F  20)    171.5999         0.008903   
    110. D(F  22,C   9,C   8,C   7)     50.0276         0.008903   
    -----------------------------------------------------------------

Number of atoms                         .... 25
Number of degrees of freedom            .... 110


         *************************************************************
         *                GEOMETRY OPTIMIZATION CYCLE   1            *
         *************************************************************
---------------------------------
CARTESIAN COORDINATES (ANGSTROEM)
---------------------------------
  C      4.790427   -0.033866   -0.529943
  O      5.449345   -1.206924   -0.894595
  O      4.978223    1.323071   -0.737377
  C      3.506688   -0.338742    0.376154
  C      2.222300    0.400525   -0.110682
  C      0.900507   -0.386390    0.175703
  C     -0.395261    0.487294    0.065549
  C     -1.705694   -0.364774   -0.068374
  C     -3.005136    0.445345    0.258164
  C     -4.319880   -0.214526   -0.270541
  F      3.211587   -1.692050    0.412735
  F      3.741062    0.055286    1.689949
  F      2.125697    1.616868    0.483237
  F      2.314152    0.589704   -1.455769
  F      0.794029   -1.413561   -0.700839
  F      0.958351   -0.884509    1.435093
  F     -0.498373    1.260266    1.173340
  F     -0.299075    1.289513   -1.020911
  F     -1.641790   -1.418189    0.779524
  F     -1.792381   -0.831392   -1.336864
  F     -2.918792    1.679227   -0.295171
  F     -3.119771    0.573780    1.598580
  F     -4.383116   -1.504378    0.089128
  F     -5.365670    0.430529    0.260394
  F     -4.396020   -0.128551   -1.602942

----------------------------
CARTESIAN COORDINATES (A.U.)
----------------------------
  NO LB      ZA    FRAG     MASS         X           Y           Z
   0 C     6.0000    0    12.011    9.052595   -0.063997   -1.001448
   1 O     8.0000    0    15.999   10.297770   -2.280756   -1.690539
   2 O     8.0000    0    15.999    9.407478    2.500242   -1.393441
   3 C     6.0000    0    12.011    6.626679   -0.640129    0.710828
   4 C     6.0000    0    12.011    4.199538    0.756882   -0.209158
   5 C     6.0000    0    12.011    1.701711   -0.730171    0.332031
   6 C     6.0000    0    12.011   -0.746935    0.920852    0.123870
   7 C     6.0000    0    12.011   -3.223294   -0.689323   -0.129207
   8 C     6.0000    0    12.011   -5.678884    0.841580    0.487859
   9 C     6.0000    0    12.011   -8.163391   -0.405395   -0.511248
  10 F     9.0000    0    18.998    6.069021   -3.197512    0.779956
  11 F     9.0000    0    18.998    7.069582    0.104475    3.193540
  12 F     9.0000    0    18.998    4.016985    3.055437    0.913185
  13 F     9.0000    0    18.998    4.373114    1.114379   -2.751005
  14 F     9.0000    0    18.998    1.500497   -2.671244   -1.324394
  15 F     9.0000    0    18.998    1.811020   -1.671480    2.711934
  16 F     9.0000    0    18.998   -0.941789    2.381557    2.217292
  17 F     9.0000    0    18.998   -0.565170    2.436826   -1.929242
  18 F     9.0000    0    18.998   -3.102534   -2.679989    1.473086
  19 F     9.0000    0    18.998   -3.387110   -1.571102   -2.526306
  20 F     9.0000    0    18.998   -5.515718    3.173280   -0.557793
  21 F     9.0000    0    18.998   -5.895513    1.084287    3.020878
  22 F     9.0000    0    18.998   -8.282888   -2.842862    0.168427
  23 F     9.0000    0    18.998  -10.139646    0.813581    0.492074
  24 F     9.0000    0    18.998   -8.307275   -0.242925   -3.029121

--------------------------------
INTERNAL COORDINATES (ANGSTROEM)
--------------------------------
 C      0   0   0     0.000000000000     0.00000000     0.00000000
 O      1   0   0     1.393990356793     0.00000000     0.00000000
 O      1   2   0     1.385486802956   136.13177198     0.00000000
 C      1   2   3     1.600608594862   111.52489317   181.18992567
 C      4   1   2     1.559863783763   113.16872737   228.91614990
 C      5   4   1     1.564732561934   113.58394786   148.64287440
 C      6   5   4     1.566675459667   113.91280616   163.93256239
 C      7   6   5     1.568817348692   113.20226571   162.98152714
 C      8   7   6     1.565717094808   113.22984595   162.36375422
 C      9   8   7     1.563173062643   114.14707705   162.41661495
 F      4   1   2     1.385592665621   111.82651119   350.11101305
 F      4   1   2     1.391490625050   110.20991618   108.63170802
 F      5   4   1     1.357041377479   110.29260564   270.15468021
 F      5   4   1     1.361428031433   108.58179722    28.57841973
 F      6   5   4     1.354527570075   109.22822656   285.03385927
 F      6   5   4     1.355556277776   108.59004089    43.81583148
 F      7   6   5     1.354739297058   108.88346185   283.65347401
 F      7   6   5     1.353957667090   109.15230848    42.38718856
 F      8   7   6     1.353771473879   109.25240264    41.79387651
 F      8   7   6     1.354368423305   108.69554158   283.25540020
 F      9   8   7     1.355028009646   109.45719767    41.95842364
 F      9   8   7     1.351425618925   109.05210362   282.91820052
 F     10   9   8     1.340551089588   110.79953142    50.02756898
 F     10   9   8     1.338530275591   108.63493714   169.35523750
 F     10   9   8     1.337341214598   110.96044107   288.72891896

---------------------------
INTERNAL COORDINATES (A.U.)
---------------------------
 C      0   0   0     0.000000000000     0.00000000     0.00000000
 O      1   0   0     2.634260007667     0.00000000     0.00000000
 O      1   2   0     2.618190619750   136.13177198     0.00000000
 C      1   2   3     3.024711891890   111.52489317   181.18992567
 C      4   1   2     2.947715357535   113.16872737   228.91614990
 C      5   4   1     2.956916014884   113.58394786   148.64287440
 C      6   5   4     2.960587559506   113.91280616   163.93256239
 C      7   6   5     2.964635143173   113.20226571   162.98152714
 C      8   7   6     2.958776512386   113.22984595   162.36375422
 C      9   8   7     2.953968988318   114.14707705   162.41661495
 F      4   1   2     2.618390671194   111.82651119   350.11101305
 F      4   1   2     2.629536199263   110.20991618   108.63170802
 F      5   4   1     2.564436555835   110.29260564   270.15468021
 F      5   4   1     2.572726130452   108.58179722    28.57841973
 F      6   5   4     2.559686148288   109.22822656   285.03385927
 F      6   5   4     2.561630124115   108.59004089    43.81583148
 F      7   6   5     2.560086254300   108.88346185   283.65347401
 F      7   6   5     2.558609187723   109.15230848    42.38718856
 F      8   7   6     2.558257333546   109.25240264    41.79387651
 F      8   7   6     2.559385404477   108.69554158   283.25540020
 F      9   8   7     2.560631842023   109.45719767    41.95842364
 F      9   8   7     2.553824310132   109.05210362   282.91820052
 F     10   9   8     2.533274427850   110.79953142    50.02756898
 F     10   9   8     2.529455642830   108.63493714   169.35523750
 F     10   9   8     2.527208643196   110.96044107   288.72891896

---------------------
BASIS SET INFORMATION
---------------------
There are 3 groups of distinct atoms

 Group   1 Type C   : 11s6p2d1f contracted to 5s3p2d1f pattern {62111/411/11/1}
 Group   2 Type O   : 11s6p2d1f contracted to 5s3p2d1f pattern {62111/411/11/1}
 Group   3 Type F   : 11s6p2d1f contracted to 5s3p2d1f pattern {62111/411/11/1}

Atom   0C    basis set group =>   1
Atom   1O    basis set group =>   2
Atom   2O    basis set group =>   2
Atom   3C    basis set group =>   1
Atom   4C    basis set group =>   1
Atom   5C    basis set group =>   1
Atom   6C    basis set group =>   1
Atom   7C    basis set group =>   1
Atom   8C    basis set group =>   1
Atom   9C    basis set group =>   1
Atom  10F    basis set group =>   3
Atom  11F    basis set group =>   3
Atom  12F    basis set group =>   3
Atom  13F    basis set group =>   3
Atom  14F    basis set group =>   3
Atom  15F    basis set group =>   3
Atom  16F    basis set group =>   3
Atom  17F    basis set group =>   3
Atom  18F    basis set group =>   3
Atom  19F    basis set group =>   3
Atom  20F    basis set group =>   3
Atom  21F    basis set group =>   3
Atom  22F    basis set group =>   3
Atom  23F    basis set group =>   3
Atom  24F    basis set group =>   3
---------------------------------
AUXILIARY/J BASIS SET INFORMATION
---------------------------------
There are 3 groups of distinct atoms

 Group   1 Type C   : 12s5p4d2f1g contracted to 6s4p3d1f1g pattern {711111/2111/211/2/1}
 Group   2 Type O   : 12s5p4d2f1g contracted to 6s4p3d1f1g pattern {711111/2111/211/2/1}
 Group   3 Type F   : 12s5p4d2f1g contracted to 6s4p3d1f1g pattern {711111/2111/211/2/1}

Atom   0C    basis set group =>   1
Atom   1O    basis set group =>   2
Atom   2O    basis set group =>   2
Atom   3C    basis set group =>   1
Atom   4C    basis set group =>   1
Atom   5C    basis set group =>   1
Atom   6C    basis set group =>   1
Atom   7C    basis set group =>   1
Atom   8C    basis set group =>   1
Atom   9C    basis set group =>   1
Atom  10F    basis set group =>   3
Atom  11F    basis set group =>   3
Atom  12F    basis set group =>   3
Atom  13F    basis set group =>   3
Atom  14F    basis set group =>   3
Atom  15F    basis set group =>   3
Atom  16F    basis set group =>   3
Atom  17F    basis set group =>   3
Atom  18F    basis set group =>   3
Atom  19F    basis set group =>   3
Atom  20F    basis set group =>   3
Atom  21F    basis set group =>   3
Atom  22F    basis set group =>   3
Atom  23F    basis set group =>   3
Atom  24F    basis set group =>   3


           ************************************************************
           *        Program running with 20 parallel MPI-processes    *
           *              working on a common directory               *
           ************************************************************
------------------------------------------------------------------------------
                             ORCA STARTUP CALCULATIONS
                           -- RI-GTO INTEGRALS CHOSEN --
------------------------------------------------------------------------------
------------------------------------------------------------------------------
                   ___                                                        
                  /   \      - P O W E R E D   B Y -                         
                 /     \                                                     
                 |  |  |   _    _      __       _____    __    __             
                 |  |  |  | |  | |    /  \     |  _  \  |  |  /  |          
                  \  \/   | |  | |   /    \    | | | |  |  | /  /          
                 / \  \   | |__| |  /  /\  \   | |_| |  |  |/  /          
                |  |  |   |  __  | /  /__\  \  |    /   |      \           
                |  |  |   | |  | | |   __   |  |    \   |  |\   \          
                \     /   | |  | | |  |  |  |  | |\  \  |  | \   \       
                 \___/    |_|  |_| |__|  |__|  |_| \__\ |__|  \__/        
                                                                              
                      - O R C A' S   B I G   F R I E N D -                    
                                      &                                       
                       - I N T E G R A L  F E E D E R -                       
                                                                              
 v1 FN, 2020, v2 2021, v3 2022-2024                                           
------------------------------------------------------------------------------


----------------------
SHARK INTEGRAL PACKAGE
----------------------

Number of atoms                             ...     25
Number of basis functions                   ...    775
Number of shells                            ...    275
Maximum angular momentum                    ...      3
Integral batch strategy                     ... SHARK/LIBINT Hybrid
RI-J (if used) integral strategy            ... SPLIT-RIJ (Revised 2003 algorithm where possible)
Printlevel                                  ...      1
Contraction scheme used                     ... SEGMENTED contraction
Prescreening option                         ... SCHWARTZ
   Thresh                                   ... 2.500e-11
   Tcut                                     ... 2.500e-12
   Tpresel                                  ... 2.500e-12 
Coulomb Range Separation                    ... NOT USED
Exchange Range Separation                   ... NOT USED
Multipole approximations                    ... NOT USED
Finite Nucleus Model                        ... NOT USED
CABS basis                                  ... NOT available
Auxiliary Coulomb fitting basis             ... AVAILABLE
   # of basis functions in Aux-J            ...   1225
   # of shells in Aux-J                     ...    375
   Maximum angular momentum in Aux-J        ...      4
Auxiliary J/K fitting basis                 ... NOT available
Auxiliary Correlation fitting basis         ... NOT available
Auxiliary 'external' fitting basis          ... NOT available

Checking pre-screening integrals            ... done (  0.0 sec) Dimension = 275
Check shell pair data                       ... done (  0.0 sec)
Shell pair information
Shell pair cut-off parameter TPreSel        ...   2.5e-12
Total number of shell pairs                 ...     37950
Shell pairs after pre-screening             ...     23325
Total number of primitive shell pairs       ...    125800
Primitive shell pairs kept                  ...     49419
          la=0 lb=0:   4351 shell pairs
          la=1 lb=0:   6349 shell pairs
          la=1 lb=1:   2227 shell pairs
          la=2 lb=0:   3461 shell pairs
          la=2 lb=1:   2576 shell pairs
          la=2 lb=2:    727 shell pairs
          la=3 lb=0:   1568 shell pairs
          la=3 lb=1:   1240 shell pairs
          la=3 lb=2:    666 shell pairs
          la=3 lb=3:    160 shell pairs

Calculating one electron integrals          ... done (  0.0 sec)
Calculating RI/J V-Matrix + Cholesky decomp.... done (  0.1 sec)
Calculating Nuclear repulsion               ... done (  0.0 sec) ENN=   2860.975784253119 Eh

Diagonalization of the overlap matrix:
Smallest eigenvalue                        ... 6.047e-05
Time for diagonalization                   ...    0.110 sec
Threshold for overlap eigenvalues          ... 1.000e-07
Number of eigenvalues below threshold      ... 0
Time for construction of square roots      ...    0.047 sec
Total time needed                          ...    0.162 sec

-------------------
DFT GRID GENERATION
-------------------

General Integration Accuracy     IntAcc      ... 4.388
Radial Grid Type                 RadialGrid  ... OptM3 with GC (2021)
Angular Grid (max. ang.)         AngularGrid ... 4 (Lebedev-302)
Angular grid pruning method      GridPruning ... 4 (adaptive)
Weight generation scheme         WeightScheme... mBecke (2022)
Basis function cutoff            BFCut       ... 1.0000e-11
Integration weight cutoff        WCut        ... 1.0000e-14
Partially contracted basis set               ... off
Rotationally invariant grid construction     ... off
Angular grids for H and He will be reduced by one unit

Total number of grid points                  ...   151489
Total number of batches                      ...     2379
Average number of points per batch           ...       63
Average number of grid points per atom       ...     6060

--------------------
COSX GRID GENERATION
--------------------

GRIDX 1
-------
General Integration Accuracy     IntAcc      ... 3.816
Radial Grid Type                 RadialGrid  ... OptM3 with GC (2021)
Angular Grid (max. ang.)         AngularGrid ... 1 (Lebedev-50)
Angular grid pruning method      GridPruning ... 4 (adaptive)
Weight generation scheme         WeightScheme... mBecke (2022)
Basis function cutoff            BFCut       ... 1.0000e-11
Integration weight cutoff        WCut        ... 1.0000e-14
Partially contracted basis set               ... on
Rotationally invariant grid construction     ... off
Angular grids for H and He will be reduced by one unit

Total number of grid points                  ...    19031
Total number of batches                      ...      159
Average number of points per batch           ...      119
Average number of grid points per atom       ...      761
UseSFitting                                  ... on

GRIDX 2
-------
General Integration Accuracy     IntAcc      ... 4.020
Radial Grid Type                 RadialGrid  ... OptM3 with GC (2021)
Angular Grid (max. ang.)         AngularGrid ... 2 (Lebedev-110)
Angular grid pruning method      GridPruning ... 4 (adaptive)
Weight generation scheme         WeightScheme... mBecke (2022)
Basis function cutoff            BFCut       ... 1.0000e-11
Integration weight cutoff        WCut        ... 1.0000e-14
Partially contracted basis set               ... on
Rotationally invariant grid construction     ... off
Angular grids for H and He will be reduced by one unit

Total number of grid points                  ...    45091
Total number of batches                      ...      367
Average number of points per batch           ...      122
Average number of grid points per atom       ...     1804
UseSFitting                                  ... on

GRIDX 3
-------
General Integration Accuracy     IntAcc      ... 4.338
Radial Grid Type                 RadialGrid  ... OptM3 with GC (2021)
Angular Grid (max. ang.)         AngularGrid ... 3 (Lebedev-194)
Angular grid pruning method      GridPruning ... 4 (adaptive)
Weight generation scheme         WeightScheme... mBecke (2022)
Basis function cutoff            BFCut       ... 1.0000e-11
Integration weight cutoff        WCut        ... 1.0000e-14
Partially contracted basis set               ... on
Rotationally invariant grid construction     ... off
Angular grids for H and He will be reduced by one unit

Total number of grid points                  ...    99878
Total number of batches                      ...      788
Average number of points per batch           ...      126
Average number of grid points per atom       ...     3995
UseSFitting                                  ... on
Initializing property integral containers    ... done (  0.0 sec)

SHARK setup successfully completed in   2.8 seconds

Maximum memory used throughout the entire STARTUP-calculation: 59.4 MB


           ************************************************************
           *        Program running with 20 parallel MPI-processes    *
           *              working on a common directory               *
           ************************************************************
-------------------------------------------------------------------------------
                                 ORCA GUESS
                   Start orbitals & Density for SCF / CASSCF
-------------------------------------------------------------------------------

------------
SCF SETTINGS
------------
Hamiltonian:
 Density Functional     Method          .... DFT(GTOs)
  Functional kind                       .... Exchange
  Functional name                       .... Re-regularized SCAN exchange by Furness et al
  Functional family                     .... MGGA
  Functional refs                              
    [ 0] J. W. Furness, A. D. Kaplan, J. Ning, J. P. Perdew, and J. Sun.,  J. Phys. Chem. Lett. 11, 8208-8215 (2020), doi: 10.1021/acs.jpclett.0c02405
    [ 1] J. W. Furness, A. D. Kaplan, J. Ning, J. P. Perdew, and J. Sun.,  J. Phys. Chem. Lett. 11, 9248-9248 (2020), doi: 10.1021/acs.jpclett.0c03077
  Functional external parameters        .... 6
    Parameter  0 _c1        =  6.670000e-01 : c1 parameter        
    Parameter  1 _c2        =  8.000000e-01 : c2 parameter        
    Parameter  2 _d         =  1.240000e+00 : d parameter         
    Parameter  3 _k1        =  6.500000e-02 : k1 parameter        
    Parameter  4 _eta       =  1.000000e-03 : eta parameter       
    Parameter  5 _dp2       =  3.610000e-01 : dp2 parameter       
  Functional kind                       .... Correlation
  Functional name                       .... Re-regularized SCAN correlation by Furness et al
  Functional family                     .... MGGA
  Functional refs                              
    [ 0] J. W. Furness, A. D. Kaplan, J. Ning, J. P. Perdew, and J. Sun.,  J. Phys. Chem. Lett. 11, 8208-8215 (2020), doi: 10.1021/acs.jpclett.0c02405
    [ 1] J. W. Furness, A. D. Kaplan, J. Ning, J. P. Perdew, and J. Sun.,  J. Phys. Chem. Lett. 11, 9248-9248 (2020), doi: 10.1021/acs.jpclett.0c03077
  Functional external parameters        .... 1
    Parameter  0 _eta       =  1.000000e-03 : Regularization parameter
 Gradients option       PostSCFGGA      .... off
 Hybrid DFT is turned on
   Fraction HF Exchange ScalHFX         ....  0.100000
   Scaling of DF-GGA-X  ScalDFX         ....  0.900000
   Scaling of DF-GGA-C  ScalDFC         ....  1.000000
   Scaling of DF-LDA-C  ScalLDAC        ....  1.000000
   Perturbative correction              ....  0.000000
   NL short-range parameter             .... 11.900000
 RI-approximation to the Coulomb term is turned on
   Number of AuxJ basis functions       .... 1225
   RIJ-COSX (HFX calculated with COS-X)).... on


General Settings:
 Integral files         IntName         .... rf_mecn_opt_r2s_D_B_01
 Hartree-Fock type      HFTyp           .... RHF
 Total Charge           Charge          ....   -1
 Multiplicity           Mult            ....    1
 Number of Electrons    NEL             ....  200
 Basis Dimension        Dim             ....  775
 Nuclear Repulsion      ENuc            ....   2860.9757842531 Eh

Convergence Acceleration:
 AO-DIIS                CNVDIIS         .... on
   Start iteration      DIISMaxIt       ....     0
   Startup error        DIISStart       ....  0.200000
   # of expansion vecs  DIISMaxEq       ....     5
   Bias factor          DIISBfac        ....   1.050
   Max. coefficient     DIISMaxC        ....  10.000
 MO-DIIS                CNVKDIIS        .... off
 Trust-Rad. Augm. Hess. CNVTRAH         .... auto
   Auto Start mean grad. ratio tolernc. ....  1.125000
   Auto Start start iteration           ....    50
   Auto Start num. interpolation iter.  ....    10
   Max. Number of Micro iterations      ....    24
   Max. Number of Macro iterations      .... Maxiter - #DIIS iter
   Number of Davidson start vectors     ....     2
   Converg. threshold    (grad. norm)   ....   1.000e-05
   Grad. Scal. Fac. for Micro threshold ....   0.100
   Minimum threshold for Micro iter.    ....   1.000e-02
   NR start threshold (gradient norm)   ....   1.000e-04
   Initial trust radius                 ....   0.400
   Minimum AH scaling param. (alpha)    ....   1.000
   Maximum AH scaling param. (alpha)    .... 1000.000
   Quad. conv. algorithm                .... NR
   White noise on init. David. guess    .... on
   Maximum white noise                  ....   0.010
   Pseudo random numbers                .... off
   Inactive MOs                         .... canonical
   Orbital update algorithm             .... Taylor
   Preconditioner                       .... Diag
   Full preconditioner red. dimension   ....   250
 SOSCF                  CNVSOSCF        .... on
   Start iteration      SOSCFMaxIt      ....   150
   Startup grad/error   SOSCFStart      ....  0.001000
   Hessian update       SOSCFHessUp     .... L-BFGS
 Level Shifting         CNVShift        .... on
   Level shift para.    LevelShift      ....    0.2500
   Turn off err/grad.   ShiftErr        ....    0.0000
 Zerner damping         CNVZerner       .... off
 Static damping         CNVDamp         .... on
   Fraction old density DampFac         ....    0.8500
   Max. Damping (<1)    DampMax         ....    0.9800
   Min. Damping (>=0)   DampMin         ....    0.0000
   Turn off err/grad.   DampErr         ....    0.0300

SCF Procedure:
 Maximum # iterations   MaxIter         ....  1500
 SCF integral mode      SCFMode         .... Direct
   Integral package                     .... SHARK and LIBINT hybrid scheme
 Reset frequency        DirectResetFreq ....    20
 Integral Threshold     Thresh          ....  2.500e-11 Eh
 Primitive CutOff       TCut            ....  2.500e-12 Eh

Convergence Tolerance:
 Convergence Check Mode ConvCheckMode   .... Total+1el-Energy
 Convergence forced     ConvForced      .... 0
 Energy Change          TolE            ....  1.000e-08 Eh
 1-El. energy change                    ....  1.000e-05 Eh
 Orbital Gradient       TolG            ....  1.000e-05
 Orbital Rotation angle TolX            ....  1.000e-05
 DIIS Error             TolErr          ....  5.000e-07

------------------------------
INITIAL GUESS: MODEL POTENTIAL
------------------------------
Loading Hartree-Fock densities                     ... done
Calculating cut-offs                               ... done
Initializing the effective Hamiltonian             ... done
Setting up the integral package (SHARK)            ... done
Starting the Coulomb interaction                   ... done (   0.1 sec)
Making the grid                                    ... done (   0.4 sec)
Mapping shells                                     ... done
Starting the XC term evaluation                    ... done (   0.1 sec)
  promolecular density results
     # of electrons  =    199.000496603
     EX              =   -207.068070787
     EC              =     -6.981308686
     EX+EC           =   -214.049379473
Transforming the Hamiltonian                       ... done (   0.0 sec)
Diagonalizing the Hamiltonian                      ... done (   0.1 sec)
Back transforming the eigenvectors                 ... done (   0.0 sec)
Now organizing SCF variables                       ... done
                      ------------------
                      INITIAL GUESS DONE (   0.9 sec)
                      ------------------
             **** ENERGY FILE WAS UPDATED (rf_mecn_opt_r2s_D_B_01.en.tmp) ****
Finished Guess after   1.6 sec
Maximum memory used throughout the entire GUESS-calculation: 48.5 MB


           ************************************************************
           *        Program running with 20 parallel MPI-processes    *
           *              working on a common directory               *
           ************************************************************

-------------------------------------------------------------------------------------------
                                      ORCA LEAN-SCF
                              memory conserving SCF solver
-------------------------------------------------------------------------------------------

--------------------
CPCM SOLVATION MODEL
--------------------
CPCM parameters:
  Epsilon                                         ...      35.6880
  Refrac                                          ...       1.3442
  Rsolv                                           ...       1.3000
  Surface type                                    ... GAUSSIAN VDW
  Discretization scheme                           ... Constant charge density
    Threshold for H atoms                         ...       5.0000 (charges/Ang^2)
    Threshold for non-H atoms                     ...       5.0000 (charges/Ang^2)
  Epsilon function type                           ...         CPCM
Solvent:                                          ... ACETONITRILE
SMD-CDS solvent descriptors:
  Soln                                            ...       1.3442
  Soln25                                          ...       1.3416
  Sola                                            ...       0.0700
  Solb                                            ...       0.3200
  Solg                                            ...      41.2500
  Solc                                            ...       0.0000
  Solh                                            ...       0.0000
Radii:
  Scheme                                          ... Element-dependent radii
  Radius for C  used is    3.4960 Bohr (=   1.8500 Ang.)
  Radius for O  used is    4.0969 Bohr (=   2.1680 Ang.)
  Radius for F  used is    3.2692 Bohr (=   1.7300 Ang.)
Calculating surface                               ...        done! (  0.0s)
Cavity surface points                             ...         2164
Cavity Volume                                     ...    2191.6855
Cavity Surface-area                               ...    1131.7098
Calculating surface distance matrix               ...        done! (  0.0s)
Performing Cholesky decomposition & store         ...        done! (  0.1s)
Overall time for CPCM initialization              ...                 0.1s

----------------------------------------D-I-I-S--------------------------------------------
Iteration    Energy (Eh)           Delta-E    RMSDP     MaxDP     DIISErr   Damp  Time(sec)
-------------------------------------------------------------------------------------------
               ***  Starting incremental Fock matrix formation  ***
    1    -1952.4689622037335539     0.00e+00  5.38e-04  6.98e-02  3.15e-01  0.850   5.7
Warning: op=0 Small HOMO/LUMO gap (   0.043) - skipping pre-diagonalization
         Will do a full diagonalization
    2    -1952.6260805574925143    -1.57e-01  6.64e-04  1.32e-01  2.10e-01  0.850   3.6
                               ***Turning on AO-DIIS***
    3    -1952.7068525093377502    -8.08e-02  3.08e-04  5.55e-02  1.21e-01  0.850   3.3
    4    -1952.7545309556276152    -4.77e-02  1.61e-04  1.78e-02  8.86e-02  0.850   3.0
    5    -1952.7883031363858208    -3.38e-02  1.09e-04  7.67e-03  7.37e-02  0.850   3.0
    6    -1952.8150631871562837    -2.68e-02  8.96e-05  7.44e-03  6.42e-02  0.850   3.0
    7    -1952.8374174992754888    -2.24e-02  8.03e-05  6.79e-03  5.52e-02  0.850   2.8
    8    -1952.8564559397314042    -1.90e-02  7.11e-05  5.91e-03  4.60e-02  0.850   2.7
    9    -1952.8723924474893465    -1.59e-02  6.07e-05  5.01e-03  3.79e-02  0.850   2.8
   10    -1952.8856220704360567    -1.32e-02  5.11e-05  4.25e-03  3.17e-02  0.850   2.7
   11    -1952.8966550884510980    -1.10e-02  4.31e-05  3.64e-03  2.68e-02  0.850   2.7
   12    -1952.9059149703857656    -9.26e-03  2.45e-04  2.09e-02  2.25e-02  0.000   2.8
   13    -1952.9566195459333358    -5.07e-02  1.79e-05  3.31e-03  3.02e-03  0.000   3.0
   14    -1952.9566337624087282    -1.42e-05  5.83e-06  7.14e-04  1.98e-03  0.000   2.4
                              *** Initializing SOSCF ***
---------------------------------------S-O-S-C-F--------------------------------------
Iteration    Energy (Eh)           Delta-E    RMSDP     MaxDP     MaxGrad    Time(sec)
--------------------------------------------------------------------------------------
   15    -1952.9566411111995876    -7.35e-06  2.06e-06  2.15e-04  4.00e-04     2.6
               *** Restarting incremental Fock matrix formation ***
   16    -1952.9566487079687249    -7.60e-06  3.62e-06  3.52e-04  6.87e-05     5.4
   17    -1952.9566484674992353     2.40e-07  1.68e-06  2.32e-04  2.12e-04     3.1
   18    -1952.9566488081304669    -3.41e-07  6.55e-07  1.06e-04  8.58e-06     2.6
   19    -1952.9566488096020294    -1.47e-09  3.37e-07  6.11e-05  1.45e-05     2.8
                 **** Energy Check signals convergence ****

               *****************************************************
               *                     SUCCESS                       *
               *           SCF CONVERGED AFTER  19 CYCLES          *
               *****************************************************

Recomputing exchange energy using gridx3       ... done (    6.811 sec)
Old exchange energy                            :    -20.882799787 Eh
New exchange energy                            :    -20.882810006 Eh
Exchange energy change after final integration :     -0.000010219 Eh
Total energy after final integration           :  -1952.956659028 Eh

SMD CDS free energy correction energy :                 3.69432     Kcal/mol
Total Energy after SMD CDS correction =             -1952.950771761 Eh
             **** ENERGY FILE WAS UPDATED (rf_mecn_opt_r2s_D_B_01.en.tmp) ****

----------------
TOTAL SCF ENERGY
----------------

Total Energy       :      -1952.95077176128325 Eh          -53142.49221 eV

Components:
Nuclear Repulsion  :       2860.97578425311940 Eh           77851.10896 eV
Electronic Energy  :      -4813.85020019229160 Eh         -130991.52343 eV
One Electron Energy:      -8435.57388810424709 Eh         -229543.63527 eV
Two Electron Energy:       3621.72368791195595 Eh           98552.11184 eV
CPCM Dielectric    :         -0.08223287043091 Eh              -2.23767 eV
SMD CDS (Gcds)     :          0.00588726697443 Eh               0.16020 eV

Virial components:
Potential Energy   :      -3898.04932118301440 Eh         -106071.31459 eV
Kinetic Energy     :       1945.09854942173138 Eh           52928.82238 eV
Virial Ratio       :          2.00403692776486

DFT components:
N(Alpha)           :       99.999974985419 electrons
N(Beta)            :       99.999974985419 electrons
N(Total)           :      199.999949970838 electrons
E(X)               :     -189.010565683871 Eh       
E(C)               :       -6.958176808720 Eh       
E(XC)              :     -195.968742492591 Eh       

CPCM Solvation Model Properties:
Surface-charge          :          0.99059279872010
Corrected charge        :          1.00000000000000
Outlying charge corr.   :          0.00000479528862 Eh               0.00013 eV
Free-energy (cav+disp)  :          0.00588726697443 Eh               0.16020 eV

---------------
SCF CONVERGENCE
---------------

  Last Energy change         ...    1.4716e-09  Tolerance :   1.0000e-08
  Last MAX-Density change    ...    6.1076e-05  Tolerance :   1.0000e-07
  Last RMS-Density change    ...    3.3732e-07  Tolerance :   5.0000e-09
  Last DIIS Error            ...    4.0044e-04  Tolerance :   5.0000e-07
  Last Orbital Gradient      ...    1.4473e-05  Tolerance :   1.0000e-05
  Last Orbital Rotation      ...    2.0036e-05  Tolerance :   1.0000e-05


----------------
ORBITAL ENERGIES
----------------

  NO   OCC          E(Eh)            E(eV) 
   0   2.0000     -24.733132      -673.0227 
   1   2.0000     -24.732539      -673.0066 
   2   2.0000     -24.732389      -673.0025 
   3   2.0000     -24.732232      -672.9983 
   4   2.0000     -24.732126      -672.9954 
   5   2.0000     -24.731555      -672.9798 
   6   2.0000     -24.731303      -672.9730 
   7   2.0000     -24.729947      -672.9361 
   8   2.0000     -24.729693      -672.9292 
   9   2.0000     -24.725234      -672.8078 
  10   2.0000     -24.723301      -672.7552 
  11   2.0000     -24.714965      -672.5284 
  12   2.0000     -24.710673      -672.4116 
  13   2.0000     -24.693223      -671.9368 
  14   2.0000     -24.690555      -671.8642 
  15   2.0000     -19.076370      -519.0944 
  16   2.0000     -19.074731      -519.0498 
  17   2.0000     -10.445047      -284.2242 
  18   2.0000     -10.392883      -282.8047 
  19   2.0000     -10.391559      -282.7687 
  20   2.0000     -10.389775      -282.7201 
  21   2.0000     -10.382898      -282.5330 
  22   2.0000     -10.370218      -282.1880 
  23   2.0000     -10.346073      -281.5310 
  24   2.0000     -10.279001      -279.7058 
  25   2.0000      -1.355079       -36.8736 
  26   2.0000      -1.332022       -36.2462 
  27   2.0000      -1.317171       -35.8420 
  28   2.0000      -1.309236       -35.6261 
  29   2.0000      -1.305814       -35.5330 
  30   2.0000      -1.294239       -35.2180 
  31   2.0000      -1.269933       -34.5566 
  32   2.0000      -1.264053       -34.3966 
  33   2.0000      -1.263654       -34.3858 
  34   2.0000      -1.262280       -34.3484 
  35   2.0000      -1.256801       -34.1993 
  36   2.0000      -1.253577       -34.1116 
  37   2.0000      -1.249792       -34.0086 
  38   2.0000      -1.237879       -33.6844 
  39   2.0000      -1.209799       -32.9203 
  40   2.0000      -0.964267       -26.2390 
  41   2.0000      -0.904534       -24.6136 
  42   2.0000      -0.845679       -23.0121 
  43   2.0000      -0.823606       -22.4114 
  44   2.0000      -0.793436       -21.5905 
  45   2.0000      -0.753651       -20.5079 
  46   2.0000      -0.710301       -19.3283 
  47   2.0000      -0.680729       -18.5236 
  48   2.0000      -0.663012       -18.0415 
  49   2.0000      -0.638100       -17.3636 
  50   2.0000      -0.633592       -17.2409 
  51   2.0000      -0.626419       -17.0457 
  52   2.0000      -0.617258       -16.7964 
  53   2.0000      -0.613084       -16.6829 
  54   2.0000      -0.611848       -16.6492 
  55   2.0000      -0.599721       -16.3192 
  56   2.0000      -0.595181       -16.1957 
  57   2.0000      -0.589967       -16.0538 
  58   2.0000      -0.584380       -15.9018 
  59   2.0000      -0.573316       -15.6007 
  60   2.0000      -0.568726       -15.4758 
  61   2.0000      -0.565264       -15.3816 
  62   2.0000      -0.555950       -15.1282 
  63   2.0000      -0.539901       -14.6914 
  64   2.0000      -0.501931       -13.6582 
  65   2.0000      -0.498212       -13.5570 
  66   2.0000      -0.492626       -13.4050 
  67   2.0000      -0.489411       -13.3176 
  68   2.0000      -0.485298       -13.2056 
  69   2.0000      -0.482330       -13.1249 
  70   2.0000      -0.477414       -12.9911 
  71   2.0000      -0.472626       -12.8608 
  72   2.0000      -0.468275       -12.7424 
  73   2.0000      -0.466774       -12.7016 
  74   2.0000      -0.464035       -12.6270 
  75   2.0000      -0.457267       -12.4429 
  76   2.0000      -0.453588       -12.3428 
  77   2.0000      -0.449241       -12.2245 
  78   2.0000      -0.448750       -12.2111 
  79   2.0000      -0.444086       -12.0842 
  80   2.0000      -0.439172       -11.9505 
  81   2.0000      -0.438338       -11.9278 
  82   2.0000      -0.435308       -11.8453 
  83   2.0000      -0.431001       -11.7281 
  84   2.0000      -0.430105       -11.7038 
  85   2.0000      -0.426881       -11.6160 
  86   2.0000      -0.424772       -11.5586 
  87   2.0000      -0.420298       -11.4369 
  88   2.0000      -0.418011       -11.3747 
  89   2.0000      -0.411820       -11.2062 
  90   2.0000      -0.401490       -10.9251 
  91   2.0000      -0.400417       -10.8959 
  92   2.0000      -0.384513       -10.4631 
  93   2.0000      -0.378081       -10.2881 
  94   2.0000      -0.358038        -9.7427 
  95   2.0000      -0.339115        -9.2278 
  96   2.0000      -0.327379        -8.9084 
  97   2.0000      -0.241435        -6.5698 
  98   2.0000      -0.233636        -6.3576 
  99   2.0000      -0.230505        -6.2724 
 100   0.0000      -0.033386        -0.9085 
 101   0.0000      -0.021159        -0.5758 
 102   0.0000      -0.004907        -0.1335 
 103   0.0000       0.028401         0.7728 
 104   0.0000       0.038306         1.0423 
 105   0.0000       0.075169         2.0454 
 106   0.0000       0.087419         2.3788 
 107   0.0000       0.105454         2.8696 
 108   0.0000       0.109515         2.9801 
 109   0.0000       0.119034         3.2391 
 110   0.0000       0.124058         3.3758 
*Only the first 10 virtual orbitals were printed.

                    ********************************
                    * MULLIKEN POPULATION ANALYSIS *
                    ********************************

-----------------------
MULLIKEN ATOMIC CHARGES
-----------------------
   0 C :    0.240853
   1 O :   -0.556910
   2 O :   -0.559385
   3 C :    0.355832
   4 C :    0.327685
   5 C :    0.328203
   6 C :    0.318571
   7 C :    0.300779
   8 C :    0.332952
   9 C :    0.470304
  10 F :   -0.198073
  11 F :   -0.210951
  12 F :   -0.180057
  13 F :   -0.179998
  14 F :   -0.170067
  15 F :   -0.170528
  16 F :   -0.166387
  17 F :   -0.165581
  18 F :   -0.164584
  19 F :   -0.164463
  20 F :   -0.163858
  21 F :   -0.160494
  22 F :   -0.156427
  23 F :   -0.153211
  24 F :   -0.154205
Sum of atomic charges:   -1.0000000

--------------------------------
MULLIKEN REDUCED ORBITAL CHARGES
--------------------------------
  0 C s       :     3.146647  s :     3.146647
      pz      :     0.833395  p :     2.402341
      px      :     0.856391
      py      :     0.712556
      dz2     :     0.012487  d :     0.193869
      dxz     :     0.014979
      dyz     :     0.057114
      dx2y2   :     0.050925
      dxy     :     0.058363
      f0      :     0.001648  f :     0.016290
      f+1     :     0.001039
      f-1     :     0.002046
      f+2     :     0.002446
      f-2     :     0.001602
      f+3     :     0.003590
      f-3     :     0.003920

  1 O s       :     3.875877  s :     3.875877
      pz      :     1.592495  p :     4.656698
      px      :     1.636151
      py      :     1.428052
      dz2     :     0.003077  d :     0.023101
      dxz     :     0.001660
      dyz     :     0.005291
      dx2y2   :     0.005470
      dxy     :     0.007603
      f0      :     0.000110  f :     0.001234
      f+1     :     0.000055
      f-1     :     0.000170
      f+2     :     0.000115
      f-2     :     0.000188
      f+3     :     0.000356
      f-3     :     0.000240

  2 O s       :     3.873196  s :     3.873196
      pz      :     1.619456  p :     4.661358
      px      :     1.737813
      py      :     1.304089
      dz2     :     0.003108  d :     0.023576
      dxz     :     0.000323
      dyz     :     0.006073
      dx2y2   :     0.008751
      dxy     :     0.005321
      f0      :     0.000116  f :     0.001255
      f+1     :     0.000016
      f-1     :     0.000222
      f+2     :     0.000211
      f-2     :     0.000032
      f+3     :     0.000285
      f-3     :     0.000374

  3 C s       :     3.112185  s :     3.112185
      pz      :     0.680586  p :     2.261345
      px      :     0.940719
      py      :     0.640039
      dz2     :     0.045134  d :     0.246351
      dxz     :     0.046617
      dyz     :     0.061177
      dx2y2   :     0.042497
      dxy     :     0.050926
      f0      :     0.005156  f :     0.024288
      f+1     :     0.003543
      f-1     :     0.003700
      f+2     :     0.003329
      f-2     :     0.001981
      f+3     :     0.003566
      f-3     :     0.003013

  4 C s       :     3.122107  s :     3.122107
      pz      :     0.608208  p :     2.248302
      px      :     0.939046
      py      :     0.701048
      dz2     :     0.060259  d :     0.275206
      dxz     :     0.057358
      dyz     :     0.067160
      dx2y2   :     0.034000
      dxy     :     0.056429
      f0      :     0.003469  f :     0.026699
      f+1     :     0.004816
      f-1     :     0.007804
      f+2     :     0.002085
      f-2     :     0.002596
      f+3     :     0.003478
      f-3     :     0.002450

  5 C s       :     3.149873  s :     3.149873
      pz      :     0.585289  p :     2.209950
      px      :     0.915125
      py      :     0.709536
      dz2     :     0.075220  d :     0.284931
      dxz     :     0.060797
      dyz     :     0.059028
      dx2y2   :     0.032296
      dxy     :     0.057591
      f0      :     0.004747  f :     0.027043
      f+1     :     0.004288
      f-1     :     0.005975
      f+2     :     0.003061
      f-2     :     0.004286
      f+3     :     0.002540
      f-3     :     0.002146

  6 C s       :     3.146151  s :     3.146151
      pz      :     0.578762  p :     2.222118
      px      :     0.925717
      py      :     0.717638
      dz2     :     0.081171  d :     0.286091
      dxz     :     0.061190
      dyz     :     0.054451
      dx2y2   :     0.031906
      dxy     :     0.057372
      f0      :     0.005925  f :     0.027069
      f+1     :     0.003835
      f-1     :     0.004198
      f+2     :     0.003946
      f-2     :     0.005136
      f+3     :     0.002095
      f-3     :     0.001934

  7 C s       :     3.147713  s :     3.147713
      pz      :     0.587830  p :     2.237747
      px      :     0.939750
      py      :     0.710168
      dz2     :     0.074827  d :     0.286683
      dxz     :     0.061298
      dyz     :     0.060916
      dx2y2   :     0.032025
      dxy     :     0.057618
      f0      :     0.004576  f :     0.027077
      f+1     :     0.004282
      f-1     :     0.006319
      f+2     :     0.002930
      f-2     :     0.004209
      f+3     :     0.002618
      f-3     :     0.002143

  8 C s       :     3.109763  s :     3.109763
      pz      :     0.617206  p :     2.247567
      px      :     0.940646
      py      :     0.689714
      dz2     :     0.058999  d :     0.282593
      dxz     :     0.059939
      dyz     :     0.072101
      dx2y2   :     0.033156
      dxy     :     0.058397
      f0      :     0.003468  f :     0.027126
      f+1     :     0.004908
      f-1     :     0.008109
      f+2     :     0.002098
      f-2     :     0.002375
      f+3     :     0.003741
      f-3     :     0.002426

  9 C s       :     3.030930  s :     3.030930
      pz      :     0.646719  p :     2.107973
      px      :     0.802390
      py      :     0.658864
      dz2     :     0.066703  d :     0.351485
      dxz     :     0.068521
      dyz     :     0.085526
      dx2y2   :     0.063473
      dxy     :     0.067262
      f0      :     0.004505  f :     0.039308
      f+1     :     0.007837
      f-1     :     0.008790
      f+2     :     0.004348
      f-2     :     0.003045
      f+3     :     0.007305
      f-3     :     0.003478

 10 F s       :     3.923435  s :     3.923435
      pz      :     1.898264  p :     5.259044
      px      :     1.887291
      py      :     1.473489
      dz2     :     0.002087  d :     0.014980
      dxz     :     0.000315
      dyz     :     0.002855
      dx2y2   :     0.005691
      dxy     :     0.004031
      f0      :     0.000048  f :     0.000614
      f+1     :     0.000015
      f-1     :     0.000119
      f+2     :     0.000071
      f-2     :     0.000018
      f+3     :     0.000167
      f-3     :     0.000176

 11 F s       :     3.927486  s :     3.927486
      pz      :     1.494170  p :     5.268498
      px      :     1.903079
      py      :     1.871249
      dz2     :     0.006386  d :     0.014374
      dxz     :     0.003507
      dyz     :     0.003546
      dx2y2   :     0.000468
      dxy     :     0.000468
      f0      :     0.000207  f :     0.000593
      f+1     :     0.000136
      f-1     :     0.000168
      f+2     :     0.000038
      f-2     :     0.000038
      f+3     :     0.000003
      f-3     :     0.000003

 12 F s       :     3.926923  s :     3.926923
      pz      :     1.811162  p :     5.236063
      px      :     1.903095
      py      :     1.521807
      dz2     :     0.002087  d :     0.016386
      dxz     :     0.000813
      dyz     :     0.005276
      dx2y2   :     0.004848
      dxy     :     0.003363
      f0      :     0.000076  f :     0.000684
      f+1     :     0.000004
      f-1     :     0.000121
      f+2     :     0.000180
      f-2     :     0.000064
      f+3     :     0.000109
      f-3     :     0.000130

 13 F s       :     3.927925  s :     3.927925
      pz      :     1.450447  p :     5.235136
      px      :     1.904461
      py      :     1.880229
      dz2     :     0.008357  d :     0.016260
      dxz     :     0.003780
      dyz     :     0.003514
      dx2y2   :     0.000301
      dxy     :     0.000307
      f0      :     0.000330  f :     0.000678
      f+1     :     0.000156
      f-1     :     0.000160
      f+2     :     0.000012
      f-2     :     0.000018
      f+3     :     0.000001
      f-3     :     0.000002

 14 F s       :     3.928495  s :     3.928495
      pz      :     1.704519  p :     5.224245
      px      :     1.899452
      py      :     1.620275
      dz2     :     0.002721  d :     0.016639
      dxz     :     0.001656
      dyz     :     0.006546
      dx2y2   :     0.003119
      dxy     :     0.002597
      f0      :     0.000078  f :     0.000689
      f+1     :     0.000014
      f-1     :     0.000184
      f+2     :     0.000188
      f-2     :     0.000105
      f+3     :     0.000060
      f-3     :     0.000060

 15 F s       :     3.928211  s :     3.928211
      pz      :     1.498911  p :     5.225013
      px      :     1.902902
      py      :     1.823200
      dz2     :     0.006824  d :     0.016615
      dxz     :     0.003366
      dyz     :     0.004963
      dx2y2   :     0.000643
      dxy     :     0.000818
      f0      :     0.000227  f :     0.000689
      f+1     :     0.000110
      f-1     :     0.000233
      f+2     :     0.000051
      f-2     :     0.000060
      f+3     :     0.000005
      f-3     :     0.000004

 16 F s       :     3.929733  s :     3.929733
      pz      :     1.588725  p :     5.219261
      px      :     1.897927
      py      :     1.732609
      dz2     :     0.004568  d :     0.016703
      dxz     :     0.002665
      dyz     :     0.006324
      dx2y2   :     0.001556
      dxy     :     0.001591
      f0      :     0.000118  f :     0.000689
      f+1     :     0.000056
      f-1     :     0.000252
      f+2     :     0.000122
      f-2     :     0.000102
      f+3     :     0.000021
      f-3     :     0.000018

 17 F s       :     3.929681  s :     3.929681
      pz      :     1.599702  p :     5.218461
      px      :     1.898419
      py      :     1.720340
      dz2     :     0.004340  d :     0.016747
      dxz     :     0.002568
      dyz     :     0.006443
      dx2y2   :     0.001704
      dxy     :     0.001693
      f0      :     0.000111  f :     0.000692
      f+1     :     0.000050
      f-1     :     0.000249
      f+2     :     0.000132
      f-2     :     0.000105
      f+3     :     0.000024
      f-3     :     0.000021

 18 F s       :     3.930295  s :     3.930295
      pz      :     1.714834  p :     5.216807
      px      :     1.899147
      py      :     1.602825
      dz2     :     0.002625  d :     0.016791
      dxz     :     0.001548
      dyz     :     0.006565
      dx2y2   :     0.003370
      dxy     :     0.002684
      f0      :     0.000078  f :     0.000692
      f+1     :     0.000010
      f-1     :     0.000177
      f+2     :     0.000195
      f-2     :     0.000100
      f+3     :     0.000064
      f-3     :     0.000068

 19 F s       :     3.930187  s :     3.930187
      pz      :     1.489871  p :     5.216815
      px      :     1.898374
      py      :     1.828570
      dz2     :     0.007077  d :     0.016770
      dxz     :     0.003529
      dyz     :     0.004863
      dx2y2   :     0.000588
      dxy     :     0.000714
      f0      :     0.000239  f :     0.000691
      f+1     :     0.000117
      f-1     :     0.000227
      f+2     :     0.000045
      f-2     :     0.000056
      f+3     :     0.000004
      f-3     :     0.000003

 20 F s       :     3.930101  s :     3.930101
      pz      :     1.817652  p :     5.216407
      px      :     1.896989
      py      :     1.501766
      dz2     :     0.002109  d :     0.016662
      dxz     :     0.000679
      dyz     :     0.005174
      dx2y2   :     0.005167
      dxy     :     0.003533
      f0      :     0.000076  f :     0.000688
      f+1     :     0.000004
      f-1     :     0.000120
      f+2     :     0.000175
      f-2     :     0.000056
      f+3     :     0.000117
      f-3     :     0.000141

 21 F s       :     3.928068  s :     3.928068
      pz      :     1.436175  p :     5.214889
      px      :     1.896976
      py      :     1.881738
      dz2     :     0.008787  d :     0.016832
      dxz     :     0.004061
      dyz     :     0.003570
      dx2y2   :     0.000203
      dxy     :     0.000210
      f0      :     0.000350  f :     0.000705
      f+1     :     0.000171
      f-1     :     0.000159
      f+2     :     0.000009
      f-2     :     0.000014
      f+3     :     0.000001
      f-3     :     0.000001

 22 F s       :     3.925765  s :     3.925765
      pz      :     1.857880  p :     5.213091
      px      :     1.889519
      py      :     1.465692
      dz2     :     0.002291  d :     0.016836
      dxz     :     0.000338
      dyz     :     0.004384
      dx2y2   :     0.006229
      dxy     :     0.003593
      f0      :     0.000074  f :     0.000735
      f+1     :     0.000008
      f-1     :     0.000135
      f+2     :     0.000147
      f-2     :     0.000028
      f+3     :     0.000140
      f-3     :     0.000203

 23 F s       :     3.924205  s :     3.924205
      pz      :     1.823172  p :     5.211319
      px      :     1.600788
      py      :     1.787359
      dz2     :     0.002247  d :     0.016938
      dxz     :     0.004036
      dyz     :     0.001926
      dx2y2   :     0.003771
      dxy     :     0.004958
      f0      :     0.000083  f :     0.000749
      f+1     :     0.000099
      f-1     :     0.000039
      f+2     :     0.000079
      f-2     :     0.000164
      f+3     :     0.000122
      f-3     :     0.000163

 24 F s       :     3.924555  s :     3.924555
      pz      :     1.435829  p :     5.211891
      px      :     1.889036
      py      :     1.887026
      dz2     :     0.009239  d :     0.017010
      dxz     :     0.003862
      dyz     :     0.003561
      dx2y2   :     0.000198
      dxy     :     0.000148
      f0      :     0.000386  f :     0.000749
      f+1     :     0.000173
      f-1     :     0.000169
      f+2     :     0.000012
      f-2     :     0.000008
      f+3     :     0.000001
      f-3     :     0.000001



                     *******************************
                     * LOEWDIN POPULATION ANALYSIS *
                     *******************************

----------------------
LOEWDIN ATOMIC CHARGES
----------------------
   0 C :   -0.397281
   1 O :   -0.209308
   2 O :   -0.200387
   3 C :   -0.396046
   4 C :   -0.440363
   5 C :   -0.444678
   6 C :   -0.441728
   7 C :   -0.442831
   8 C :   -0.448447
   9 C :   -0.640680
  10 F :    0.148806
  11 F :    0.133221
  12 F :    0.202462
  13 F :    0.199634
  14 F :    0.212827
  15 F :    0.210811
  16 F :    0.215165
  17 F :    0.216403
  18 F :    0.218041
  19 F :    0.216671
  20 F :    0.214976
  21 F :    0.217498
  22 F :    0.216655
  23 F :    0.219177
  24 F :    0.219404

-------------------------------
LOEWDIN REDUCED ORBITAL CHARGES
-------------------------------
  0 C s       :     2.857055  s :     2.857055
      pz      :     0.827645  p :     2.641890
      px      :     0.878104
      py      :     0.936142
      dz2     :     0.073917  d :     0.803711
      dxz     :     0.076043
      dyz     :     0.186939
      dx2y2   :     0.250212
      dxy     :     0.216600
      f0      :     0.007967  f :     0.094625
      f+1     :     0.004061
      f-1     :     0.014836
      f+2     :     0.011547
      f-2     :     0.011781
      f+3     :     0.020672
      f-3     :     0.023762

  1 O s       :     3.554193  s :     3.554193
      pz      :     1.530894  p :     4.606573
      px      :     1.588835
      py      :     1.486845
      dz2     :     0.005955  d :     0.045506
      dxz     :     0.003284
      dyz     :     0.009092
      dx2y2   :     0.010883
      dxy     :     0.016292
      f0      :     0.000290  f :     0.003036
      f+1     :     0.000125
      f-1     :     0.000394
      f+2     :     0.000249
      f-2     :     0.000466
[...]

 17 F s       :     3.589509  s :     3.589509
      pz      :     1.615081  p :     5.145874
      px      :     1.815940
      py      :     1.714853
      dz2     :     0.008755  d :     0.032281
      dxz     :     0.006030
      dyz     :     0.012118
      dx2y2   :     0.002424
      dxy     :     0.002955
      f0      :     0.000322  f :     0.001594
      f+1     :     0.000170
      f-1     :     0.000501
      f+2     :     0.000233
      f-2     :     0.000285
      f+3     :     0.000054
      f-3     :     0.000029

 18 F s       :     3.589751  s :     3.589751
      pz      :     1.694221  p :     5.144530
      px      :     1.816351
      py      :     1.633958
      dz2     :     0.004837  d :     0.032294
      dxz     :     0.003611
      dyz     :     0.012809
      dx2y2   :     0.005788
      dxy     :     0.005250
      f0      :     0.000192  f :     0.001594
      f+1     :     0.000032
      f-1     :     0.000403
      f+2     :     0.000380
      f-2     :     0.000297
      f+3     :     0.000176
      f-3     :     0.000115

 19 F s       :     3.590130  s :     3.590130
      pz      :     1.569921  p :     5.144811
      px      :     1.814971
      py      :     1.759919
      dz2     :     0.012413  d :     0.032285
      dxz     :     0.007364
      dyz     :     0.009800
      dx2y2   :     0.001081
      dxy     :     0.001627
      f0      :     0.000472  f :     0.001592
      f+1     :     0.000301
      f-1     :     0.000490
      f+2     :     0.000112
      f-2     :     0.000193
      f+3     :     0.000016
      f-3     :     0.000009

 20 F s       :     3.591022  s :     3.591022
      pz      :     1.765242  p :     5.144937
      px      :     1.814927
      py      :     1.564768
      dz2     :     0.003908  d :     0.032182
      dxz     :     0.001513
      dyz     :     0.009532
      dx2y2   :     0.009772
      dxy     :     0.007456
      f0      :     0.000146  f :     0.001594
      f+1     :     0.000010
      f-1     :     0.000309
      f+2     :     0.000353
      f-2     :     0.000162
      f+3     :     0.000343
      f-3     :     0.000271

 21 F s       :     3.590057  s :     3.590057
      pz      :     1.524943  p :     5.143987
      px      :     1.817108
      py      :     1.801936
      dz2     :     0.016901  d :     0.032483
      dxz     :     0.008569
      dyz     :     0.006375
      dx2y2   :     0.000281
      dxy     :     0.000357
      f0      :     0.000692  f :     0.001621
      f+1     :     0.000476
      f-1     :     0.000395
      f+2     :     0.000011
      f-2     :     0.000044
      f+3     :     0.000002
      f-3     :     0.000002

 22 F s       :     3.593099  s :     3.593099
      pz      :     1.789965  p :     5.142739
      px      :     1.804895
      py      :     1.547878
      dz2     :     0.004427  d :     0.031833
      dxz     :     0.000518
      dyz     :     0.007797
      dx2y2   :     0.012240
      dxy     :     0.006851
      f0      :     0.000150  f :     0.001673
      f+1     :     0.000020
      f-1     :     0.000323
      f+2     :     0.000326
      f-2     :     0.000060
      f+3     :     0.000380
      f-3     :     0.000413

 23 F s       :     3.593158  s :     3.593158
      pz      :     1.768605  p :     5.141508
      px      :     1.628354
      py      :     1.744549
      dz2     :     0.004218  d :     0.032059
      dxz     :     0.007375
      dyz     :     0.003717
      dx2y2   :     0.007319
      dxy     :     0.009430
      f0      :     0.000166  f :     0.001698
      f+1     :     0.000251
      f-1     :     0.000100
      f+2     :     0.000171
      f-2     :     0.000359
      f+3     :     0.000320
      f-3     :     0.000332

 24 F s       :     3.591725  s :     3.591725
      pz      :     1.529555  p :     5.141497
      px      :     1.804505
      py      :     1.807437
      dz2     :     0.018415  d :     0.032121
      dxz     :     0.007302
      dyz     :     0.005907
      dx2y2   :     0.000310
      dxy     :     0.000186
      f0      :     0.000800  f :     0.001698
      f+1     :     0.000454
      f-1     :     0.000395
      f+2     :     0.000033
      f-2     :     0.000013
      f+3     :     0.000002
      f-3     :     0.000002



                      *****************************
                      * MAYER POPULATION ANALYSIS *
                      *****************************

  NA   - Mulliken gross atomic population
  ZA   - Total nuclear charge
  QA   - Mulliken gross atomic charge
  VA   - Mayer's total valence
  BVA  - Mayer's bonded valence
  FA   - Mayer's free valence

  ATOM       NA         ZA         QA         VA         BVA        FA
  0 C      5.7878     6.0000     0.2122     4.5856     4.5856    -0.0000
  1 O      8.5087     8.0000    -0.5087     1.9586     1.9586    -0.0000
  2 O      8.5231     8.0000    -0.5231     1.9436     1.9436     0.0000
  3 C      5.6562     6.0000     0.3438     3.9086     3.9086     0.0000
  4 C      5.7006     6.0000     0.2994     4.1289     4.1289     0.0000
  5 C      5.6722     6.0000     0.3278     4.1888     4.1888     0.0000
  6 C      5.6774     6.0000     0.3226     4.1913     4.1913     0.0000
  7 C      5.7010     6.0000     0.2990     4.1909     4.1909    -0.0000
  8 C      5.6698     6.0000     0.3302     4.2113     4.2113    -0.0000
  9 C      5.5290     6.0000     0.4710     4.4684     4.4684    -0.0000
 10 F      9.2075     9.0000    -0.2075     1.0788     1.0788    -0.0000
 11 F      9.2134     9.0000    -0.2134     1.0662     1.0662     0.0000
 12 F      9.1790     9.0000    -0.1790     1.1319     1.1319     0.0000
 13 F      9.1858     9.0000    -0.1858     1.1242     1.1242    -0.0000
 14 F      9.1717     9.0000    -0.1717     1.1441     1.1441     0.0000
 15 F      9.1700     9.0000    -0.1700     1.1485     1.1485    -0.0000
 16 F      9.1661     9.0000    -0.1661     1.1534     1.1534    -0.0000
 17 F      9.1653     9.0000    -0.1653     1.1563     1.1563     0.0000
 18 F      9.1642     9.0000    -0.1642     1.1589     1.1589    -0.0000
 19 F      9.1641     9.0000    -0.1641     1.1569     1.1569    -0.0000
 20 F      9.1632     9.0000    -0.1632     1.1588     1.1588     0.0000
 21 F      9.1600     9.0000    -0.1600     1.1606     1.1606     0.0000
 22 F      9.1561     9.0000    -0.1561     1.1647     1.1647    -0.0000
 23 F      9.1535     9.0000    -0.1535     1.1641     1.1641    -0.0000
 24 F      9.1541     9.0000    -0.1541     1.1662     1.1662     0.0000

  Mayer bond orders larger than 0.100000
B(  0-C ,  1-O ) :   1.8539 B(  0-C ,  2-O ) :   1.8243 B(  0-C ,  3-C ) :   0.8375 
B(  3-C ,  4-C ) :   0.9321 B(  3-C , 10-F ) :   1.0342 B(  3-C , 11-F ) :   1.0261 
B(  4-C ,  5-C ) :   0.9237 B(  4-C , 12-F ) :   1.0635 B(  4-C , 13-F ) :   1.0593 
B(  5-C ,  6-C ) :   0.9345 B(  5-C , 14-F ) :   1.0690 B(  5-C , 15-F ) :   1.0806 
B(  6-C ,  7-C ) :   0.9299 B(  6-C , 16-F ) :   1.0775 B(  6-C , 17-F ) :   1.0814 
B(  7-C ,  8-C ) :   0.9357 B(  7-C , 18-F ) :   1.0812 B(  7-C , 19-F ) :   1.0898 
B(  8-C ,  9-C ) :   0.9537 B(  8-C , 20-F ) :   1.0822 B(  8-C , 21-F ) :   1.0980 
B(  9-C , 22-F ) :   1.1286 B(  9-C , 23-F ) :   1.1336 B(  9-C , 24-F ) :   1.1426 


-------
TIMINGS
-------

Total SCF time: 0 days 0 hours 0 min 28 sec 

Total time                  ....      28.629 sec
Sum of individual times     ....      27.977 sec  ( 97.7%)

SCF preparation             ....       1.222 sec  (  4.3%)
Fock matrix formation       ....      24.785 sec  ( 86.6%)
  Startup                   ....       0.057 sec  (  0.2% of F)
  Split-RI-J                ....       1.587 sec  (  6.4% of F)
  Chain of spheres X        ....      17.594 sec  ( 71.0% of F)
  XC integration            ....       4.180 sec  ( 16.9% of F)
    XC Preparation          ....       0.000 sec  (  0.0% of XC)
    Basis function eval.    ....       0.339 sec  (  8.1% of XC)
    Density eval.           ....       0.924 sec  ( 22.1% of XC)
    XC-Functional eval.     ....       0.109 sec  (  2.6% of XC)
    XC-Potential eval.      ....       0.942 sec  ( 22.5% of XC)
  CPCM terms                ....       1.209 sec  (  4.9% of F)
Diagonalization             ....       0.000 sec  (  0.0%)
Density matrix formation    ....       0.214 sec  (  0.7%)
Total Energy calculation    ....       0.099 sec  (  0.3%)
Population analysis         ....       0.191 sec  (  0.7%)
Orbital Transformation      ....       0.218 sec  (  0.8%)
Orbital Orthonormalization  ....       0.000 sec  (  0.0%)
DIIS solution               ....       0.350 sec  (  1.2%)
SOSCF solution              ....       0.900 sec  (  3.1%)
Finished LeanSCF after  28.8 sec

Maximum memory used throughout the entire LEANSCF-calculation: 97.6 MB


-------------------------------------------------------------------------------
                          DFT DISPERSION CORRECTION                            
                                                                               
                              DFTD3 V3.1  Rev 1                                
                          USING Becke-Johnson damping                          
-------------------------------------------------------------------------------
The R2SCANh functional is recognized
Active option DFTDOPT                   ...         4   

molecular C6(AA) [au] = 6619.677798 


            DFT-D V3
 parameters
 s6 scaling factor         :     1.0000 
 a1 scaling factor         :     0.4709 
 s8 scaling factor         :     1.1236 
 a2 scaling factor         :     5.9157 
 ad hoc parameters k1-k3   :    16.0000     1.3333    -4.0000 

 Edisp/kcal,au: -5.325183631439  -0.008486219386 
 E6   /kcal   :  -3.890278172 
 E8   /kcal   :  -1.434905459 
 % E8         :  26.945652179 

-------------------------   ----------------
Dispersion correction           -0.008486219
-------------------------   ----------------


-------------------------   --------------------
FINAL SINGLE POINT ENERGY     -1953.015940152113
-------------------------   --------------------

                                *** OPTIMIZATION RUN DONE ***



           ************************************************************
           *        Program running with 20 parallel MPI-processes    *
           *              working on a common directory               *
           ************************************************************

------------------------------------------------------------------------------
                              ORCA PROPERTY CALCULATIONS
------------------------------------------------------------------------------

GBWName                                 ... rf_mecn_opt_r2s_D_B_01.gbw
Number of atoms                         ...     25
Number of basis functions               ...    775
Max core memory                         ...   8000 MB

Electric properties:
Dipole moment                           ... YES
Quadrupole moment                       ...  NO
Static polarizability (Dipole/Dipole)   ...  NO
Static polarizability (Dipole/Quad.)    ...  NO
Static polarizability (Quad./Quad.)     ...  NO
Static polarizability (Velocity)        ...  NO

Atomic electric properties:
Dipole moment                           ...  NO
Quadrupole moment                       ...  NO
Static polarizability                   ...  NO

Choice of electric origin               ... Center of mass
Position of electric origin             ...    -0.106150    -0.030026     0.000974

General magnetic properties:
Magnetizability                         ...  NO

EPR properties:
g-Tensor (aka g-matrix)                 ...  NO
Zero-Field splitting spin-orbit         ...  NO
Zero-field splitting spin-spin          ...  NO
Hyperfine couplings                     ...  NO (   0 nuclei)
Quadrupole couplings                    ...  NO (   0 nuclei)
Contact density                         ...  NO (   0 nuclei)

NMR properties:
Chemical shifts                         ...  NO (   0 nuclei)
Spin-rotation constants                 ...  NO (   0 nuclei)
Spin-spin couplings                     ...  NO (   0 nuclei,    0 pairs)

Choice of magnetic origin               ... GIAO
Position of magnetic origin             ...     0.000000     0.000000     0.000000

Properties with geometric perturbations:
SCF Hessian                             ...  NO
IR spectrum                             ...  NO
VCD spectrum                            ...  NO
X-ray spectroscopy properties:
SCF XES/XAS/RIXS spectra                ...  NO


-------------
DIPOLE MOMENT
-------------

Method             : SCF
Type of density    : Electron Density
Multiplicity       :   1
Irrep              :   0
Energy             : -1953.0074539327272305 Eh
Relativity type    : 
Basis              : AO
                                X                 Y                 Z
Electronic contribution:    -18.653199832      -0.879438891       1.912423120
Nuclear contribution   :      9.771523150       0.523070698      -1.089905145
                        -----------------------------------------
Total Dipole Moment    :     -8.881676682      -0.356368193       0.822517975
                        -----------------------------------------
Magnitude (a.u.)       :      8.926797567
Magnitude (Debye)      :     22.690116202



--------------------
Rotational spectrum 
--------------------
 
Rotational constants in cm-1:             0.021447             0.003785             0.003731 
Rotational constants in MHz :           642.959636           113.464324           111.865419 

Dipole components along the rotational axes: 
x,y,z [a.u.] :     8.877238     0.437927    -0.831010 
x,y,z [Debye]:    22.564146     1.113122    -2.112259 

 

Dipole moment calculation done in   0.0 sec 

Maximum memory used throughout the entire PROP-calculation: 53.7 MB

--------------------------------
SUGGESTED CITATIONS FOR THIS RUN
--------------------------------

Below you find a list of papers that are relevant to this ORCA run
We neither can nor want to force you to cite these papers, but we appreciate if you do
You receive ORCA, which is the product of decades of hard work by many enthusiastic individuals, for free
The only thing we kindly ask in return is that you cite our papers,
We deeply appreciate it, if you show your appreciation for ORCA by not just citing the generic ORCA reference.

Please note that relegating all ORCA citations to the supporting information does *not* help us.
SI sections are not indexed - citations you put there will not count into any citation statistics
But we need these citations in order to attract the funding resources that allow us to do what we are doing

Therefore, if you are a happy ORCA user, please consider citing a few of the papers listed below in the main body of your paper

In addition to the list printed below, the program has created the file rf_mecn_opt_r2s_D_B_01.bibtex that contains the list in bibtex format
You can import this file easily into all common literature databanks and citation aid programs


List of essential papers. We consider these as the minimum necessary citations

  1. Neese,F.
     Software update: the ORCA program system, version 5.0
     WIRES Comput. Molec. Sci., 2022 12(1)e1606
     doi.org/10.1002/wcms.1606

List of papers to cite with high priority. The work reported in these papers was absolutely
necessary for this run to complete.
Our perspective: the developers of density functionals and basis sets usually get cited in chemistry papers
Good! But without the algorithms to do something with them, the functionals or basis sets would not do anything.
Hence, in our opinion, the algorithm design and method developments papers are equally worthy of getting cited

  1. Neese,F.
     An improvement of the resolution of the identity approximation for the formation of the Coulomb matrix
     J. Comp. Chem., 2003 24(14)1740-1747
     doi.org/10.1002/jcc.10318
  2. Neese,F.; Wennmohs,F.; Hansen,A.; Becker,U.
     Efficient, approximate and parallel Hartree-Fock and hybrid DFT calculations. A 'chain-of-spheres' algorithm for the Hartree-Fock exchange
     Chem. Phys., 2009 356(1-3)98-109
     doi.org/10.1016/j.chemphys.2008.10.036
  3. Garcia-Rates,M.; Neese,F.
     Effect of the Solute Cavity on the Solvation Energy and its Derivatives within the Framework of the Gaussian Charge Scheme
     J. Comput. Chem., 2020 41 922-939
     doi.org/10.1002/jcc.26139
  4. Helmich-Paris,B.; de Souza,B.; Neese,F.; Izsák,R.
     An improved chain of spheres for exchange algorithm
     J. Chem. Phys., 2021 155 104109
     doi.org/doi: 10.1063/5.0058766.
  5. Neese,F.
     The SHARK Integral Generation and Digestion System
     J. Comp. Chem., 2022  1-16
     doi.org/10.1002/jcc.26942
  6. Lehtola,S.; Steigemann,C.; Oliveira,M.; Marques,M.
     Recent developments in Libxc - A comprehensive library of functionals for density functional theory
     Software X, 2018 7 
     doi.org/10.1016/j.softx.2017.11.002
  7. Grimme,S.; Antony,J.; Ehrlich,S.; Krieg,H.
     A consistent and accurate ab initio parametrization of density functional dispersion correction (DFT-D) for the 94 elements H-Pu
     J. Chem. Phys., 2010 132 154104
     doi.org/10.1063/1.3382344
  8. Grimme,S.; Ehrlich,S.; Goerigk,L.
     Effect of the damping function in dispersion corrected density functional theory
     J. Comput. Chem., 2011 32(7)1456-1465
     doi.org/10.1002/jcc.21759
  9. Bursch,M.; Neugebauer,H.; Ehlert,S.; Grimme,S.
     Dispersion corrected r2SCAN based global hybrid functionals: r2SCANh, r2SCAN0, and r2SCAN50
     J. Phys. Chem., 2022 156(13)134105
     doi.org/10.1063/5.0086040

List of suggested additional citations. These are papers that are important in the 'surrounding' of 
of this run, or papers that preceded the highly important papers. If you like your results we are grateful for a citation.

  1. Izsak,R.; Neese,F.
     An overlap fitted chain of spheres exchange method
     J. Chem. Phys., 2011 135 144105
     doi.org/10.1063/1.3646921
  2. Izsak,R.; Hansen,A.; Neese,F.
     The resolution of identity and chain of spheres approximations for the LPNO-CCSD singles Fock term
     Molec. Phys., 2012 110 2413-2417
     doi.org/10.1080/00268976.2012.687466
  3. Neese,F.
     The ORCA program system
     WIRES Comput. Molec. Sci., 2012 2(1)73-78
     doi.org/10.1002/wcms.81
  4. Izsak,R.; Neese,F.; Klopper,W.
     Robust fitting techniques in the chain of spheres approximation to the Fock exchange: The role of the complementary space
     J. Chem. Phys., 2013 139 
     doi.org/10.1063/1.4819264
  5. Neese,F.
     Software update: the ORCA program system, version 4.0
     WIRES Comput. Molec. Sci., 2018 8(1)1-6
     doi.org/10.1002/wcms.1327
  6. Neese,F.; Wennmohs,F.; Becker,U.; Riplinger,C.
     The ORCA quantum chemistry program package
     J. Chem. Phys., 2020 152 Art. No. L224108
     doi.org/10.1063/5.0004608
  7. Wittmann,L.; Neugebauer,H.; Grimme,S.; Bursch,M.
     Dispersion-corrected r2SCAN based double-hybrid functionals
     J. Chem. Phys., 2023 159(22)224103
     doi.org/10.1063/5.0174988

List of optional additional citations

  1. Neese,F.
     Approximate second-order SCF convergence for spin unrestricted wavefunctions
     Chem. Phys. Lett., 2000 325(1-3)93-98
     doi.org/10.1016/s0009-2614(00)00662-x

Timings for individual modules:

Sum of individual times          ...      880.017 sec (=  14.667 min)
Startup calculation              ...       46.513 sec (=   0.775 min)   5.3 %
SCF iterations                   ...      629.156 sec (=  10.486 min)  71.5 %
Property calculations            ...        0.772 sec (=   0.013 min)   0.1 %
SCF Gradient evaluation          ...      203.347 sec (=   3.389 min)  23.1 %
Geometry relaxation              ...        0.229 sec (=   0.004 min)   0.0 %
                             ****ORCA TERMINATED NORMALLY****
TOTAL RUN TIME: 0 days 0 hours 14 minutes 48 seconds 346 msec
