
                                 *****************
                                 * O   R   C   A *
                                 *****************

                                            #,                                       
                                            ###                                      
                                            ####                                     
                                            #####                                    
                                            ######                                   
                                           ########,                                 
                                     ,,################,,,,,                         
                               ,,#################################,,                 
                          ,,##########################################,,             
                       ,#########################################, ''#####,          
                    ,#############################################,,   '####,        
                  ,##################################################,,,,####,       
                ,###########''''           ''''###############################       
              ,#####''   ,,,,##########,,,,          '''####'''          '####       
            ,##' ,,,,###########################,,,                        '##       
           ' ,,###''''                  '''############,,,                           
         ,,##''                                '''############,,,,        ,,,,,,###''
      ,#''                                            '''#######################'''  
     '                                                          ''''####''''         
             ,#######,   #######,   ,#######,      ##                                
            ,#'     '#,  ##    ##  ,#'     '#,    #''#        ,####,   ,####,        
            ##       ##  ##   ,#'  ##            #'  '#       #'       #'  '#        
            ##       ##  #######   ##           ,######,      #####,   #    #        
            '#,     ,#'  ##    ##  '#,     ,#' ,#      #,     #,   #   #,  ,#        
             '#######'   ##     ##  '#######'  #'      '#     '####' # '####'        



                #########################################################
                #                        -***-                          #
                #          Department of theory and spectroscopy        #
                #                                                       #
                #                      Frank Neese                      #
                #                                                       #
                #     Directorship, Architecture, Infrastructure        #
                #                    SHARK, DRIVERS                     #
                #        Core code/Algorithms in most modules           #
                #                                                       #
                #        Max Planck Institute fuer Kohlenforschung      #
                #                Kaiser Wilhelm Platz 1                 #
                #                 D-45470 Muelheim/Ruhr                 #
                #                      Germany                          #
                #                                                       #
                #                  All rights reserved                  #
                #                        -***-                          #
                #########################################################


                         Program Version 6.0.1  -  RELEASE   -


 With contributions from (in alphabetic order):
[Max-Planck-Institut fuer Kohlenforschung]                               
  Daniel Aravena         : Magnetic Suceptibility                        
  Michael Atanasov       : Ab Initio Ligand Field Theory (pilot matlab implementation)
  Alexander A. Auer      : GIAO ZORA, VPT2 properties, NMR spectrum      
  Ute Becker             : All parallelization in ORCA, NUMFREQ, NUMCALC 
  Giovanni Bistoni       : ED, misc. LED, open-shell LED, HFLD           
  Martin Brehm           : Molecular dynamics                            
  Dmytro Bykov           : pre 5.0 version of the SCF Hessian            
  Marcos Casanova-Páez   : Triplet and SCS-CIS(D). UHF-(DLPNO)-IP/EA/STEOM-CCSD. UHF-CVS-IP/STEOM-CCSD   
  Vijay G. Chilkuri      : MRCI spin determinant printing, contributions to CSF-ICE 
  Pauline Colinet        : FMM embedding                                 
  Dipayan Datta          : RHF DLPNO-CCSD density                        
  Achintya Kumar Dutta   : EOM-CC, STEOM-CC                              
  Nicolas Foglia         : Exact transition moments, OPA infrastructure, MCD improvements    
  Dmitry Ganyushin       : Spin-Orbit,Spin-Spin,Magnetic field MRCI      
  Miquel Garcia-Rates    : C-PCM and meta-GGA Hessian, CCSD/C-PCM, Gaussian charge scheme 
  Tiago L. C. Gouveia    : GS-ROHF, GS-ROCIS                             
  Yang Guo               : DLPNO-NEVPT2, F12-NEVPT2, CIM, IAO-localization        
  Andreas Hansen         : Spin unrestricted coupled pair/coupled cluster methods 
  Ingolf Harden          : AUTO-CI MPn and infrastructure                
  Benjamin Helmich-Paris : MC-RPA, TRAH-(SCF,CASSCF), AVAS, COSX integrals, SCF dyn. polar. 
  Lee Huntington         : MR-EOM, pCC                                   
  Robert Izsak           : Overlap fitted RIJCOSX, COSX-SCS-MP3, EOM     
  Riya Kayal             : Wick's Theorem for AUTO-CI, AUTO-CI UHF-CCSDT 
  Emily Kempfer          : AUTO-CI, RHF CISDT and CCSDT                  
  Christian Kollmar      : KDIIS, OOCD, Brueckner-CCSD(T), CCSD density, CASPT2, CASPT2-K, improved NEVPT2 
  Axel Koslowski         : Symmetry handling                             
  Simone Kossmann        : meta-GGA functionals, TD-DFT gradient, OOMP2, (MP2 Hessian; deprecated post 5.0) 
  Lucas Lang             : DCDCAS                                        
  Marvin Lechner         : AUTO-CI (C++ implementation), FIC-MRCC        
  Spencer Leger          : CASSCF response                               
  Dagmar Lenk            : GEPOL surface, SMD, ORCA-2-JSON               
  Dimitrios Liakos       : Extrapolation schemes; Compound Job, initial MDCI parallelization 
  Dimitrios Manganas     : Further ROCIS development; embedding schemes. LFT, Crystal Embedding 
  Dimitrios Pantazis     : SARC Basis sets                               
  Anastasios Papadopoulos: AUTO-CI, single reference methods and gradients 
  Taras Petrenko         : pre 6.0 DFT Hessian and TD-DFT gradient, (ASA, deprecated), ECA, 1-Electron XAS/XES, NRVS 
  Peter Pinski           : DLPNO-MP2, DLPNO-MP2 Gradient                 
  Christoph Reimann      : Effective Core Potentials                     
  Marius Retegan         : Local ZFS, SOC                                
  Christoph Riplinger    : Optimizer, TS searches, QM/MM, DLPNO-CCSD(T), (RO)-DLPNO pert. Triples 
  Michael Roemelt        : Original ROCIS implementation                 
  Masaaki Saitow         : Open-shell DLPNO-CCSD energy and density      
  Barbara Sandhoefer     : DKH picture change effects                    
  Kantharuban Sivalingam : CASSCF convergence/infrastructure, NEVPT2 and variants, FIC-MRCI 
  Bernardo de Souza      : ESD, SOC TD-DFT                               
  Georgi L. Stoychev     : AutoAux, RI-MP2 NMR, DLPNO-MP2 response, X2C  
  Van Anh Tran           : RI-MP2 g-tensors                              
  Willem Van den Heuvel  : Paramagnetic NMR                              
  Zikuan Wang            : NOTCH, Electric field optimization            
  Frank Wennmohs         : Technical directorship and infrastructure     
  Hang Xu                : AUTO-CI-Response properties                   
                                                                         
[FACCTs GmbH]                                                            
  Markus Bursch, Miquel Garcia-Rates, Christoph Riplinger, Bernardo de Souza, Georgi L. Stoychev 
                                                                 
  APM, Basis sets (HGBS, AHGBS, def-TZVP (Ac-Lr), def2-XVPD (La-Lu)), CI-OPT, improved COSX, DLPNO-Multilevel,           
  DOCKER, DRACO, updates on ESD, GOAT, IRC, LR-CPCM, MBIS, meta-GGA TD-DFT gradient, ML-optimized integration grids, 
  MM, NACMEs, nearIR, NEB, NEB-TS, NL-DFT gradient (VV10), 2- and 3-layer-ONIOM, interface openCOSMO-RS, QMMM,   
  Crystal-QMMM, SF, symmetry and pop. for TD-DFT, r2SCAN hybrids, SOLVATOR                                   
                                                                         
[Other institutions]                                                     
  V. Asgeirsson          : NEB                                           
  Christoph Bannwarth    : sTDA-DFT, sTD-DFT, PBEh-3c, B97-3c, D3        
  Sebastian Ehlert       : rSCAN, r2SCAN, r2SCAN-3c, D4, dhf basis sets  
  Marvin Friede          : D4 for Fr, Ra, Ac-Lr                          
  Lars Goerigk           : TD-DFT with DH, B97 family of functionals     
  Stefan Grimme          : VdW corrections, initial TS optimization, DFT functionals, gCP, sTDA/sTD-DF 
  Waldemar Hujo          : DFT-NL                                        
  H. Jonsson             : NEB                                           
  Holger Kruse           : gCP                                           
  Marcel Mueller         : wB97X-3c, vDZP basis set                      
  Hagen Neugebauer       : wr2SCAN                                       
  Tobias Risthaus        : range-separated hybrid DFT                    
  Lukas Wittmann         : regularized MP2, r2SCAN double-hybrids, wr2SCAN        
                                                                         
We gratefully acknowledge several colleagues who have allowed us to      
interface, adapt or use parts of their codes:                            
  Ed Valeev, F. Pavosevic, A. Kumar             : LibInt (2-el integral package), F12 methods 
  Garnet Chan, S. Sharma, J. Yang, R. Olivares  : DMRG                   
  Ulf Ekstrom                                   : XCFun DFT Library      
  Mihaly Kallay                                 : mrcc  (arbitrary order and MRCC methods)
  Frank Weinhold                                : gennbo (NPA and NBO analysis)           
  Simon Mueller                                 : openCOSMO-RS                            
  Christopher J. Cramer and Donald G. Truhlar   : smd solvation model                     
  S Lehtola, MJT Oliveira, MAL Marques          : LibXC Library                           
  Liviu Ungur et al                             : ANISO software                          


 Your calculation uses the libint2 library for the computation of 2-el integrals
 For citations please refer to: http://libint.valeyev.net

 Your ORCA version has been built with support for libXC version: 6.2.2
 For citations please refer to: https://libxc.gitlab.io

 This ORCA versions uses:
   CBLAS   interface :  Fast vector & matrix operations
   LAPACKE interface :  Fast linear algebra routines
   SCALAPACK package :  Parallel linear algebra routines
   Shared memory     :  Shared parallel matrices
   BLAS/LAPACK       :  OpenBLAS 0.3.27  USE64BITINT DYNAMIC_ARCH NO_AFFINITY SkylakeX SINGLE_THREADED
        Core in use  :  SkylakeX
   Copyright (c) 2011-2014, The OpenBLAS Project


NOTE: MaxCore=8000 MB was set to SCF,MP2,MDCI,CIPSI,MRCI and CIS
      => If you want to overwrite this, your respective input block should be placed after the MaxCore statement
Your calculation utilizes the atom-pairwise dispersion correction
with the Becke-Johnson damping scheme (D3BJ)


Your calculation utilizes the SMD solvation module
Please cite in your paper:
A.V. Marenich, C.J. Cramer, D.G. Truhlar J. Phys. Chem. B, 113, (2009), 6378 

Warning: RI is on but no J-basis has been assigned. Assigning Def2/J (nothing to worry about!)
================================================================================

----- Orbital basis set information -----
Your calculation utilizes the basis: def2-TZVP
   F. Weigend and R. Ahlrichs, Phys. Chem. Chem. Phys. 7, 3297 (2005).

----- AuxJ basis set information -----
Your calculation utilizes the auxiliary basis: def2/J
   F. Weigend, Phys. Chem. Chem. Phys. 8, 1057 (2006).

================================================================================
                                        WARNINGS
                       Please study these warnings very carefully!
================================================================================



WARNING: SCAN, rSCAN, or r2SCAN functional requested.
  ===> : libXC variant has now been activated.



WARNING: your system is open-shell and RHF/RKS was chosen
  ===> : WILL SWITCH to UHF/UKS


================================================================================
                                       INPUT FILE
================================================================================
NAME = rf_mecn_freq_r2s_P_B.inp
|  1> !r2scanh def2-TZVP freq d3 TightSCF SlowConv defgrid2
|  2>  
|  3> %pal
|  4> nprocs 20
|  5> end
|  6>  
|  7> %scf
|  8> MaxIter 1500
|  9> end
| 10>  
| 11> %maxcore 8000
| 12>  
| 13> !CPCM
| 14> %cpcm smd true
| 15> SMDsolvent "ACETONITRILE"
| 16> end
| 17>  
| 18> * xyz -1 2
| 19> 6        4.835201000      0.039013000     -0.250685000
| 20> 8        5.202158000     -0.354253000     -1.390952000
| 21> 8        5.151927000      1.350643000      0.171287000
| 22> 1        5.635632000      1.722405000     -0.578539000
| 23> 6        3.548180000     -0.393124000      0.359997000
| 24> 6        2.228250000      0.233087000     -0.185205000
| 25> 6        0.887680000     -0.459319000      0.197054000
| 26> 6       -0.377165000      0.426957000      0.005039000
| 27> 6       -1.708893000     -0.380089000     -0.039700000
| 28> 6       -2.964881000      0.495263000      0.237731000
| 29> 6       -4.296398000     -0.145895000     -0.238827000
| 30> 9        3.398934000     -1.747737000      0.189597000
| 31> 9        3.530570000     -0.137362000      1.712781000
| 32> 9        2.162356000      1.518341000      0.236924000
| 33> 9        2.290762000      0.239357000     -1.536757000
| 34> 9        0.742880000     -1.566043000     -0.559260000
| 35> 9        0.929412000     -0.828628000      1.492077000
| 36> 9       -0.445869000      1.305869000      1.020546000
| 37> 9       -0.269020000      1.107465000     -1.149692000
| 38> 9       -1.670343000     -1.354520000      0.884074000
| 39> 9       -1.832979000     -0.941877000     -1.253269000
| 40> 9       -2.839121000      1.677726000     -0.386028000
| 41> 9       -3.062836000      0.706563000      1.556950000
| 42> 9       -4.384582000     -1.402962000      0.183134000
| 43> 9       -5.310975000      0.546926000      0.266108000
| 44> 9       -4.385908000     -0.124062000     -1.561513000
| 45> *
| 46> 
| 47>                          ****END OF INPUT****
================================================================================

                       ****************************
                       * Single Point Calculation *
                       ****************************

---------------------------------
CARTESIAN COORDINATES (ANGSTROEM)
---------------------------------
  C      4.835201    0.039013   -0.250685
  O      5.202158   -0.354253   -1.390952
  O      5.151927    1.350643    0.171287
  H      5.635632    1.722405   -0.578539
  C      3.548180   -0.393124    0.359997
  C      2.228250    0.233087   -0.185205
  C      0.887680   -0.459319    0.197054
  C     -0.377165    0.426957    0.005039
  C     -1.708893   -0.380089   -0.039700
  C     -2.964881    0.495263    0.237731
  C     -4.296398   -0.145895   -0.238827
  F      3.398934   -1.747737    0.189597
  F      3.530570   -0.137362    1.712781
  F      2.162356    1.518341    0.236924
  F      2.290762    0.239357   -1.536757
  F      0.742880   -1.566043   -0.559260
  F      0.929412   -0.828628    1.492077
  F     -0.445869    1.305869    1.020546
  F     -0.269020    1.107465   -1.149692
  F     -1.670343   -1.354520    0.884074
  F     -1.832979   -0.941877   -1.253269
  F     -2.839121    1.677726   -0.386028
  F     -3.062836    0.706563    1.556950
  F     -4.384582   -1.402962    0.183134
  F     -5.310975    0.546926    0.266108
  F     -4.385908   -0.124062   -1.561513

----------------------------
CARTESIAN COORDINATES (A.U.)
----------------------------
  NO LB      ZA    FRAG     MASS         X           Y           Z
   0 C     6.0000    0    12.011    9.137206    0.073724   -0.473726
   1 O     8.0000    0    15.999    9.830654   -0.669441   -2.628518
   2 O     8.0000    0    15.999    9.735731    2.552345    0.323686
   3 H     1.0000    0     1.008   10.649801    3.254874   -1.093280
   4 C     6.0000    0    12.011    6.705088   -0.742897    0.680296
   5 C     6.0000    0    12.011    4.210782    0.440471   -0.349987
   6 C     6.0000    0    12.011    1.677472   -0.867987    0.372378
   7 C     6.0000    0    12.011   -0.712739    0.806832    0.009522
   8 C     6.0000    0    12.011   -3.229340   -0.718264   -0.075022
   9 C     6.0000    0    12.011   -5.602813    0.935911    0.449246
  10 C     6.0000    0    12.011   -8.119016   -0.275702   -0.451318
  11 F     9.0000    0    18.998    6.423054   -3.302744    0.358286
  12 F     9.0000    0    18.998    6.671810   -0.259577    3.236687
  13 F     9.0000    0    18.998    4.086261    2.869249    0.447721
  14 F     9.0000    0    18.998    4.328913    0.452319   -2.904050
  15 F     9.0000    0    18.998    1.403840   -2.959392   -1.056848
  16 F     9.0000    0    18.998    1.756334   -1.565880    2.819617
  17 F     9.0000    0    18.998   -0.842570    2.467735    1.928552
  18 F     9.0000    0    18.998   -0.508374    2.092806   -2.172603
  19 F     9.0000    0    18.998   -3.156491   -2.559672    1.670658
  20 F     9.0000    0    18.998   -3.463828   -1.779890   -2.368335
  21 F     9.0000    0    18.998   -5.365161    3.170443   -0.729487
  22 F     9.0000    0    18.998   -5.787921    1.335211    2.942209
  23 F     9.0000    0    18.998   -8.285659   -2.651214    0.346073
  24 F     9.0000    0    18.998  -10.036288    1.033540    0.502871
  25 F     9.0000    0    18.998   -8.288165   -0.234443   -2.950832

--------------------------------
INTERNAL COORDINATES (ANGSTROEM)
--------------------------------
 C      0   0   0     0.000000000000     0.00000000     0.00000000
 O      1   0   0     1.260763426617     0.00000000     0.00000000
 O      1   2   0     1.413771192506   119.61250035     0.00000000
 H      3   1   2     0.966652234232   103.73200488     0.11659845
 C      1   2   3     1.488656423200   122.14776509   145.07026887
 C      5   1   2     1.559359048528   118.15150355   285.19228586
 C      6   5   1     1.556494759650   117.67930997   165.32575256
 C      7   6   5     1.556337939660   114.60361930   162.13649447
 C      8   7   6     1.557826784409   113.78339342   162.11183862
 C      9   8   7     1.555864691999   113.17298245   161.07182955
 C     10   9   8     1.552780934201   113.90337265   161.34762518
 F      5   1   2     1.373421606167   109.23014186    45.18144402
 F      5   1   2     1.376861962362   111.11153037   163.83400384
 F      6   5   1     1.354404945499   108.25762704   287.61303324
 F      6   5   1     1.353011408580   108.18027540    44.42228458
 F      7   6   5     1.348264038967   108.65623785   283.17244972
 F      7   6   5     1.347299249549   109.34897102    41.44991030
 F      8   7   6     1.344790322098   108.69536327   283.06817177
 F      8   7   6     1.344689615283   109.19442258    41.59379903
 F      9   8   7     1.343264783778   109.36145735    40.65404441
 F      9   8   7     1.343038648030   108.76182394   282.08094172
 F     10   9   8     1.342799171153   109.69429497    40.76735519
 F     10   9   8     1.339619961775   108.86670239   281.58729986
 F     11  10   9     1.328926237933   110.48945532    48.82292632
 F     11  10   9     1.328279632154   108.84126975   168.21073320
 F     11  10   9     1.325891011579   110.93168633   287.64823474

---------------------------
INTERNAL COORDINATES (A.U.)
---------------------------
 C      0   0   0     0.000000000000     0.00000000     0.00000000
 O      1   0   0     2.382497595969     0.00000000     0.00000000
 O      1   2   0     2.671640369864   119.61250035     0.00000000
 H      3   1   2     1.826707989441   103.73200488     0.11659845
 C      1   2   3     2.813152947350   122.14776509   145.07026887
 C      5   1   2     2.946761546169   118.15150355   285.19228586
 C      6   5   1     2.941348824622   117.67930997   165.32575256
 C      7   6   5     2.941052477789   114.60361930   162.13649447
 C      8   7   6     2.943865986620   113.78339342   162.11183862
 C      9   8   7     2.940158169316   113.17298245   161.07182955
 C     10   9   8     2.934330711614   113.90337265   161.34762518
 F      5   1   2     2.595390702065   109.23014186    45.18144402
 F      5   1   2     2.601892033078   111.11153037   163.83400384
 F      6   5   1     2.559454421422   108.25762704   287.61303324
 F      6   5   1     2.556821018287   108.18027540    44.42228458
 F      7   6   5     2.547849789862   108.65623785   283.17244972
 F      7   6   5     2.546026602084   109.34897102    41.44991030
 F      8   7   6     2.541285416313   108.69536327   283.06817177
 F      8   7   6     2.541095108013   109.19442258    41.59379903
 F      9   8   7     2.538402566681   109.36145735    40.65404441
 F      9   8   7     2.537975232048   108.76182394   282.08094172
 F     10   9   8     2.537522686336   109.69429497    40.76735519
 F     10   9   8     2.531514851289   108.86670239   281.58729986
 F     11  10   9     2.511306641875   110.48945532    48.82292632
 F     11  10   9     2.510084734037   108.84126975   168.21073320
 F     11  10   9     2.505570895311   110.93168633   287.64823474

---------------------
BASIS SET INFORMATION
---------------------
There are 4 groups of distinct atoms

 Group   1 Type C   : 11s6p2d1f contracted to 5s3p2d1f pattern {62111/411/11/1}
 Group   2 Type O   : 11s6p2d1f contracted to 5s3p2d1f pattern {62111/411/11/1}
 Group   3 Type H   : 5s1p contracted to 3s1p pattern {311/1}
 Group   4 Type F   : 11s6p2d1f contracted to 5s3p2d1f pattern {62111/411/11/1}

Atom   0C    basis set group =>   1
Atom   1O    basis set group =>   2
Atom   2O    basis set group =>   2
Atom   3H    basis set group =>   3
Atom   4C    basis set group =>   1
Atom   5C    basis set group =>   1
Atom   6C    basis set group =>   1
Atom   7C    basis set group =>   1
Atom   8C    basis set group =>   1
Atom   9C    basis set group =>   1
Atom  10C    basis set group =>   1
Atom  11F    basis set group =>   4
Atom  12F    basis set group =>   4
Atom  13F    basis set group =>   4
Atom  14F    basis set group =>   4
Atom  15F    basis set group =>   4
Atom  16F    basis set group =>   4
Atom  17F    basis set group =>   4
Atom  18F    basis set group =>   4
Atom  19F    basis set group =>   4
Atom  20F    basis set group =>   4
Atom  21F    basis set group =>   4
Atom  22F    basis set group =>   4
Atom  23F    basis set group =>   4
Atom  24F    basis set group =>   4
Atom  25F    basis set group =>   4
---------------------------------
AUXILIARY/J BASIS SET INFORMATION
---------------------------------
There are 4 groups of distinct atoms

 Group   1 Type C   : 12s5p4d2f1g contracted to 6s4p3d1f1g pattern {711111/2111/211/2/1}
 Group   2 Type O   : 12s5p4d2f1g contracted to 6s4p3d1f1g pattern {711111/2111/211/2/1}
 Group   3 Type H   : 5s2p1d contracted to 3s1p1d pattern {311/2/1}
 Group   4 Type F   : 12s5p4d2f1g contracted to 6s4p3d1f1g pattern {711111/2111/211/2/1}

Atom   0C    basis set group =>   1
Atom   1O    basis set group =>   2
Atom   2O    basis set group =>   2
Atom   3H    basis set group =>   3
Atom   4C    basis set group =>   1
Atom   5C    basis set group =>   1
Atom   6C    basis set group =>   1
Atom   7C    basis set group =>   1
Atom   8C    basis set group =>   1
Atom   9C    basis set group =>   1
Atom  10C    basis set group =>   1
Atom  11F    basis set group =>   4
Atom  12F    basis set group =>   4
Atom  13F    basis set group =>   4
Atom  14F    basis set group =>   4
Atom  15F    basis set group =>   4
Atom  16F    basis set group =>   4
Atom  17F    basis set group =>   4
Atom  18F    basis set group =>   4
Atom  19F    basis set group =>   4
Atom  20F    basis set group =>   4
Atom  21F    basis set group =>   4
Atom  22F    basis set group =>   4
Atom  23F    basis set group =>   4
Atom  24F    basis set group =>   4
Atom  25F    basis set group =>   4


           ************************************************************
           *        Program running with 20 parallel MPI-processes    *
           *              working on a common directory               *
           ************************************************************
------------------------------------------------------------------------------
                             ORCA STARTUP CALCULATIONS
                           -- RI-GTO INTEGRALS CHOSEN --
------------------------------------------------------------------------------
------------------------------------------------------------------------------
                   ___                                                        
                  /   \      - P O W E R E D   B Y -                         
                 /     \                                                     
                 |  |  |   _    _      __       _____    __    __             
                 |  |  |  | |  | |    /  \     |  _  \  |  |  /  |          
                  \  \/   | |  | |   /    \    | | | |  |  | /  /          
                 / \  \   | |__| |  /  /\  \   | |_| |  |  |/  /          
                |  |  |   |  __  | /  /__\  \  |    /   |      \           
                |  |  |   | |  | | |   __   |  |    \   |  |\   \          
                \     /   | |  | | |  |  |  |  | |\  \  |  | \   \       
                 \___/    |_|  |_| |__|  |__|  |_| \__\ |__|  \__/        
                                                                              
                      - O R C A' S   B I G   F R I E N D -                    
                                      &                                       
                       - I N T E G R A L  F E E D E R -                       
                                                                              
 v1 FN, 2020, v2 2021, v3 2022-2024                                           
------------------------------------------------------------------------------


----------------------
SHARK INTEGRAL PACKAGE
----------------------

Number of atoms                             ...     26
Number of basis functions                   ...    781
Number of shells                            ...    279
Maximum angular momentum                    ...      3
Integral batch strategy                     ... SHARK/LIBINT Hybrid
RI-J (if used) integral strategy            ... SPLIT-RIJ (Revised 2003 algorithm where possible)
Printlevel                                  ...      1
Contraction scheme used                     ... SEGMENTED contraction
Prescreening option                         ... SCHWARTZ
   Thresh                                   ... 2.500e-11
   Tcut                                     ... 2.500e-12
   Tpresel                                  ... 2.500e-12 
Coulomb Range Separation                    ... NOT USED
Exchange Range Separation                   ... NOT USED
Multipole approximations                    ... NOT USED
Finite Nucleus Model                        ... NOT USED
CABS basis                                  ... NOT available
Auxiliary Coulomb fitting basis             ... AVAILABLE
   # of basis functions in Aux-J            ...   1236
   # of shells in Aux-J                     ...    380
   Maximum angular momentum in Aux-J        ...      4
Auxiliary J/K fitting basis                 ... NOT available
Auxiliary Correlation fitting basis         ... NOT available
Auxiliary 'external' fitting basis          ... NOT available

Checking pre-screening integrals            ... done (  0.0 sec) Dimension = 279
Check shell pair data                       ... done (  0.0 sec)
Shell pair information
Shell pair cut-off parameter TPreSel        ...   2.5e-12
Total number of shell pairs                 ...     39060
Shell pairs after pre-screening             ...     24024
Total number of primitive shell pairs       ...    128824
Primitive shell pairs kept                  ...     50790
          la=0 lb=0:   4575 shell pairs
          la=1 lb=0:   6574 shell pairs
          la=1 lb=1:   2278 shell pairs
          la=2 lb=0:   3565 shell pairs
          la=2 lb=1:   2604 shell pairs
          la=2 lb=2:    729 shell pairs
          la=3 lb=0:   1617 shell pairs
          la=3 lb=1:   1250 shell pairs
          la=3 lb=2:    674 shell pairs
          la=3 lb=3:    158 shell pairs

Calculating one electron integrals          ... done (  0.0 sec)
Calculating RI/J V-Matrix + Cholesky decomp.... done (  0.1 sec)
Calculating Nuclear repulsion               ... done (  0.0 sec) ENN=   2909.086817342857 Eh

Diagonalization of the overlap matrix:
Smallest eigenvalue                        ... 5.483e-05
Time for diagonalization                   ...    0.126 sec
Threshold for overlap eigenvalues          ... 1.000e-07
Number of eigenvalues below threshold      ... 0
Time for construction of square roots      ...    0.062 sec
Total time needed                          ...    0.195 sec

-------------------
DFT GRID GENERATION
-------------------

General Integration Accuracy     IntAcc      ... 4.388
Radial Grid Type                 RadialGrid  ... OptM3 with GC (2021)
Angular Grid (max. ang.)         AngularGrid ... 4 (Lebedev-302)
Angular grid pruning method      GridPruning ... 4 (adaptive)
Weight generation scheme         WeightScheme... mBecke (2022)
Basis function cutoff            BFCut       ... 1.0000e-11
Integration weight cutoff        WCut        ... 1.0000e-14
Partially contracted basis set               ... off
Rotationally invariant grid construction     ... off
Angular grids for H and He will be reduced by one unit

Total number of grid points                  ...   154676
Total number of batches                      ...     2428
Average number of points per batch           ...       63
Average number of grid points per atom       ...     5949

--------------------
COSX GRID GENERATION
--------------------

GRIDX 1
-------
General Integration Accuracy     IntAcc      ... 3.816
Radial Grid Type                 RadialGrid  ... OptM3 with GC (2021)
Angular Grid (max. ang.)         AngularGrid ... 1 (Lebedev-50)
Angular grid pruning method      GridPruning ... 4 (adaptive)
Weight generation scheme         WeightScheme... mBecke (2022)
Basis function cutoff            BFCut       ... 1.0000e-11
Integration weight cutoff        WCut        ... 1.0000e-14
Partially contracted basis set               ... on
Rotationally invariant grid construction     ... off
Angular grids for H and He will be reduced by one unit

Total number of grid points                  ...    19420
Total number of batches                      ...      163
Average number of points per batch           ...      119
Average number of grid points per atom       ...      747
UseSFitting                                  ... on

GRIDX 2
-------
General Integration Accuracy     IntAcc      ... 4.020
Radial Grid Type                 RadialGrid  ... OptM3 with GC (2021)
Angular Grid (max. ang.)         AngularGrid ... 2 (Lebedev-110)
Angular grid pruning method      GridPruning ... 4 (adaptive)
Weight generation scheme         WeightScheme... mBecke (2022)
Basis function cutoff            BFCut       ... 1.0000e-11
Integration weight cutoff        WCut        ... 1.0000e-14
Partially contracted basis set               ... on
Rotationally invariant grid construction     ... off
Angular grids for H and He will be reduced by one unit

Total number of grid points                  ...    45784
Total number of batches                      ...      373
Average number of points per batch           ...      122
Average number of grid points per atom       ...     1761
UseSFitting                                  ... on

GRIDX 3
-------
General Integration Accuracy     IntAcc      ... 4.338
Radial Grid Type                 RadialGrid  ... OptM3 with GC (2021)
Angular Grid (max. ang.)         AngularGrid ... 3 (Lebedev-194)
Angular grid pruning method      GridPruning ... 4 (adaptive)
Weight generation scheme         WeightScheme... mBecke (2022)
Basis function cutoff            BFCut       ... 1.0000e-11
Integration weight cutoff        WCut        ... 1.0000e-14
Partially contracted basis set               ... on
Rotationally invariant grid construction     ... off
Angular grids for H and He will be reduced by one unit

Total number of grid points                  ...   101356
Total number of batches                      ...      805
Average number of points per batch           ...      125
Average number of grid points per atom       ...     3898
UseSFitting                                  ... on
Initializing property integral containers    ... done (  0.1 sec)

SHARK setup successfully completed in   3.8 seconds

Maximum memory used throughout the entire STARTUP-calculation: 61.1 MB


           ************************************************************
           *        Program running with 20 parallel MPI-processes    *
           *              working on a common directory               *
           ************************************************************
-------------------------------------------------------------------------------
                                 ORCA GUESS
                   Start orbitals & Density for SCF / CASSCF
-------------------------------------------------------------------------------

------------
SCF SETTINGS
------------
Hamiltonian:
 Density Functional     Method          .... DFT(GTOs)
  Functional kind                       .... Exchange
  Functional name                       .... Re-regularized SCAN exchange by Furness et al
  Functional family                     .... MGGA
  Functional refs                              
    [ 0] J. W. Furness, A. D. Kaplan, J. Ning, J. P. Perdew, and J. Sun.,  J. Phys. Chem. Lett. 11, 8208-8215 (2020), doi: 10.1021/acs.jpclett.0c02405
    [ 1] J. W. Furness, A. D. Kaplan, J. Ning, J. P. Perdew, and J. Sun.,  J. Phys. Chem. Lett. 11, 9248-9248 (2020), doi: 10.1021/acs.jpclett.0c03077
  Functional external parameters        .... 6
    Parameter  0 _c1        =  6.670000e-01 : c1 parameter        
    Parameter  1 _c2        =  8.000000e-01 : c2 parameter        
    Parameter  2 _d         =  1.240000e+00 : d parameter         
    Parameter  3 _k1        =  6.500000e-02 : k1 parameter        
    Parameter  4 _eta       =  1.000000e-03 : eta parameter       
    Parameter  5 _dp2       =  3.610000e-01 : dp2 parameter       
  Functional kind                       .... Correlation
  Functional name                       .... Re-regularized SCAN correlation by Furness et al
  Functional family                     .... MGGA
  Functional refs                              
    [ 0] J. W. Furness, A. D. Kaplan, J. Ning, J. P. Perdew, and J. Sun.,  J. Phys. Chem. Lett. 11, 8208-8215 (2020), doi: 10.1021/acs.jpclett.0c02405
    [ 1] J. W. Furness, A. D. Kaplan, J. Ning, J. P. Perdew, and J. Sun.,  J. Phys. Chem. Lett. 11, 9248-9248 (2020), doi: 10.1021/acs.jpclett.0c03077
  Functional external parameters        .... 1
    Parameter  0 _eta       =  1.000000e-03 : Regularization parameter
 Gradients option       PostSCFGGA      .... off
 Hybrid DFT is turned on
   Fraction HF Exchange ScalHFX         ....  0.100000
   Scaling of DF-GGA-X  ScalDFX         ....  0.900000
   Scaling of DF-GGA-C  ScalDFC         ....  1.000000
   Scaling of DF-LDA-C  ScalLDAC        ....  1.000000
   Perturbative correction              ....  0.000000
   NL short-range parameter             .... 11.900000
 RI-approximation to the Coulomb term is turned on
   Number of AuxJ basis functions       .... 1236
   RIJ-COSX (HFX calculated with COS-X)).... on


General Settings:
 Integral files         IntName         .... rf_mecn_freq_r2s_P_B
 Hartree-Fock type      HFTyp           .... UHF
 Total Charge           Charge          ....   -1
 Multiplicity           Mult            ....    2
 Number of Electrons    NEL             ....  201
 Basis Dimension        Dim             ....  781
 Nuclear Repulsion      ENuc            ....   2909.0868173429 Eh

Convergence Acceleration:
 AO-DIIS                CNVDIIS         .... on
   Start iteration      DIISMaxIt       ....     0
   Startup error        DIISStart       ....  0.200000
   # of expansion vecs  DIISMaxEq       ....     5
   Bias factor          DIISBfac        ....   1.050
   Max. coefficient     DIISMaxC        ....  10.000
 MO-DIIS                CNVKDIIS        .... off
 Trust-Rad. Augm. Hess. CNVTRAH         .... auto
   Auto Start mean grad. ratio tolernc. ....  1.125000
   Auto Start start iteration           ....    50
   Auto Start num. interpolation iter.  ....    10
   Max. Number of Micro iterations      ....    24
   Max. Number of Macro iterations      .... Maxiter - #DIIS iter
   Number of Davidson start vectors     ....     2
   Converg. threshold    (grad. norm)   ....   1.000e-05
   Grad. Scal. Fac. for Micro threshold ....   0.100
   Minimum threshold for Micro iter.    ....   1.000e-02
   NR start threshold (gradient norm)   ....   1.000e-04
   Initial trust radius                 ....   0.400
   Minimum AH scaling param. (alpha)    ....   1.000
   Maximum AH scaling param. (alpha)    .... 1000.000
   Quad. conv. algorithm                .... NR
   White noise on init. David. guess    .... on
   Maximum white noise                  ....   0.010
   Pseudo random numbers                .... off
   Inactive MOs                         .... canonical
   Orbital update algorithm             .... Taylor
   Preconditioner                       .... Diag
   Full preconditioner red. dimension   ....   250
 SOSCF                  CNVSOSCF        .... on
   Start iteration      SOSCFMaxIt      ....   150
   Startup grad/error   SOSCFStart      ....  0.001000
   Hessian update       SOSCFHessUp     .... L-BFGS
 Level Shifting         CNVShift        .... on
   Level shift para.    LevelShift      ....    0.2500
   Turn off err/grad.   ShiftErr        ....    0.0000
 Zerner damping         CNVZerner       .... off
 Static damping         CNVDamp         .... on
   Fraction old density DampFac         ....    0.8500
   Max. Damping (<1)    DampMax         ....    0.9800
   Min. Damping (>=0)   DampMin         ....    0.0000
   Turn off err/grad.   DampErr         ....    0.0300

SCF Procedure:
 Maximum # iterations   MaxIter         ....  1500
 SCF integral mode      SCFMode         .... Direct
   Integral package                     .... SHARK and LIBINT hybrid scheme
 Reset frequency        DirectResetFreq ....    20
 Integral Threshold     Thresh          ....  2.500e-11 Eh
 Primitive CutOff       TCut            ....  2.500e-12 Eh

Convergence Tolerance:
 Convergence Check Mode ConvCheckMode   .... Total+1el-Energy
 Convergence forced     ConvForced      .... 0
 Energy Change          TolE            ....  1.000e-08 Eh
 1-El. energy change                    ....  1.000e-05 Eh
 Orbital Gradient       TolG            ....  1.000e-05
 Orbital Rotation angle TolX            ....  1.000e-05
 DIIS Error             TolErr          ....  5.000e-07

------------------------------
INITIAL GUESS: MODEL POTENTIAL
------------------------------
Loading Hartree-Fock densities                     ... done
Calculating cut-offs                               ... done
Initializing the effective Hamiltonian             ... done
Setting up the integral package (SHARK)            ... done
Starting the Coulomb interaction                   ... done (   0.2 sec)
Making the grid                                    ... done (   0.5 sec)
Mapping shells                                     ... done
Starting the XC term evaluation                    ... done (   0.2 sec)
  promolecular density results
     # of electrons  =    199.999478749
     EX              =   -207.566312330
     EC              =     -7.040431304
     EX+EC           =   -214.606743633
Transforming the Hamiltonian                       ... done (   0.1 sec)
Diagonalizing the Hamiltonian                      ... done (   0.1 sec)
Back transforming the eigenvectors                 ... done (   0.0 sec)
Now organizing SCF variables                       ... done
                      ------------------
                      INITIAL GUESS DONE (   1.3 sec)
                      ------------------
             **** ENERGY FILE WAS UPDATED (rf_mecn_freq_r2s_P_B.en.tmp) ****
Finished Guess after   2.0 sec
Maximum memory used throughout the entire GUESS-calculation: 49.6 MB


           ************************************************************
           *        Program running with 20 parallel MPI-processes    *
           *              working on a common directory               *
           ************************************************************

-------------------------------------------------------------------------------------------
                                      ORCA LEAN-SCF
                              memory conserving SCF solver
-------------------------------------------------------------------------------------------

--------------------
CPCM SOLVATION MODEL
--------------------
CPCM parameters:
  Epsilon                                         ...      35.6880
  Refrac                                          ...       1.3442
  Rsolv                                           ...       1.3000
  Surface type                                    ... GAUSSIAN VDW
  Discretization scheme                           ... Constant charge density
    Threshold for H atoms                         ...       5.0000 (charges/Ang^2)
    Threshold for non-H atoms                     ...       5.0000 (charges/Ang^2)
  Epsilon function type                           ...         CPCM
Solvent:                                          ... ACETONITRILE
SMD-CDS solvent descriptors:
  Soln                                            ...       1.3442
  Soln25                                          ...       1.3416
  Sola                                            ...       0.0700
  Solb                                            ...       0.3200
  Solg                                            ...      41.2500
  Solc                                            ...       0.0000
  Solh                                            ...       0.0000
Radii:
  Scheme                                          ... Element-dependent radii
  Radius for C  used is    3.4960 Bohr (=   1.8500 Ang.)
  Radius for O  used is    4.0969 Bohr (=   2.1680 Ang.)
  Radius for H  used is    2.2677 Bohr (=   1.2000 Ang.)
  Radius for F  used is    3.2692 Bohr (=   1.7300 Ang.)
Calculating surface                               ...        done! (  0.0s)
Cavity surface points                             ...         2157
Cavity Volume                                     ...    2161.2428
Cavity Surface-area                               ...    1108.7182
Calculating surface distance matrix               ...        done! (  0.0s)
Performing Cholesky decomposition & store         ...        done! (  0.1s)
Overall time for CPCM initialization              ...                 0.1s

----------------------------------------D-I-I-S--------------------------------------------
Iteration    Energy (Eh)           Delta-E    RMSDP     MaxDP     DIISErr   Damp  Time(sec)
-------------------------------------------------------------------------------------------
               ***  Starting incremental Fock matrix formation  ***
    1    -1953.0960796557965296     0.00e+00  5.81e-04  1.49e-01  1.69e-01  0.850   8.1
Warning: op=0 Small HOMO/LUMO gap (  -0.023) - skipping pre-diagonalization
         Will do a full diagonalization
    2    -1953.2306525832527768    -1.35e-01  9.40e-04  2.54e-01  1.16e-01  0.850   5.6
                               ***Turning on AO-DIIS***
    3    -1953.3057684765817612    -7.51e-02  6.09e-04  1.71e-01  6.67e-02  0.850   5.0
    4    -1953.3504519505750068    -4.47e-02  3.34e-04  9.62e-02  5.04e-02  0.850   5.0
    5    -1953.3822180946863227    -3.18e-02  1.74e-04  5.06e-02  4.32e-02  0.850   4.8
    6    -1953.4074137632915154    -2.52e-02  1.02e-04  2.81e-02  3.83e-02  0.850   4.7
    7    -1953.4284261383027115    -2.10e-02  8.08e-05  2.09e-02  3.33e-02  0.850   4.4
    8    -1953.4462850629606692    -1.79e-02  7.98e-05  2.21e-02  2.79e-02  0.850   4.3
    9    -1953.4612643039381510    -1.50e-02  5.15e-04  1.51e-01  2.32e-02  0.000   4.5
   10    -1953.5404498202315153    -7.92e-02  6.42e-05  1.12e-02  3.28e-03  0.000   4.8
   11    -1953.5406118898845307    -1.62e-04  4.53e-05  7.68e-03  1.75e-03  0.000   4.6
   12    -1953.5406710652787297    -5.92e-05  3.27e-05  5.94e-03  1.26e-03  0.000   4.5
                              *** Initializing SOSCF ***
---------------------------------------S-O-S-C-F--------------------------------------
Iteration    Energy (Eh)           Delta-E    RMSDP     MaxDP     MaxGrad    Time(sec)
--------------------------------------------------------------------------------------
   13    -1953.5407008936326747    -2.98e-05  2.97e-05  6.95e-03  2.66e-04     4.8
               *** Restarting incremental Fock matrix formation ***
   14    -1953.5407042208335042    -3.33e-06  6.38e-05  1.02e-02  1.19e-03     8.3
   15    -1953.5407212859499850    -1.71e-05  4.79e-05  1.40e-02  1.37e-04     6.0
   16    -1953.5407221539517195    -8.68e-07  1.33e-05  3.21e-03  1.61e-04     5.9
   17    -1953.5407249798900011    -2.83e-06  5.23e-06  1.63e-03  5.53e-05     5.4
   18    -1953.5407248859155516     9.40e-08  3.41e-06  1.17e-03  7.45e-05     5.1
   19    -1953.5407251287106192    -2.43e-07  1.76e-06  5.36e-04  1.26e-05     4.5
   20    -1953.5407251686256132    -3.99e-08  7.97e-07  2.35e-04  1.14e-05     4.2
   21    -1953.5407251484684821     2.02e-08  4.05e-07  1.06e-04  9.79e-07     4.0
                  *** Gradient check signals convergence ***

               *****************************************************
               *                     SUCCESS                       *
               *           SCF CONVERGED AFTER  21 CYCLES          *
               *****************************************************

Recomputing exchange energy using gridx3       ... done (    9.512 sec)
Old exchange energy                            :    -20.959367510 Eh
New exchange energy                            :    -20.959379211 Eh
Exchange energy change after final integration :     -0.000011701 Eh
Total energy after final integration           :  -1953.540736850 Eh

SMD CDS free energy correction energy :                 3.51520     Kcal/mol
Total Energy after SMD CDS correction =             -1953.535135018 Eh
             **** ENERGY FILE WAS UPDATED (rf_mecn_freq_r2s_P_B.en.tmp) ****

----------------
TOTAL SCF ENERGY
----------------

Total Energy       :      -1953.53513501790007 Eh          -53158.39354 eV

Components:
Nuclear Repulsion  :       2909.08681734285710 Eh           79160.27673 eV
Electronic Energy  :      -4862.54637752967210 Eh         -132316.61378 eV
One Electron Energy:      -8534.85897403005947 Eh         -232245.31981 eV
Two Electron Energy:       3672.31259650038692 Eh           99928.70603 eV
CPCM Dielectric    :         -0.08116496165334 Eh              -2.20861 eV
SMD CDS (Gcds)     :          0.00560183181880 Eh               0.15243 eV

Virial components:
Potential Energy   :      -3900.62081899514851 Eh         -106141.28860 eV
Kinetic Energy     :       1947.08568397724821 Eh           52982.89506 eV
Virial Ratio       :          2.00331236118355

DFT components:
N(Alpha)           :      101.000016534878 electrons
N(Beta)            :       99.999975695776 electrons
N(Total)           :      200.999992230654 electrons
E(X)               :     -189.641853497426 Eh       
E(C)               :       -7.006281281217 Eh       
E(XC)              :     -196.648134778643 Eh       

CPCM Solvation Model Properties:
Surface-charge          :          0.98893528744511
Corrected charge        :          1.00000000000000
Outlying charge corr.   :          0.00000668688557 Eh               0.00018 eV
Free-energy (cav+disp)  :          0.00560183181880 Eh               0.15243 eV

---------------
SCF CONVERGENCE
---------------

  Last Energy change         ...   -2.0157e-08  Tolerance :   1.0000e-08
  Last MAX-Density change    ...    1.0646e-04  Tolerance :   1.0000e-07
  Last RMS-Density change    ...    4.0516e-07  Tolerance :   5.0000e-09
  Last DIIS Error            ...    2.6554e-04  Tolerance :   5.0000e-07
  Last Orbital Gradient      ...    9.7937e-07  Tolerance :   1.0000e-05
  Last Orbital Rotation      ...    9.2853e-06  Tolerance :   1.0000e-05


----------------------
UHF SPIN CONTAMINATION
----------------------

Warning: in a DFT calculation there is little theoretical justification to 
         calculate <S**2> as in Hartree-Fock theory. We will do it anyways
         but you should keep in mind that the values have only limited relevance

Expectation value of <S**2>     :     0.755446
Ideal value S*(S+1) for S=0.5   :     0.750000
Deviation                       :     0.005446

----------------
ORBITAL ENERGIES
----------------
                 SPIN UP ORBITALS
  NO   OCC          E(Eh)            E(eV) 
   0   1.0000     -24.731370      -672.9748 
   1   1.0000     -24.730239      -672.9440 
   2   1.0000     -24.729795      -672.9319 
   3   1.0000     -24.729521      -672.9245 
   4   1.0000     -24.728649      -672.9007 
   5   1.0000     -24.728543      -672.8979 
   6   1.0000     -24.727850      -672.8790 
   7   1.0000     -24.723961      -672.7732 
   8   1.0000     -24.722803      -672.7417 
   9   1.0000     -24.715563      -672.5447 
  10   1.0000     -24.713571      -672.4904 
  11   1.0000     -24.700986      -672.1480 
  12   1.0000     -24.698337      -672.0759 
  13   1.0000     -24.676040      -671.4692 
  14   1.0000     -24.672571      -671.3748 
  15   1.0000     -19.102165      -519.7963 
  16   1.0000     -19.038056      -518.0518 
  17   1.0000     -10.438739      -284.0525 
  18   1.0000     -10.382983      -282.5353 
  19   1.0000     -10.382657      -282.5265 
  20   1.0000     -10.376766      -282.3662 
  21   1.0000     -10.365793      -282.0676 
  22   1.0000     -10.345750      -281.5222 
  23   1.0000     -10.316526      -280.7269 
  24   1.0000     -10.206684      -277.7380 
  25   1.0000      -1.360445       -37.0196 
  26   1.0000      -1.332984       -36.2724 
  27   1.0000      -1.316913       -35.8350 
  28   1.0000      -1.310659       -35.6648 
  29   1.0000      -1.302147       -35.4332 
  30   1.0000      -1.285831       -34.9892 
  31   1.0000      -1.271471       -34.5985 
  32   1.0000      -1.265623       -34.4394 
  33   1.0000      -1.263046       -34.3692 
  34   1.0000      -1.256135       -34.1812 
  35   1.0000      -1.253363       -34.1057 
  36   1.0000      -1.251706       -34.0606 
  37   1.0000      -1.243477       -33.8367 
  38   1.0000      -1.227581       -33.4042 
  39   1.0000      -1.198850       -32.6224 
  40   1.0000      -1.034017       -28.1370 
  41   1.0000      -0.944741       -25.7077 
  42   1.0000      -0.841203       -22.8903 
  43   1.0000      -0.815934       -22.2027 
  44   1.0000      -0.785300       -21.3691 
  45   1.0000      -0.750791       -20.4301 
  46   1.0000      -0.711682       -19.3658 
  47   1.0000      -0.681614       -18.5477 
  48   1.0000      -0.660965       -17.9858 
  49   1.0000      -0.638288       -17.3687 
  50   1.0000      -0.634234       -17.2584 
  51   1.0000      -0.627177       -17.0664 
  52   1.0000      -0.616588       -16.7782 
  53   1.0000      -0.611428       -16.6378 
  54   1.0000      -0.609954       -16.5977 
  55   1.0000      -0.600515       -16.3409 
  56   1.0000      -0.595161       -16.1952 
  57   1.0000      -0.587345       -15.9825 
  58   1.0000      -0.580588       -15.7986 
  59   1.0000      -0.573199       -15.5975 
  60   1.0000      -0.569152       -15.4874 
  61   1.0000      -0.559601       -15.2275 
  62   1.0000      -0.555193       -15.1076 
  63   1.0000      -0.530619       -14.4389 
  64   1.0000      -0.501712       -13.6523 
  65   1.0000      -0.496950       -13.5227 
  66   1.0000      -0.491595       -13.3770 
  67   1.0000      -0.488312       -13.2876 
  68   1.0000      -0.485796       -13.2192 
  69   1.0000      -0.484550       -13.1853 
  70   1.0000      -0.476823       -12.9750 
  71   1.0000      -0.472404       -12.8548 
  72   1.0000      -0.468515       -12.7490 
  73   1.0000      -0.463882       -12.6229 
  74   1.0000      -0.461496       -12.5579 
  75   1.0000      -0.457021       -12.4362 
  76   1.0000      -0.449404       -12.2289 
  77   1.0000      -0.447771       -12.1845 
  78   1.0000      -0.444870       -12.1055 
  79   1.0000      -0.437018       -11.8919 
  80   1.0000      -0.436011       -11.8645 
  81   1.0000      -0.434046       -11.8110 
  82   1.0000      -0.430525       -11.7152 
  83   1.0000      -0.429699       -11.6927 
  84   1.0000      -0.426145       -11.5960 
  85   1.0000      -0.425322       -11.5736 
  86   1.0000      -0.422828       -11.5057 
  87   1.0000      -0.415502       -11.3064 
  88   1.0000      -0.411582       -11.1997 
  89   1.0000      -0.405839       -11.0434 
  90   1.0000      -0.402903       -10.9636 
  91   1.0000      -0.395916       -10.7734 
  92   1.0000      -0.388120       -10.5613 
  93   1.0000      -0.379755       -10.3337 
  94   1.0000      -0.376562       -10.2468 
  95   1.0000      -0.353249        -9.6124 
  96   1.0000      -0.336336        -9.1522 
  97   1.0000      -0.313234        -8.5235 
  98   1.0000      -0.272676        -7.4199 
  99   1.0000      -0.223697        -6.0871 
 100   1.0000      -0.094267        -2.5651 
 101   0.0000      -0.007727        -0.2103 
 102   0.0000       0.006013         0.1636 
 103   0.0000       0.040163         1.0929 
 104   0.0000       0.053582         1.4580 
 105   0.0000       0.084707         2.3050 
 106   0.0000       0.090688         2.4678 
 107   0.0000       0.106151         2.8885 
 108   0.0000       0.115100         3.1320 
 109   0.0000       0.134214         3.6522 
 110   0.0000       0.138474         3.7681 
 111   0.0000       0.146617         3.9896 

                 SPIN DOWN ORBITALS
  NO   OCC          E(Eh)            E(eV) 
   0   1.0000     -24.731369      -672.9748 
   1   1.0000     -24.730238      -672.9440 
   2   1.0000     -24.729780      -672.9315 
   3   1.0000     -24.729498      -672.9239 
   4   1.0000     -24.728644      -672.9006 
   5   1.0000     -24.728531      -672.8975 
   6   1.0000     -24.727819      -672.8782 
   7   1.0000     -24.723940      -672.7726 
   8   1.0000     -24.722747      -672.7401 
   9   1.0000     -24.715527      -672.5437 
  10   1.0000     -24.713493      -672.4883 
  11   1.0000     -24.700932      -672.1465 
  12   1.0000     -24.698240      -672.0733 
  13   1.0000     -24.675599      -671.4572 
  14   1.0000     -24.671975      -671.3586 
  15   1.0000     -19.099551      -519.7252 
  16   1.0000     -19.029336      -517.8146 
  17   1.0000     -10.438711      -284.0518 
  18   1.0000     -10.382922      -282.5337 
  19   1.0000     -10.382520      -282.5227 
  20   1.0000     -10.376492      -282.3587 
  21   1.0000     -10.365137      -282.0497 
  22   1.0000     -10.344474      -281.4874 
  23   1.0000     -10.315630      -280.7026 
  24   1.0000     -10.197583      -277.4903 
  25   1.0000      -1.360417       -37.0188 
  26   1.0000      -1.332840       -36.2684 
  27   1.0000      -1.316767       -35.8310 
  28   1.0000      -1.310568       -35.6624 
  29   1.0000      -1.301924       -35.4272 
  30   1.0000      -1.285494       -34.9801 
  31   1.0000      -1.271452       -34.5980 
  32   1.0000      -1.265594       -34.4386 
  33   1.0000      -1.262998       -34.3679 
  34   1.0000      -1.256059       -34.1791 
  35   1.0000      -1.252585       -34.0846 
  36   1.0000      -1.251182       -34.0464 
  37   1.0000      -1.243331       -33.8328 
  38   1.0000      -1.227406       -33.3994 
  39   1.0000      -1.197812       -32.5941 
  40   1.0000      -1.026143       -27.9228 
  41   1.0000      -0.932737       -25.3811 
  42   1.0000      -0.840273       -22.8650 
  43   1.0000      -0.813797       -22.1446 
  44   1.0000      -0.781990       -21.2790 
  45   1.0000      -0.746756       -20.3203 
  46   1.0000      -0.708304       -19.2739 
  47   1.0000      -0.679894       -18.5009 
  48   1.0000      -0.658700       -17.9241 
  49   1.0000      -0.638156       -17.3651 
  50   1.0000      -0.633845       -17.2478 
  51   1.0000      -0.627119       -17.0648 
  52   1.0000      -0.615172       -16.7397 
  53   1.0000      -0.610379       -16.6093 
  54   1.0000      -0.608732       -16.5645 
  55   1.0000      -0.596919       -16.2430 
  56   1.0000      -0.594914       -16.1884 
  57   1.0000      -0.585510       -15.9325 
  58   1.0000      -0.580318       -15.7913 
  59   1.0000      -0.570053       -15.5119 
  60   1.0000      -0.568556       -15.4712 
  61   1.0000      -0.558226       -15.1901 
  62   1.0000      -0.552576       -15.0364 
  63   1.0000      -0.529361       -14.4046 
  64   1.0000      -0.501645       -13.6505 
  65   1.0000      -0.496899       -13.5213 
  66   1.0000      -0.491502       -13.3744 
  67   1.0000      -0.487294       -13.2599 
  68   1.0000      -0.484539       -13.1850 
  69   1.0000      -0.484144       -13.1742 
  70   1.0000      -0.476289       -12.9605 
  71   1.0000      -0.471898       -12.8410 
  72   1.0000      -0.468431       -12.7467 
  73   1.0000      -0.463771       -12.6199 
  74   1.0000      -0.461154       -12.5486 
  75   1.0000      -0.456730       -12.4283 
  76   1.0000      -0.449106       -12.2208 
  77   1.0000      -0.447657       -12.1814 
  78   1.0000      -0.443936       -12.0801 
  79   1.0000      -0.436871       -11.8879 
  80   1.0000      -0.435842       -11.8599 
  81   1.0000      -0.433541       -11.7973 
  82   1.0000      -0.430358       -11.7106 
  83   1.0000      -0.426076       -11.5941 
  84   1.0000      -0.425517       -11.5789 
  85   1.0000      -0.422908       -11.5079 
  86   1.0000      -0.422160       -11.4876 
  87   1.0000      -0.414713       -11.2849 
  88   1.0000      -0.411071       -11.1858 
  89   1.0000      -0.404574       -11.0090 
  90   1.0000      -0.401202       -10.9173 
  91   1.0000      -0.391399       -10.6505 
  92   1.0000      -0.386445       -10.5157 
  93   1.0000      -0.377945       -10.2844 
  94   1.0000      -0.357774        -9.7355 
  95   1.0000      -0.346842        -9.4381 
  96   1.0000      -0.324583        -8.8323 
  97   1.0000      -0.308563        -8.3964 
  98   1.0000      -0.242831        -6.6078 
  99   1.0000      -0.217021        -5.9054 
 100   0.0000      -0.019401        -0.5279 
 101   0.0000       0.003682         0.1002 
 102   0.0000       0.016173         0.4401 
 103   0.0000       0.045745         1.2448 
 104   0.0000       0.058148         1.5823 
 105   0.0000       0.088711         2.4140 
 106   0.0000       0.095637         2.6024 
 107   0.0000       0.110649         3.0109 
 108   0.0000       0.116316         3.1651 
 109   0.0000       0.136105         3.7036 
 110   0.0000       0.139765         3.8032 
*Only the first 10 virtual orbitals were printed.

                    ********************************
                    * MULLIKEN POPULATION ANALYSIS *
                    ********************************

--------------------------------------------
MULLIKEN ATOMIC CHARGES AND SPIN POPULATIONS
--------------------------------------------
   0 C :   -0.035138    0.563468
   1 O :   -0.578066    0.248725
   2 O :   -0.496239    0.036517
   3 H :    0.320754    0.010628
   4 C :    0.473411   -0.005024
   5 C :    0.247173    0.091650
   6 C :    0.319910    0.020856
   7 C :    0.322512    0.014407
   8 C :    0.298543    0.005329
   9 C :    0.328584    0.002538
  10 C :    0.471035    0.001013
  11 F :   -0.223152    0.001020
  12 F :   -0.227107    0.002962
  13 F :   -0.197537    0.000772
  14 F :   -0.195289    0.002156
  15 F :   -0.180898    0.000248
  16 F :   -0.178762    0.000696
  17 F :   -0.171628    0.000219
  18 F :   -0.171198    0.000870
  19 F :   -0.167179    0.000345
  20 F :   -0.167177    0.000130
  21 F :   -0.164705    0.000146
  22 F :   -0.161550    0.000064
  23 F :   -0.156824   -0.000010
  24 F :   -0.154575    0.000277
  25 F :   -0.154897    0.000000
Sum of atomic charges         :   -1.0000000
Sum of atomic spin populations:    1.0000000

-----------------------------------------------------
MULLIKEN REDUCED ORBITAL CHARGES AND SPIN POPULATIONS
-----------------------------------------------------
CHARGE
  0 C s       :     3.215211  s :     3.215211
      pz      :     0.865886  p :     2.605305
      px      :     0.927592
      py      :     0.811827
      dz2     :     0.039758  d :     0.193887
      dxz     :     0.038824
      dyz     :     0.053157
      dx2y2   :     0.035345
      dxy     :     0.026804
      f0      :     0.003874  f :     0.020735
      f+1     :     0.003350
      f-1     :     0.003775
      f+2     :     0.003160
      f-2     :     0.002336
      f+3     :     0.002468
      f-3     :     0.001771

  1 O s       :     3.820752  s :     3.820752
      pz      :     1.391078  p :     4.726122
      px      :     1.643568
      py      :     1.691476
      dz2     :     0.010636  d :     0.029382
      dxz     :     0.007672
      dyz     :     0.007510
      dx2y2   :     0.001704
      dxy     :     0.001861
      f0      :     0.000550  f :     0.001810
      f+1     :     0.000376
      f-1     :     0.000395
      f+2     :     0.000203
      f-2     :     0.000238
      f+3     :     0.000024
      f-3     :     0.000023

  2 O s       :     3.780883  s :     3.780883
      pz      :     1.580530  p :     4.684516
      px      :     1.719897
      py      :     1.384089
      dz2     :     0.005397  d :     0.029300
      dxz     :     0.005758
      dyz     :     0.008582
      dx2y2   :     0.005937
      dxy     :     0.003626
      f0      :     0.000036  f :     0.001540
      f+1     :     0.000263
      f-1     :     0.000224
      f+2     :     0.000175
      f-2     :     0.000290
      f+3     :     0.000270
      f-3     :     0.000282

  3 H s       :     0.633402  s :     0.633402
      pz      :     0.016807  p :     0.045844
      px      :     0.016899
      py      :     0.012138

  4 C s       :     2.939657  s :     2.939657
      pz      :     0.678256  p :     2.286291
      px      :     0.953068
      py      :     0.654967
      dz2     :     0.053497  d :     0.274730
      dxz     :     0.047582
      dyz     :     0.065264
      dx2y2   :     0.057362
      dxy     :     0.051026
      f0      :     0.004710  f :     0.025911
      f+1     :     0.004888
      f-1     :     0.005035
      f+2     :     0.003018
      f-2     :     0.001196
      f+3     :     0.004520
      f-3     :     0.002544

  5 C s       :     3.181933  s :     3.181933
      pz      :     0.627676  p :     2.259617
      px      :     0.946677
      py      :     0.685264
      dz2     :     0.057039  d :     0.284045
      dxz     :     0.055779
      dyz     :     0.069653
      dx2y2   :     0.045834
      dxy     :     0.055740
      f0      :     0.003761  f :     0.027232
      f+1     :     0.005245
      f-1     :     0.007520
      f+2     :     0.002228
      f-2     :     0.001655
      f+3     :     0.004402
      f-3     :     0.002421

  6 C s       :     3.129033  s :     3.129033
      pz      :     0.592129  p :     2.236221
      px      :     0.929130
      py      :     0.714962
      dz2     :     0.070979  d :     0.287240
      dxz     :     0.060197
      dyz     :     0.062801
      dx2y2   :     0.038369
      dxy     :     0.054894
      f0      :     0.004079  f :     0.027596
      f+1     :     0.004665
      f-1     :     0.007240
      f+2     :     0.002614
      f-2     :     0.003609
      f+3     :     0.003068
      f-3     :     0.002322

  7 C s       :     3.133584  s :     3.133584
      pz      :     0.575976  p :     2.224921
      px      :     0.926698
      py      :     0.722247
      dz2     :     0.081392  d :     0.291125
      dxz     :     0.061685
      dyz     :     0.055915
      dx2y2   :     0.035022
      dxy     :     0.057110
      f0      :     0.005932  f :     0.027859
      f+1     :     0.003938
      f-1     :     0.004581
      f+2     :     0.003906
      f-2     :     0.005225
      f+3     :     0.002277
      f-3     :     0.002001

  8 C s       :     3.140622  s :     3.140622
      pz      :     0.580512  p :     2.241314
      px      :     0.940780
      py      :     0.720022
      dz2     :     0.079323  d :     0.291581
      dxz     :     0.062107
      dyz     :     0.058860
      dx2y2   :     0.033469
      dxy     :     0.057823
      f0      :     0.005386  f :     0.027940
      f+1     :     0.004094
      f-1     :     0.005504
      f+2     :     0.003508
      f-2     :     0.004907
      f+3     :     0.002471
      f-3     :     0.002071

  9 C s       :     3.102100  s :     3.102100
      pz      :     0.607607  p :     2.252896
      px      :     0.943048
      py      :     0.702240
      dz2     :     0.063684  d :     0.288344
      dxz     :     0.061491
      dyz     :     0.070635
      dx2y2   :     0.034121
      dxy     :     0.058414
      f0      :     0.003605  f :     0.028076
      f+1     :     0.004990
      f-1     :     0.008324
      f+2     :     0.002259
      f-2     :     0.002833
      f+3     :     0.003579
      f-3     :     0.002486

 10 C s       :     3.021118  s :     3.021118
      pz      :     0.641552  p :     2.109377
      px      :     0.810509
      py      :     0.657316
      dz2     :     0.068802  d :     0.357853
      dxz     :     0.069564
      dyz     :     0.086928
      dx2y2   :     0.065567
      dxy     :     0.066991
      f0      :     0.004343  f :     0.040617
      f+1     :     0.007905
      f-1     :     0.009809
      f+2     :     0.004111
      f-2     :     0.003456
      f+3     :     0.007289
      f-3     :     0.003703

 11 F s       :     3.920651  s :     3.920651
      pz      :     1.896030  p :     5.287037
      px      :     1.909794
      py      :     1.481213
      dz2     :     0.002101  d :     0.014839
      dxz     :     0.000209
      dyz     :     0.003091
      dx2y2   :     0.005899
      dxy     :     0.003538
      f0      :     0.000053  f :     0.000625
      f+1     :     0.000012
      f-1     :     0.000120
      f+2     :     0.000091
      f-2     :     0.000011
      f+3     :     0.000142
      f-3     :     0.000196

 12 F s       :     3.919611  s :     3.919611
      pz      :     1.484709  p :     5.292191
      px      :     1.917449
      py      :     1.890033
      dz2     :     0.007479  d :     0.014687
      dxz     :     0.003374
      dyz     :     0.003261
      dx2y2   :     0.000364
      dxy     :     0.000210
      f0      :     0.000286  f :     0.000618
      f+1     :     0.000137
      f-1     :     0.000159
      f+2     :     0.000021
      f-2     :     0.000012
      f+3     :     0.000001
      f-3     :     0.000002

 13 F s       :     3.925047  s :     3.925047
      pz      :     1.856022  p :     5.255500
      px      :     1.907033
      py      :     1.492445
      dz2     :     0.002129  d :     0.016306
      dxz     :     0.000436
      dyz     :     0.004413
      dx2y2   :     0.005651
      dxy     :     0.003677
      f0      :     0.000070  f :     0.000684
      f+1     :     0.000007
      f-1     :     0.000118
      f+2     :     0.000149
      f-2     :     0.000035
      f+3     :     0.000132
      f-3     :     0.000172

 14 F s       :     3.924568  s :     3.924568
      pz      :     1.454706  p :     5.253642
      px      :     1.907106
      py      :     1.891829
      dz2     :     0.008689  d :     0.016385
      dxz     :     0.003976
      dyz     :     0.003312
      dx2y2   :     0.000255
      dxy     :     0.000154
      f0      :     0.000357  f :     0.000694
      f+1     :     0.000170
      f-1     :     0.000150
      f+2     :     0.000009
      f-2     :     0.000006
      f+3     :     0.000001
      f-3     :     0.000001

 15 F s       :     3.926808  s :     3.926808
      pz      :     1.756606  p :     5.236597
      px      :     1.897997
      py      :     1.581994
      dz2     :     0.002371  d :     0.016791
      dxz     :     0.001321
      dyz     :     0.006132
      dx2y2   :     0.003891
      dxy     :     0.003075
      f0      :     0.000078  f :     0.000703
      f+1     :     0.000008
      f-1     :     0.000152
      f+2     :     0.000193
      f-2     :     0.000097
      f+3     :     0.000085
      f-3     :     0.000089

 16 F s       :     3.925393  s :     3.925393
      pz      :     1.481279  p :     5.235840
      px      :     1.903378
      py      :     1.851183
      dz2     :     0.007728  d :     0.016821
      dxz     :     0.003716
      dyz     :     0.004394
      dx2y2   :     0.000455
      dxy     :     0.000528
      f0      :     0.000286  f :     0.000708
      f+1     :     0.000136
      f-1     :     0.000209
      f+2     :     0.000030
      f-2     :     0.000041
      f+3     :     0.000003
      f-3     :     0.000002

 17 F s       :     3.927825  s :     3.927825
      pz      :     1.638536  p :     5.226024
      px      :     1.899379
      py      :     1.688110
      dz2     :     0.003808  d :     0.017065
      dxz     :     0.002302
      dyz     :     0.006719
      dx2y2   :     0.002197
      dxy     :     0.002039
      f0      :     0.000098  f :     0.000713
      f+1     :     0.000035
      f-1     :     0.000240
      f+2     :     0.000161
      f-2     :     0.000112
      f+3     :     0.000036
      f-3     :     0.000032

 18 F s       :     3.927437  s :     3.927437
      pz      :     1.562295  p :     5.225985
      px      :     1.897909
      py      :     1.765781
      dz2     :     0.005390  d :     0.017061
      dxz     :     0.003053
      dyz     :     0.006017
      dx2y2   :     0.001248
      dxy     :     0.001354
      f0      :     0.000154  f :     0.000715
      f+1     :     0.000078
      f-1     :     0.000260
      f+2     :     0.000101
      f-2     :     0.000096
      f+3     :     0.000014
      f-3     :     0.000013

 19 F s       :     3.928290  s :     3.928290
      pz      :     1.680796  p :     5.220964
      px      :     1.898992
      py      :     1.641176
      dz2     :     0.003152  d :     0.017206
      dxz     :     0.001918
      dyz     :     0.006826
      dx2y2   :     0.002866
      dxy     :     0.002444
      f0      :     0.000085  f :     0.000719
      f+1     :     0.000019
      f-1     :     0.000212
      f+2     :     0.000188
      f-2     :     0.000111
      f+3     :     0.000052
      f-3     :     0.000051

 20 F s       :     3.928415  s :     3.928415
      pz      :     1.523710  p :     5.220819
      px      :     1.895270
      py      :     1.801839
      dz2     :     0.006397  d :     0.017224
      dxz     :     0.003458
      dyz     :     0.005480
      dx2y2   :     0.000871
      dxy     :     0.001018
      f0      :     0.000202  f :     0.000719
      f+1     :     0.000105
      f-1     :     0.000250
      f+2     :     0.000069
      f-2     :     0.000078
      f+3     :     0.000008
      f-3     :     0.000006

 21 F s       :     3.928358  s :     3.928358
      pz      :     1.795614  p :     5.218460
      px      :     1.893239
      py      :     1.529607
      dz2     :     0.002228  d :     0.017168
      dxz     :     0.000931
      dyz     :     0.005670
      dx2y2   :     0.004802
      dxy     :     0.003537
      f0      :     0.000079  f :     0.000719
      f+1     :     0.000005
      f-1     :     0.000133
      f+2     :     0.000190
      f-2     :     0.000076
      f+3     :     0.000112
      f-3     :     0.000125

 22 F s       :     3.926411  s :     3.926411
      pz      :     1.448413  p :     5.217077
      px      :     1.896279
      py      :     1.872385
      dz2     :     0.008702  d :     0.017326
      dxz     :     0.004119
      dyz     :     0.003944
      dx2y2   :     0.000254
      dxy     :     0.000306
      f0      :     0.000346  f :     0.000735
      f+1     :     0.000170
      f-1     :     0.000181
      f+2     :     0.000013
      f-2     :     0.000023
      f+3     :     0.000001
      f-3     :     0.000001

 23 F s       :     3.924485  s :     3.924485
      pz      :     1.843995  p :     5.214237
      px      :     1.886703
      py      :     1.483539
      dz2     :     0.002324  d :     0.017335
      dxz     :     0.000465
      dyz     :     0.004840
      dx2y2   :     0.006025
      dxy     :     0.003681
      f0      :     0.000080  f :     0.000767
      f+1     :     0.000007
      f-1     :     0.000138
      f+2     :     0.000168
      f-2     :     0.000039
      f+3     :     0.000141
      f-3     :     0.000193

 24 F s       :     3.922957  s :     3.922957
      pz      :     1.828733  p :     5.213460
      px      :     1.614648
      py      :     1.770079
      dz2     :     0.002322  d :     0.017379
      dxz     :     0.003806
      dyz     :     0.002122
      dx2y2   :     0.003797
      dxy     :     0.005331
      f0      :     0.000084  f :     0.000779
      f+1     :     0.000098
      f-1     :     0.000048
      f+2     :     0.000069
      f-2     :     0.000174
      f+3     :     0.000135
      f-3     :     0.000171

 25 F s       :     3.923150  s :     3.923150
      pz      :     1.439768  p :     5.213463
      px      :     1.886670
      py      :     1.887026
      dz2     :     0.009429  d :     0.017502
      dxz     :     0.004053
      dyz     :     0.003664
      dx2y2   :     0.000190
      dxy     :     0.000166
      f0      :     0.000402  f :     0.000782
      f+1     :     0.000184
      f-1     :     0.000175
      f+2     :     0.000011
      f-2     :     0.000009
      f+3     :     0.000001
      f-3     :     0.000001


SPIN
  0 C s       :     0.201242  s :     0.201242
      pz      :     0.182070  p :     0.359423
      px      :     0.085953
      py      :     0.091400
      dz2     :     0.003738  d :     0.004360
      dxz     :    -0.002484
      dyz     :     0.003700
      dx2y2   :     0.001872
      dxy     :    -0.002466
      f0      :    -0.000478  f :    -0.001557
      f+1     :     0.000059
      f-1     :    -0.000228
      f+2     :    -0.000554
      f-2     :    -0.000422
      f+3     :     0.000236
      f-3     :    -0.000170

  1 O s       :     0.021216  s :     0.021216
      pz      :     0.052517  p :     0.226971
      px      :     0.107361
      py      :     0.067093
      dz2     :     0.000184  d :     0.000625
      dxz     :     0.000222
      dyz     :     0.000251
      dx2y2   :     0.000015
      dxy     :    -0.000047
      f0      :     0.000003  f :    -0.000088
      f+1     :    -0.000037
      f-1     :    -0.000025
      f+2     :    -0.000026
      f-2     :    -0.000021
      f+3     :     0.000009
      f-3     :     0.000010

  2 O s       :    -0.002715  s :    -0.002715
      pz      :     0.001826  p :     0.037124
      px      :     0.030849
      py      :     0.004449
      dz2     :    -0.000032  d :     0.002089
      dxz     :    -0.000078
      dyz     :     0.001035
      dx2y2   :     0.001061
      dxy     :     0.000104
      f0      :     0.000012  f :     0.000019
      f+1     :    -0.000012
      f-1     :     0.000036
      f+2     :    -0.000004
      f-2     :    -0.000010
      f+3     :    -0.000003
      f-3     :    -0.000001

  3 H s       :     0.009815  s :     0.009815
      pz      :     0.000057  p :     0.000813
      px      :     0.000430
      py      :     0.000326

  4 C s       :    -0.140424  s :    -0.140424
      pz      :     0.074022  p :     0.113155
      px      :    -0.022836
      py      :     0.061969
      dz2     :     0.005915  d :     0.022000
      dxz     :     0.000317
      dyz     :     0.001898
      dx2y2   :     0.013360
      dxy     :     0.000511
      f0      :    -0.000019  f :     0.000245
      f+1     :     0.000155
      f-1     :     0.000000
      f+2     :    -0.000075
      f-2     :     0.000148
      f+3     :     0.000079
      f-3     :    -0.000043

  5 C s       :     0.011545  s :     0.011545
      pz      :     0.027886  p :     0.066442
      px      :    -0.000562
      py      :     0.039119
      dz2     :     0.004211  d :     0.013690
      dxz     :     0.000107
      dyz     :     0.000783
      dx2y2   :     0.008454
      dxy     :     0.000135
      f0      :    -0.000024  f :    -0.000028
      f+1     :     0.000009
      f-1     :    -0.000020
      f+2     :    -0.000021
      f-2     :     0.000073
      f+3     :    -0.000009
      f-3     :    -0.000035

  6 C s       :    -0.016869  s :    -0.016869
      pz      :     0.010824  p :     0.031078
      px      :    -0.003515
      py      :     0.023769
      dz2     :     0.001941  d :     0.006609
      dxz     :    -0.000029
      dyz     :     0.000420
      dx2y2   :     0.004137
      dxy     :     0.000140
      f0      :     0.000019  f :     0.000038
      f+1     :     0.000015
      f-1     :    -0.000029
      f+2     :    -0.000004
      f-2     :     0.000038
      f+3     :     0.000014
      f-3     :    -0.000016

  7 C s       :    -0.002262  s :    -0.002262
      pz      :     0.001826  p :     0.012938
      px      :    -0.001396
      py      :     0.012509
      dz2     :     0.000830  d :     0.003694
      dxz     :    -0.000038
      dyz     :     0.000172
      dx2y2   :     0.002745
      dxy     :    -0.000015
      f0      :     0.000015  f :     0.000036
      f+1     :     0.000008
      f-1     :    -0.000014
      f+2     :     0.000003
      f-2     :     0.000015
      f+3     :     0.000017
      f-3     :    -0.000009

  8 C s       :    -0.001189  s :    -0.001189
      pz      :    -0.000013  p :     0.004955
      px      :    -0.000320
      py      :     0.005288
      dz2     :     0.000261  d :     0.001544
      dxz     :    -0.000019
      dyz     :     0.000053
      dx2y2   :     0.001181
      dxy     :     0.000067
      f0      :     0.000000  f :     0.000019
      f+1     :     0.000003
      f-1     :    -0.000000
      f+2     :     0.000012
      f-2     :     0.000001
      f+3     :     0.000013
      f-3     :    -0.000011

  9 C s       :    -0.000259  s :    -0.000259
      pz      :     0.000031  p :     0.002090
[...]
 24:    257.32   0.008440   42.65  0.010235  ( 0.093452 -0.015787  0.035396)
 25:    259.42   0.002901   14.66  0.003490  (-0.056195  0.011257 -0.014338)
 26:    264.42   0.026122  132.01  0.030829  ( 0.165739 -0.030823  0.049082)
 27:    287.87   0.001216    6.14  0.001318  ( 0.033880 -0.012719 -0.002911)
 28:    309.54   0.000128    0.65  0.000129  (-0.004413 -0.002003 -0.010295)
 29:    317.67   0.000095    0.48  0.000093  ( 0.002975  0.009176 -0.000017)
 30:    339.20   0.000057    0.29  0.000052  ( 0.001992 -0.005386 -0.004386)
 31:    352.63   0.001325    6.69  0.001172  (-0.030358 -0.015762  0.001516)
 32:    358.29   0.006179   31.23  0.005382  ( 0.064464  0.028617 -0.020178)
 33:    365.17   0.000724    3.66  0.000619  (-0.018168 -0.011539 -0.012481)
 34:    367.19   0.001375    6.95  0.001169  (-0.031965 -0.007785  0.009285)
 35:    374.70   0.001356    6.85  0.001129  (-0.022183 -0.025154  0.002115)
 36:    379.50   0.000227    1.15  0.000187  (-0.001720 -0.013496  0.001380)
 37:    417.50   0.000237    1.20  0.000177  ( 0.006059 -0.011733 -0.001598)
 38:    463.68   0.008406   42.48  0.005657  ( 0.067683  0.031640 -0.008669)
 39:    471.22   0.001288    6.51  0.000853  (-0.023482 -0.005002  0.016631)
 40:    518.45   0.003435   17.36  0.002068  ( 0.037920  0.024014 -0.007281)
 41:    530.78   0.006259   31.63  0.003680  (-0.058116 -0.013333  0.011173)
 42:    532.16   0.006232   31.49  0.003655  ( 0.031359 -0.051631 -0.002318)
 43:    559.93   0.001805    9.12  0.001006  (-0.026783 -0.016791  0.002622)
 44:    565.47   0.005367   27.12  0.002962  ( 0.053511 -0.008871  0.004441)
 45:    575.75   0.024435  123.49  0.013244  ( 0.110526  0.030285  0.010532)
 46:    598.24   0.000676    3.42  0.000353  (-0.011027 -0.002324 -0.015026)
 47:    611.89   0.001263    6.38  0.000644  ( 0.022173 -0.012352  0.000316)
 48:    630.47   0.005978   30.21  0.002959  ( 0.052730  0.007620 -0.010980)
 49:    654.07   0.032260  163.03  0.015391  (-0.123441 -0.012403 -0.000274)
 50:    688.16   0.024520  123.91  0.011119  (-0.104684  0.006258 -0.011013)
 51:    700.50   0.016916   85.48  0.007536  (-0.086365  0.000940  0.008710)
 52:    727.31   0.000683    3.45  0.000293  (-0.016703  0.003721 -0.000225)
 53:    759.29   0.002970   15.01  0.001221  ( 0.034559  0.003292 -0.003958)
 54:    828.43   0.033640  170.00  0.012672  ( 0.102860  0.043374  0.014502)
 55:    934.47   0.076741  387.82  0.025628  ( 0.147598  0.060172  0.014884)
 56:    998.83   0.064413  325.52  0.020125  ( 0.012062  0.141133 -0.007795)
 57:   1037.99   0.043733  221.01  0.013148  (-0.014454 -0.053667 -0.100295)
 58:   1064.66   0.014041   70.96  0.004116  (-0.028512 -0.054362  0.018639)
 59:   1117.86   0.031058  156.95  0.008670  (-0.023352 -0.046782 -0.077047)
 60:   1123.03   0.019185   96.96  0.005331  (-0.025835  0.040979 -0.054630)
 61:   1130.16   0.012515   63.25  0.003456  (-0.044398  0.032690  0.020395)
 62:   1140.91   0.012484   63.09  0.003415  (-0.009423  0.025412  0.051768)
 63:   1146.09   0.068483  346.09  0.018647  ( 0.019334  0.130562 -0.035023)
 64:   1158.26   0.088962  449.58  0.023969  (-0.031764 -0.098870 -0.114824)
 65:   1164.66   0.061330  309.94  0.016433  ( 0.000543 -0.124559 -0.030292)
 66:   1170.30   0.079013  399.30  0.021069  (-0.000758  0.028289 -0.142366)
 67:   1182.39   0.078576  397.09  0.020738  ( 0.015226 -0.045341  0.135833)
 68:   1186.12   0.054278  274.30  0.014280  ( 0.048089 -0.101121 -0.041741)
 69:   1204.36   0.023236  117.42  0.006021  (-0.026348 -0.023336  0.069151)
 70:   1207.55   0.080310  405.85  0.020754  ( 0.021957  0.042977 -0.135739)
 71:   1241.39   0.024473  123.67  0.006152  (-0.040119  0.051928  0.042965)
 72:   1265.34   0.016148   81.61  0.003983  (-0.030927  0.014893  0.052955)
 73:   1269.20   0.010225   51.67  0.002514  (-0.028276  0.015375  0.038445)
 74:   1301.39   0.010631   53.73  0.002549  ( 0.036870  0.006160 -0.033941)
 75:   1359.74   0.096239  486.35  0.022087  ( 0.147749 -0.009150 -0.013177)
 76:   1562.11   0.114618  579.23  0.022897  (-0.108782  0.058291  0.087555)
 77:   3749.15   0.020110  101.63  0.001674  (-0.028803 -0.018797  0.022155)

* The epsilon (eps) is given for a Dirac delta lineshape.
** The dipole moment derivative (T) already includes vibrational overlap.

The first frequency considered to be a vibration is 6
The total number of vibrations considered is 72


--------------------------
THERMOCHEMISTRY AT 298.15K
--------------------------

Temperature         ...   298.15 K
Pressure            ...     1.00 atm
Total Mass          ...   414.06 AMU
Quasi RRHO          ...     True
Cut-Off Frequency   ...     1.00 cm^-1

Throughout the following assumptions are being made:
  (1) The electronic state is orbitally nondegenerate
      but the spin degeneracy is treated
  (2) There are no thermally accessible electronically excited states
  (3) Hindered rotations indicated by low frequency modes are not
      treated as such but are treated as vibrations and this may
      cause some error
  (4) All equations used are the standard statistical mechanics
      equations for an ideal gas
  (5) All vibrations are strictly harmonic

freq.      15.32  E(vib)   ...       0.57 
freq.      27.81  E(vib)   ...       0.55 
freq.      37.10  E(vib)   ...       0.54 
freq.      42.34  E(vib)   ...       0.53 
freq.      60.43  E(vib)   ...       0.51 
freq.      67.31  E(vib)   ...       0.50 
freq.      67.46  E(vib)   ...       0.50 
freq.      84.76  E(vib)   ...       0.48 
freq.     111.08  E(vib)   ...       0.45 
freq.     128.70  E(vib)   ...       0.43 
freq.     154.72  E(vib)   ...       0.40 
freq.     191.85  E(vib)   ...       0.36 
freq.     193.83  E(vib)   ...       0.36 
freq.     200.32  E(vib)   ...       0.35 
freq.     212.78  E(vib)   ...       0.34 
freq.     229.85  E(vib)   ...       0.32 
freq.     244.11  E(vib)   ...       0.31 
freq.     248.06  E(vib)   ...       0.31 
freq.     257.32  E(vib)   ...       0.30 
freq.     259.42  E(vib)   ...       0.30 
freq.     264.42  E(vib)   ...       0.29 
freq.     287.87  E(vib)   ...       0.27 
freq.     309.54  E(vib)   ...       0.26 
freq.     317.67  E(vib)   ...       0.25 
freq.     339.20  E(vib)   ...       0.23 
freq.     352.63  E(vib)   ...       0.22 
freq.     358.29  E(vib)   ...       0.22 
freq.     365.17  E(vib)   ...       0.22 
freq.     367.19  E(vib)   ...       0.22 
freq.     374.70  E(vib)   ...       0.21 
freq.     379.50  E(vib)   ...       0.21 
freq.     417.50  E(vib)   ...       0.18 
freq.     463.68  E(vib)   ...       0.16 
freq.     471.22  E(vib)   ...       0.15 
freq.     518.45  E(vib)   ...       0.13 
freq.     530.78  E(vib)   ...       0.13 
freq.     532.16  E(vib)   ...       0.13 
freq.     559.93  E(vib)   ...       0.12 
freq.     565.47  E(vib)   ...       0.11 
freq.     575.75  E(vib)   ...       0.11 
freq.     598.24  E(vib)   ...       0.10 
freq.     611.89  E(vib)   ...       0.10 
freq.     630.47  E(vib)   ...       0.09 
freq.     654.07  E(vib)   ...       0.08 
freq.     688.16  E(vib)   ...       0.07 
freq.     700.50  E(vib)   ...       0.07 
freq.     727.31  E(vib)   ...       0.06 
freq.     759.29  E(vib)   ...       0.06 
freq.     828.43  E(vib)   ...       0.04 
freq.     934.47  E(vib)   ...       0.03 
freq.     998.83  E(vib)   ...       0.02 
freq.    1037.99  E(vib)   ...       0.02 
freq.    1064.66  E(vib)   ...       0.02 
freq.    1117.86  E(vib)   ...       0.01 
freq.    1123.03  E(vib)   ...       0.01 
freq.    1130.16  E(vib)   ...       0.01 
freq.    1140.91  E(vib)   ...       0.01 
freq.    1146.09  E(vib)   ...       0.01 
freq.    1158.26  E(vib)   ...       0.01 
freq.    1164.66  E(vib)   ...       0.01 
freq.    1170.30  E(vib)   ...       0.01 
freq.    1182.39  E(vib)   ...       0.01 
freq.    1186.12  E(vib)   ...       0.01 
freq.    1204.36  E(vib)   ...       0.01 
freq.    1207.55  E(vib)   ...       0.01 
freq.    1241.39  E(vib)   ...       0.01 
freq.    1265.34  E(vib)   ...       0.01 
freq.    1269.20  E(vib)   ...       0.01 
freq.    1301.39  E(vib)   ...       0.01 
freq.    1359.74  E(vib)   ...       0.01 
freq.    1562.11  E(vib)   ...       0.00 
freq.    3749.15  E(vib)   ...       0.00 

------------
INNER ENERGY
------------

The inner energy is: U= E(el) + E(ZPE) + E(vib) + E(rot) + E(trans)
    E(el)   - is the total energy from the electronic structure calculation
              = E(kin-el) + E(nuc-el) + E(el-el) + E(nuc-nuc)
    E(ZPE)  - the the zero temperature vibrational energy from the frequency calculation
    E(vib)  - the the finite temperature correction to E(ZPE) due to population
              of excited vibrational states
    E(rot)  - is the rotational thermal energy
    E(trans)- is the translational thermal energy

Summary of contributions to the inner energy U:
Electronic energy                ...  -1953.54379931 Eh
Zero point energy                ...      0.10730171 Eh      67.33 kcal/mol
Thermal vibrational correction   ...      0.02102347 Eh      13.19 kcal/mol
Thermal rotational correction    ...      0.00141627 Eh       0.89 kcal/mol
Thermal translational correction ...      0.00141627 Eh       0.89 kcal/mol
-----------------------------------------------------------------------
Total thermal energy                  -1953.41264159 Eh


Summary of corrections to the electronic energy:
(perhaps to be used in another calculation)
Total thermal correction                  0.02385601 Eh      14.97 kcal/mol
Non-thermal (ZPE) correction              0.10730171 Eh      67.33 kcal/mol
-----------------------------------------------------------------------
Total correction                          0.13115772 Eh      82.30 kcal/mol


--------
ENTHALPY
--------

The enthalpy is H = U + kB*T
                kB is Boltzmann's constant
Total thermal energy              ...  -1953.41264159 Eh 
Thermal Enthalpy correction       ...      0.00094421 Eh       0.59 kcal/mol
-----------------------------------------------------------------------
Total Enthalpy                    ...  -1953.41169738 Eh


Note: Only C1 symmetry has been detected, increase convergence thresholds 
      if your molecule has a higher symmetry. Symmetry factor of 1.0 is   
      used for the rotational entropy correction. 
 

Note: Rotational entropy computed according to Herzberg 
Infrared and Raman Spectra, Chapter V,1, Van Nostrand Reinhold, 1945 
Point Group:  C1, Symmetry Number:   1  
Rotational constants in cm-1:     0.021163     0.003730     0.003689 

Vibrational entropy computed according to the QRRHO of S. Grimme
Chem.Eur.J. 2012 18 9955 using a reference frequency of 100.0 cm-1


-------
ENTROPY
-------

The entropy contributions are T*S = T*(S(el)+S(vib)+S(rot)+S(trans))
     S(el)   - electronic entropy
     S(vib)  - vibrational entropy
     S(rot)  - rotational entropy
     S(trans)- translational entropy
The entropies will be listed as multiplied by the temperature to get
units of energy

Electronic entropy                ...      0.00065446 Eh      0.41 kcal/mol
Vibrational entropy               ...      0.03769757 Eh     23.66 kcal/mol
Rotational entropy                ...      0.01661536 Eh     10.43 kcal/mol
Translational entropy             ...      0.02088355 Eh     13.10 kcal/mol
-----------------------------------------------------------------------
Final entropy term                ...      0.07585093 Eh     47.60 kcal/mol

In case the symmetry of your molecule has not been determined correctly
or in case you have a reason to use a different symmetry number we print 
out the resulting rotational entropy values for sn=1,12:

 non-linear molecules -----------------------------------
|  sn= 1 | S(rot)=       0.01661536 Eh     10.43 kcal/mol|
|  sn= 2 | S(rot)=       0.01596090 Eh     10.02 kcal/mol|
|  sn= 3 | S(rot)=       0.01557807 Eh      9.78 kcal/mol|
|  sn= 4 | S(rot)=       0.01530644 Eh      9.60 kcal/mol|
|  sn= 5 | S(rot)=       0.01509576 Eh      9.47 kcal/mol|
|  sn= 6 | S(rot)=       0.01492361 Eh      9.36 kcal/mol|
|  sn= 7 | S(rot)=       0.01477807 Eh      9.27 kcal/mol|
|  sn= 8 | S(rot)=       0.01465199 Eh      9.19 kcal/mol|
|  sn= 9 | S(rot)=       0.01454078 Eh      9.12 kcal/mol|
|  sn=10 | S(rot)=       0.01444130 Eh      9.06 kcal/mol|
|  sn=11 | S(rot)=       0.01435131 Eh      9.01 kcal/mol|
|  sn=12 | S(rot)=       0.01426916 Eh      8.95 kcal/mol|
 linear molecules ---------------------------------------
|  Dinfh | S(rot)=       0.01061536 Eh      6.66 kcal/mol|
|  Cinfv | S(rot)=       0.01126982 Eh      7.07 kcal/mol|
 --------------------------------------------------------


-------------------
GIBBS FREE ENERGY
-------------------

The Gibbs free energy is G = H - T*S

Total enthalpy                    ...  -1953.41169738 Eh 
Total entropy correction          ...     -0.07585093 Eh    -47.60 kcal/mol
-----------------------------------------------------------------------
Final Gibbs free energy         ...  -1953.48754831 Eh

For completeness - the Gibbs free energy minus the electronic energy
G-E(el)                           ...      0.05625100 Eh     35.30 kcal/mol


Maximum memory used throughout the entire PROP-calculation: 589.1 MB

--------------------------------
SUGGESTED CITATIONS FOR THIS RUN
--------------------------------

Below you find a list of papers that are relevant to this ORCA run
We neither can nor want to force you to cite these papers, but we appreciate if you do
You receive ORCA, which is the product of decades of hard work by many enthusiastic individuals, for free
The only thing we kindly ask in return is that you cite our papers,
We deeply appreciate it, if you show your appreciation for ORCA by not just citing the generic ORCA reference.

Please note that relegating all ORCA citations to the supporting information does *not* help us.
SI sections are not indexed - citations you put there will not count into any citation statistics
But we need these citations in order to attract the funding resources that allow us to do what we are doing

Therefore, if you are a happy ORCA user, please consider citing a few of the papers listed below in the main body of your paper

In addition to the list printed below, the program has created the file rf_mecn_freq_r2s_P_B.bibtex that contains the list in bibtex format
You can import this file easily into all common literature databanks and citation aid programs


List of essential papers. We consider these as the minimum necessary citations

  1. Neese,F.
     Software update: the ORCA program system, version 5.0
     WIRES Comput. Molec. Sci., 2022 12(1)e1606
     doi.org/10.1002/wcms.1606

List of papers to cite with high priority. The work reported in these papers was absolutely
necessary for this run to complete.
Our perspective: the developers of density functionals and basis sets usually get cited in chemistry papers
Good! But without the algorithms to do something with them, the functionals or basis sets would not do anything.
Hence, in our opinion, the algorithm design and method developments papers are equally worthy of getting cited

  1. Neese,F.
     An improvement of the resolution of the identity approximation for the formation of the Coulomb matrix
     J. Comp. Chem., 2003 24(14)1740-1747
     doi.org/10.1002/jcc.10318
  2. Neese,F.; Wennmohs,F.; Hansen,A.; Becker,U.
     Efficient, approximate and parallel Hartree-Fock and hybrid DFT calculations. A 'chain-of-spheres' algorithm for the Hartree-Fock exchange
     Chem. Phys., 2009 356(1-3)98-109
     doi.org/10.1016/j.chemphys.2008.10.036
  3. Bykov,D.; Petrenko,T.; Izsak,R.; Kossmann,S.; Becker,U.; Valeev,E.; Neese,F.
     Efficient implementation of the analytic second derivatives of Hartree-Fock and hybrid DFT energies: a detailed analysis of different approximations
     Molec. Phys., 2015 113 1961-1977
     doi.org/10.1080/00268976.2015.1025114
  4. Garcia-Rates,M.; Neese,F.
     Efficient implementation of the analytical second derivatives of hartree-fock and hybrid DFT energies within the framework of the conductor-like polarizable continuum model
     J. Comput. Chem., 2019 40 1816-1828
     doi.org/10.1002/jcc.25833
  5. Garcia-Rates,M.; Neese,F.
     Effect of the Solute Cavity on the Solvation Energy and its Derivatives within the Framework of the Gaussian Charge Scheme
     J. Comput. Chem., 2020 41 922-939
     doi.org/10.1002/jcc.26139
  6. Helmich-Paris,B.; de Souza,B.; Neese,F.; Izsák,R.
     An improved chain of spheres for exchange algorithm
     J. Chem. Phys., 2021 155 104109
     doi.org/doi: 10.1063/5.0058766.
  7. Neese,F.
     The SHARK Integral Generation and Digestion System
     J. Comp. Chem., 2022  1-16
     doi.org/10.1002/jcc.26942
  8. Lehtola,S.; Steigemann,C.; Oliveira,M.; Marques,M.
     Recent developments in Libxc - A comprehensive library of functionals for density functional theory
     Software X, 2018 7 
     doi.org/10.1016/j.softx.2017.11.002
  9. Grimme,S.; Antony,J.; Ehrlich,S.; Krieg,H.
     A consistent and accurate ab initio parametrization of density functional dispersion correction (DFT-D) for the 94 elements H-Pu
     J. Chem. Phys., 2010 132 154104
     doi.org/10.1063/1.3382344
 10. Grimme,S.; Ehrlich,S.; Goerigk,L.
     Effect of the damping function in dispersion corrected density functional theory
     J. Comput. Chem., 2011 32(7)1456-1465
     doi.org/10.1002/jcc.21759
 11. Bursch,M.; Neugebauer,H.; Ehlert,S.; Grimme,S.
     Dispersion corrected r2SCAN based global hybrid functionals: r2SCANh, r2SCAN0, and r2SCAN50
     J. Phys. Chem., 2022 156(13)134105
     doi.org/10.1063/5.0086040

List of suggested additional citations. These are papers that are important in the 'surrounding' of 
of this run, or papers that preceded the highly important papers. If you like your results we are grateful for a citation.

  1. Izsak,R.; Neese,F.
     An overlap fitted chain of spheres exchange method
     J. Chem. Phys., 2011 135 144105
     doi.org/10.1063/1.3646921
  2. Izsak,R.; Hansen,A.; Neese,F.
     The resolution of identity and chain of spheres approximations for the LPNO-CCSD singles Fock term
     Molec. Phys., 2012 110 2413-2417
     doi.org/10.1080/00268976.2012.687466
  3. Neese,F.
     The ORCA program system
     WIRES Comput. Molec. Sci., 2012 2(1)73-78
     doi.org/10.1002/wcms.81
  4. Izsak,R.; Neese,F.; Klopper,W.
     Robust fitting techniques in the chain of spheres approximation to the Fock exchange: The role of the complementary space
     J. Chem. Phys., 2013 139 
     doi.org/10.1063/1.4819264
  5. Neese,F.
     Software update: the ORCA program system, version 4.0
     WIRES Comput. Molec. Sci., 2018 8(1)1-6
     doi.org/10.1002/wcms.1327
  6. Neese,F.; Wennmohs,F.; Becker,U.; Riplinger,C.
     The ORCA quantum chemistry program package
     J. Chem. Phys., 2020 152 Art. No. L224108
     doi.org/10.1063/5.0004608
  7. Wittmann,L.; Neugebauer,H.; Grimme,S.; Bursch,M.
     Dispersion-corrected r2SCAN based double-hybrid functionals
     J. Chem. Phys., 2023 159(22)224103
     doi.org/10.1063/5.0174988

List of optional additional citations

  1. Neese,F.
     Approximate second-order SCF convergence for spin unrestricted wavefunctions
     Chem. Phys. Lett., 2000 325(1-3)93-98
     doi.org/10.1016/s0009-2614(00)00662-x

Timings for individual modules:

Sum of individual times          ...     1694.807 sec (=  28.247 min)
Startup calculation              ...        4.430 sec (=   0.074 min)   0.3 %
SCF iterations                   ...      123.604 sec (=   2.060 min)   7.3 %
Property integrals               ...      464.327 sec (=   7.739 min)  27.4 %
SCF Response                     ...      868.042 sec (=  14.467 min)  51.2 %
Property calculations            ...      234.403 sec (=   3.907 min)  13.8 %
                             ****ORCA TERMINATED NORMALLY****
TOTAL RUN TIME: 0 days 0 hours 28 minutes 15 seconds 542 msec
