
                                 *****************
                                 * O   R   C   A *
                                 *****************

                                            #,                                       
                                            ###                                      
                                            ####                                     
                                            #####                                    
                                            ######                                   
                                           ########,                                 
                                     ,,################,,,,,                         
                               ,,#################################,,                 
                          ,,##########################################,,             
                       ,#########################################, ''#####,          
                    ,#############################################,,   '####,        
                  ,##################################################,,,,####,       
                ,###########''''           ''''###############################       
              ,#####''   ,,,,##########,,,,          '''####'''          '####       
            ,##' ,,,,###########################,,,                        '##       
           ' ,,###''''                  '''############,,,                           
         ,,##''                                '''############,,,,        ,,,,,,###''
      ,#''                                            '''#######################'''  
     '                                                          ''''####''''         
             ,#######,   #######,   ,#######,      ##                                
            ,#'     '#,  ##    ##  ,#'     '#,    #''#        ,####,   ,####,        
            ##       ##  ##   ,#'  ##            #'  '#       #'       #'  '#        
            ##       ##  #######   ##           ,######,      #####,   #    #        
            '#,     ,#'  ##    ##  '#,     ,#' ,#      #,     #,   #   #,  ,#        
             '#######'   ##     ##  '#######'  #'      '#     '####' # '####'        



                #########################################################
                #                        -***-                          #
                #          Department of theory and spectroscopy        #
                #                                                       #
                #                      Frank Neese                      #
                #                                                       #
                #     Directorship, Architecture, Infrastructure        #
                #                    SHARK, DRIVERS                     #
                #        Core code/Algorithms in most modules           #
                #                                                       #
                #        Max Planck Institute fuer Kohlenforschung      #
                #                Kaiser Wilhelm Platz 1                 #
                #                 D-45470 Muelheim/Ruhr                 #
                #                      Germany                          #
                #                                                       #
                #                  All rights reserved                  #
                #                        -***-                          #
                #########################################################


                         Program Version 6.0.1  -  RELEASE   -


 With contributions from (in alphabetic order):
[Max-Planck-Institut fuer Kohlenforschung]                               
  Daniel Aravena         : Magnetic Suceptibility                        
  Michael Atanasov       : Ab Initio Ligand Field Theory (pilot matlab implementation)
  Alexander A. Auer      : GIAO ZORA, VPT2 properties, NMR spectrum      
  Ute Becker             : All parallelization in ORCA, NUMFREQ, NUMCALC 
  Giovanni Bistoni       : ED, misc. LED, open-shell LED, HFLD           
  Martin Brehm           : Molecular dynamics                            
  Dmytro Bykov           : pre 5.0 version of the SCF Hessian            
  Marcos Casanova-Páez   : Triplet and SCS-CIS(D). UHF-(DLPNO)-IP/EA/STEOM-CCSD. UHF-CVS-IP/STEOM-CCSD   
  Vijay G. Chilkuri      : MRCI spin determinant printing, contributions to CSF-ICE 
  Pauline Colinet        : FMM embedding                                 
  Dipayan Datta          : RHF DLPNO-CCSD density                        
  Achintya Kumar Dutta   : EOM-CC, STEOM-CC                              
  Nicolas Foglia         : Exact transition moments, OPA infrastructure, MCD improvements    
  Dmitry Ganyushin       : Spin-Orbit,Spin-Spin,Magnetic field MRCI      
  Miquel Garcia-Rates    : C-PCM and meta-GGA Hessian, CCSD/C-PCM, Gaussian charge scheme 
  Tiago L. C. Gouveia    : GS-ROHF, GS-ROCIS                             
  Yang Guo               : DLPNO-NEVPT2, F12-NEVPT2, CIM, IAO-localization        
  Andreas Hansen         : Spin unrestricted coupled pair/coupled cluster methods 
  Ingolf Harden          : AUTO-CI MPn and infrastructure                
  Benjamin Helmich-Paris : MC-RPA, TRAH-(SCF,CASSCF), AVAS, COSX integrals, SCF dyn. polar. 
  Lee Huntington         : MR-EOM, pCC                                   
  Robert Izsak           : Overlap fitted RIJCOSX, COSX-SCS-MP3, EOM     
  Riya Kayal             : Wick's Theorem for AUTO-CI, AUTO-CI UHF-CCSDT 
  Emily Kempfer          : AUTO-CI, RHF CISDT and CCSDT                  
  Christian Kollmar      : KDIIS, OOCD, Brueckner-CCSD(T), CCSD density, CASPT2, CASPT2-K, improved NEVPT2 
  Axel Koslowski         : Symmetry handling                             
  Simone Kossmann        : meta-GGA functionals, TD-DFT gradient, OOMP2, (MP2 Hessian; deprecated post 5.0) 
  Lucas Lang             : DCDCAS                                        
  Marvin Lechner         : AUTO-CI (C++ implementation), FIC-MRCC        
  Spencer Leger          : CASSCF response                               
  Dagmar Lenk            : GEPOL surface, SMD, ORCA-2-JSON               
  Dimitrios Liakos       : Extrapolation schemes; Compound Job, initial MDCI parallelization 
  Dimitrios Manganas     : Further ROCIS development; embedding schemes. LFT, Crystal Embedding 
  Dimitrios Pantazis     : SARC Basis sets                               
  Anastasios Papadopoulos: AUTO-CI, single reference methods and gradients 
  Taras Petrenko         : pre 6.0 DFT Hessian and TD-DFT gradient, (ASA, deprecated), ECA, 1-Electron XAS/XES, NRVS 
  Peter Pinski           : DLPNO-MP2, DLPNO-MP2 Gradient                 
  Christoph Reimann      : Effective Core Potentials                     
  Marius Retegan         : Local ZFS, SOC                                
  Christoph Riplinger    : Optimizer, TS searches, QM/MM, DLPNO-CCSD(T), (RO)-DLPNO pert. Triples 
  Michael Roemelt        : Original ROCIS implementation                 
  Masaaki Saitow         : Open-shell DLPNO-CCSD energy and density      
  Barbara Sandhoefer     : DKH picture change effects                    
  Kantharuban Sivalingam : CASSCF convergence/infrastructure, NEVPT2 and variants, FIC-MRCI 
  Bernardo de Souza      : ESD, SOC TD-DFT                               
  Georgi L. Stoychev     : AutoAux, RI-MP2 NMR, DLPNO-MP2 response, X2C  
  Van Anh Tran           : RI-MP2 g-tensors                              
  Willem Van den Heuvel  : Paramagnetic NMR                              
  Zikuan Wang            : NOTCH, Electric field optimization            
  Frank Wennmohs         : Technical directorship and infrastructure     
  Hang Xu                : AUTO-CI-Response properties                   
                                                                         
[FACCTs GmbH]                                                            
  Markus Bursch, Miquel Garcia-Rates, Christoph Riplinger, Bernardo de Souza, Georgi L. Stoychev 
                                                                 
  APM, Basis sets (HGBS, AHGBS, def-TZVP (Ac-Lr), def2-XVPD (La-Lu)), CI-OPT, improved COSX, DLPNO-Multilevel,           
  DOCKER, DRACO, updates on ESD, GOAT, IRC, LR-CPCM, MBIS, meta-GGA TD-DFT gradient, ML-optimized integration grids, 
  MM, NACMEs, nearIR, NEB, NEB-TS, NL-DFT gradient (VV10), 2- and 3-layer-ONIOM, interface openCOSMO-RS, QMMM,   
  Crystal-QMMM, SF, symmetry and pop. for TD-DFT, r2SCAN hybrids, SOLVATOR                                   
                                                                         
[Other institutions]                                                     
  V. Asgeirsson          : NEB                                           
  Christoph Bannwarth    : sTDA-DFT, sTD-DFT, PBEh-3c, B97-3c, D3        
  Sebastian Ehlert       : rSCAN, r2SCAN, r2SCAN-3c, D4, dhf basis sets  
  Marvin Friede          : D4 for Fr, Ra, Ac-Lr                          
  Lars Goerigk           : TD-DFT with DH, B97 family of functionals     
  Stefan Grimme          : VdW corrections, initial TS optimization, DFT functionals, gCP, sTDA/sTD-DF 
  Waldemar Hujo          : DFT-NL                                        
  H. Jonsson             : NEB                                           
  Holger Kruse           : gCP                                           
  Marcel Mueller         : wB97X-3c, vDZP basis set                      
  Hagen Neugebauer       : wr2SCAN                                       
  Tobias Risthaus        : range-separated hybrid DFT                    
  Lukas Wittmann         : regularized MP2, r2SCAN double-hybrids, wr2SCAN        
                                                                         
We gratefully acknowledge several colleagues who have allowed us to      
interface, adapt or use parts of their codes:                            
  Ed Valeev, F. Pavosevic, A. Kumar             : LibInt (2-el integral package), F12 methods 
  Garnet Chan, S. Sharma, J. Yang, R. Olivares  : DMRG                   
  Ulf Ekstrom                                   : XCFun DFT Library      
  Mihaly Kallay                                 : mrcc  (arbitrary order and MRCC methods)
  Frank Weinhold                                : gennbo (NPA and NBO analysis)           
  Simon Mueller                                 : openCOSMO-RS                            
  Christopher J. Cramer and Donald G. Truhlar   : smd solvation model                     
  S Lehtola, MJT Oliveira, MAL Marques          : LibXC Library                           
  Liviu Ungur et al                             : ANISO software                          


 Your calculation uses the libint2 library for the computation of 2-el integrals
 For citations please refer to: http://libint.valeyev.net

 Your ORCA version has been built with support for libXC version: 6.2.2
 For citations please refer to: https://libxc.gitlab.io

 This ORCA versions uses:
   CBLAS   interface :  Fast vector & matrix operations
   LAPACKE interface :  Fast linear algebra routines
   SCALAPACK package :  Parallel linear algebra routines
   Shared memory     :  Shared parallel matrices
   BLAS/LAPACK       :  OpenBLAS 0.3.27  USE64BITINT DYNAMIC_ARCH NO_AFFINITY SkylakeX SINGLE_THREADED
        Core in use  :  SkylakeX
   Copyright (c) 2011-2014, The OpenBLAS Project


NOTE: MaxCore=8000 MB was set to SCF,MP2,MDCI,CIPSI,MRCI and CIS
      => If you want to overwrite this, your respective input block should be placed after the MaxCore statement
Your calculation utilizes the atom-pairwise dispersion correction
with the Becke-Johnson damping scheme (D3BJ)


Your calculation utilizes the SMD solvation module
Please cite in your paper:
A.V. Marenich, C.J. Cramer, D.G. Truhlar J. Phys. Chem. B, 113, (2009), 6378 

Warning: RI is on but no J-basis has been assigned. Assigning Def2/J (nothing to worry about!)
================================================================================

----- Orbital basis set information -----
Your calculation utilizes the basis: def2-TZVP
   F. Weigend and R. Ahlrichs, Phys. Chem. Chem. Phys. 7, 3297 (2005).

----- AuxJ basis set information -----
Your calculation utilizes the auxiliary basis: def2/J
   F. Weigend, Phys. Chem. Chem. Phys. 8, 1057 (2006).

================================================================================
                                        WARNINGS
                       Please study these warnings very carefully!
================================================================================


WARNING: your system is open-shell and RHF/RKS was chosen
  ===> : WILL SWITCH to UHF/UKS


================================================================================
                                       INPUT FILE
================================================================================
NAME = rf_mecn_freq_TP_C2_D_B.inp
|  1> !TPSSh def2-TZVP freq d3 TightSCF SlowConv defgrid2
|  2>  
|  3> %pal
|  4> nprocs 20
|  5> end
|  6>  
|  7> %scf
|  8> MaxIter 1500
|  9> end
| 10>  
| 11> %maxcore 8000
| 12>  
| 13> !CPCM
| 14> %cpcm smd true
| 15> SMDsolvent "ACETONITRILE"
| 16> end
| 17>  
| 18> * xyz -1 2
| 19> 6        4.457775000     -0.662862000     -0.366731000
| 20> 8        4.042301000     -1.074161000     -1.477432000
| 21> 8        5.502853000     -0.945419000      0.259788000
| 22> 6        3.547124000      0.317219000      0.315815000
| 23> 6        2.243560000      0.886030000     -0.156325000
| 24> 6        1.004242000     -0.041565000      0.094488000
| 25> 6       -0.387246000      0.671717000      0.030861000
| 26> 6       -1.590991000     -0.320224000     -0.135043000
| 27> 6       -2.968291000      0.298669000      0.274497000
| 28> 6       -4.214083000     -0.485912000     -0.248532000
| 29> 9        3.773892000      0.613502000      1.609502000
| 30> 9        1.987818000      2.056514000      0.519664000
| 31> 9        2.279054000      1.185633000     -1.479259000
| 32> 9        1.014327000     -1.042942000     -0.811758000
| 33> 9        1.132863000     -0.583629000      1.331974000
| 34> 9       -0.568593000      1.379281000      1.168674000
| 35> 9       -0.403676000      1.528642000     -1.013377000
| 36> 9       -1.380293000     -1.412152000      0.632492000
| 37> 9       -1.655461000     -0.710429000     -1.426278000
| 38> 9       -3.058116000      1.560381000     -0.201021000
| 39> 9       -3.045720000      0.334303000      1.620221000
| 40> 9       -4.116733000     -1.787090000      0.042719000
| 41> 9       -5.307587000      0.004621000      0.344485000
| 42> 9       -4.349199000     -0.344521000     -1.568616000
| 43> *
| 44> 
| 45>                          ****END OF INPUT****
================================================================================

                       ****************************
                       * Single Point Calculation *
                       ****************************

---------------------------------
CARTESIAN COORDINATES (ANGSTROEM)
---------------------------------
  C      4.457775   -0.662862   -0.366731
  O      4.042301   -1.074161   -1.477432
  O      5.502853   -0.945419    0.259788
  C      3.547124    0.317219    0.315815
  C      2.243560    0.886030   -0.156325
  C      1.004242   -0.041565    0.094488
  C     -0.387246    0.671717    0.030861
  C     -1.590991   -0.320224   -0.135043
  C     -2.968291    0.298669    0.274497
  C     -4.214083   -0.485912   -0.248532
  F      3.773892    0.613502    1.609502
  F      1.987818    2.056514    0.519664
  F      2.279054    1.185633   -1.479259
  F      1.014327   -1.042942   -0.811758
  F      1.132863   -0.583629    1.331974
  F     -0.568593    1.379281    1.168674
  F     -0.403676    1.528642   -1.013377
  F     -1.380293   -1.412152    0.632492
  F     -1.655461   -0.710429   -1.426278
  F     -3.058116    1.560381   -0.201021
  F     -3.045720    0.334303    1.620221
  F     -4.116733   -1.787090    0.042719
  F     -5.307587    0.004621    0.344485
  F     -4.349199   -0.344521   -1.568616

----------------------------
CARTESIAN COORDINATES (A.U.)
----------------------------
  NO LB      ZA    FRAG     MASS         X           Y           Z
   0 C     6.0000    0    12.011    8.423974   -1.252628   -0.693021
   1 O     8.0000    0    15.999    7.638842   -2.029870   -2.791942
   2 O     8.0000    0    15.999   10.398885   -1.786583    0.490928
   3 C     6.0000    0    12.011    6.703093    0.599457    0.596804
   4 C     6.0000    0    12.011    4.239714    1.674354   -0.295411
   5 C     6.0000    0    12.011    1.897742   -0.078546    0.178556
   6 C     6.0000    0    12.011   -0.731789    1.269361    0.058319
   7 C     6.0000    0    12.011   -3.006537   -0.605136   -0.255194
   8 C     6.0000    0    12.011   -5.609257    0.564403    0.518724
   9 C     6.0000    0    12.011   -7.963463   -0.918241   -0.469657
  10 F     9.0000    0    18.998    7.131622    1.159351    3.041518
  11 F     9.0000    0    18.998    3.756432    3.886248    0.982023
  12 F     9.0000    0    18.998    4.306788    2.240522   -2.795394
  13 F     9.0000    0    18.998    1.916800   -1.970875   -1.534000
  14 F     9.0000    0    18.998    2.140801   -1.102899    2.517066
  15 F     9.0000    0    18.998   -1.074485    2.606463    2.208474
  16 F     9.0000    0    18.998   -0.762837    2.888715   -1.915005
  17 F     9.0000    0    18.998   -2.608376   -2.668581    1.195237
  18 F     9.0000    0    18.998   -3.128368   -1.342516   -2.695275
  19 F     9.0000    0    18.998   -5.779002    2.948693   -0.379875
  20 F     9.0000    0    18.998   -5.755577    0.631741    3.061774
  21 F     9.0000    0    18.998   -7.779498   -3.377111    0.080727
  22 F     9.0000    0    18.998  -10.029886    0.008732    0.650982
  23 F     9.0000    0    18.998   -8.218795   -0.651050   -2.964255

--------------------------------
INTERNAL COORDINATES (ANGSTROEM)
--------------------------------
 C      0   0   0     0.000000000000     0.00000000     0.00000000
 O      1   0   0     1.255166213486     0.00000000     0.00000000
 O      1   2   0     1.250820747227   130.22398131     0.00000000
 C      1   2   3     1.501903143508   114.53691403   180.40022874
 C      4   1   2     1.498579739426   129.19321453   358.48529197
 C      5   4   1     1.568199206134   114.36413838    82.28060081
 C      6   5   4     1.564946791682   115.25097766   161.93385632
 C      7   6   5     1.568589528756   113.47928679   163.07810720
 C      8   7   6     1.564514891923   113.43650961   160.64074039
 C      9   8   7     1.562409801450   114.56118208   163.35837888
 F      4   1   2     1.346415016212   118.56361245   167.34021525
 F      5   4   1     1.375644537277   109.25992805   201.04749026
 F      5   4   1     1.356899462009   111.60625089   319.45458109
 F      6   5   4     1.350607054576   108.98613429   284.16052842
 F      6   5   4     1.357110290998   107.89063103    41.61914380
 F      7   6   5     1.352091702317   108.87841081   283.99620594
 F      7   6   5     1.350934269744   109.35109984    42.35941714
 F      8   7   6     1.351225510643   109.34678199    40.09143751
 F      8   7   6     1.350445907154   108.69239971   281.82633067
 F      9   8   7     1.351333811422   109.61816566    42.64086719
 F      9   8   7     1.348420600619   108.79899360   283.74494367
 F     10   9   8     1.336924962436   110.96184327    50.45225384
 F     10   9   8     1.337177170159   108.62531544   169.83860626
 F     10   9   8     1.334492231297   111.01855300   289.04101840

---------------------------
INTERNAL COORDINATES (A.U.)
---------------------------
 C      0   0   0     0.000000000000     0.00000000     0.00000000
 O      1   0   0     2.371920396040     0.00000000     0.00000000
 O      1   2   0     2.363708654886   130.22398131     0.00000000
 C      1   2   3     2.838185620905   114.53691403   180.40022874
 C      4   1   2     2.831905297358   129.19321453   358.48529197
 C      5   4   1     2.963467023025   114.36413838    82.28060081
 C      6   5   4     2.957320850438   115.25097766   161.93385632
 C      7   6   5     2.964204625885   113.47928679   163.07810720
 C      8   7   6     2.956504678176   113.43650961   160.64074039
 C      9   8   7     2.952526633694   114.56118208   163.35837888
 F      4   1   2     2.544355643240   118.56361245   167.34021525
 F      5   4   1     2.599591433079   109.25992805   201.04749026
 F      5   4   1     2.564168374463   111.60625089   319.45458109
 F      6   5   4     2.552277447690   108.98613429   284.16052842
 F      6   5   4     2.564566783513   107.89063103    41.61914380
 F      7   6   5     2.555083025326   108.87841081   283.99620594
 F      7   6   5     2.552895794745   109.35109984    42.35941714
 F      8   7   6     2.553446160284   109.34678199    40.09143751
 F      8   7   6     2.551972923197   108.69239971   281.82633067
 F      9   8   7     2.553650819096   109.61816566    42.64086719
 F      9   8   7     2.548145648507   108.79899360   283.74494367
 F     10   9   8     2.526422040607   110.96184327    50.45225384
 F     10   9   8     2.526898644132   108.62531544   169.83860626
 F     10   9   8     2.521824844997   111.01855300   289.04101840

---------------------
BASIS SET INFORMATION
---------------------
There are 3 groups of distinct atoms

 Group   1 Type C   : 11s6p2d1f contracted to 5s3p2d1f pattern {62111/411/11/1}
 Group   2 Type O   : 11s6p2d1f contracted to 5s3p2d1f pattern {62111/411/11/1}
 Group   3 Type F   : 11s6p2d1f contracted to 5s3p2d1f pattern {62111/411/11/1}

Atom   0C    basis set group =>   1
Atom   1O    basis set group =>   2
Atom   2O    basis set group =>   2
Atom   3C    basis set group =>   1
Atom   4C    basis set group =>   1
Atom   5C    basis set group =>   1
Atom   6C    basis set group =>   1
Atom   7C    basis set group =>   1
Atom   8C    basis set group =>   1
Atom   9C    basis set group =>   1
Atom  10F    basis set group =>   3
Atom  11F    basis set group =>   3
Atom  12F    basis set group =>   3
Atom  13F    basis set group =>   3
Atom  14F    basis set group =>   3
Atom  15F    basis set group =>   3
Atom  16F    basis set group =>   3
Atom  17F    basis set group =>   3
Atom  18F    basis set group =>   3
Atom  19F    basis set group =>   3
Atom  20F    basis set group =>   3
Atom  21F    basis set group =>   3
Atom  22F    basis set group =>   3
Atom  23F    basis set group =>   3
---------------------------------
AUXILIARY/J BASIS SET INFORMATION
---------------------------------
There are 3 groups of distinct atoms

 Group   1 Type C   : 12s5p4d2f1g contracted to 6s4p3d1f1g pattern {711111/2111/211/2/1}
 Group   2 Type O   : 12s5p4d2f1g contracted to 6s4p3d1f1g pattern {711111/2111/211/2/1}
 Group   3 Type F   : 12s5p4d2f1g contracted to 6s4p3d1f1g pattern {711111/2111/211/2/1}

Atom   0C    basis set group =>   1
Atom   1O    basis set group =>   2
Atom   2O    basis set group =>   2
Atom   3C    basis set group =>   1
Atom   4C    basis set group =>   1
Atom   5C    basis set group =>   1
Atom   6C    basis set group =>   1
Atom   7C    basis set group =>   1
Atom   8C    basis set group =>   1
Atom   9C    basis set group =>   1
Atom  10F    basis set group =>   3
Atom  11F    basis set group =>   3
Atom  12F    basis set group =>   3
Atom  13F    basis set group =>   3
Atom  14F    basis set group =>   3
Atom  15F    basis set group =>   3
Atom  16F    basis set group =>   3
Atom  17F    basis set group =>   3
Atom  18F    basis set group =>   3
Atom  19F    basis set group =>   3
Atom  20F    basis set group =>   3
Atom  21F    basis set group =>   3
Atom  22F    basis set group =>   3
Atom  23F    basis set group =>   3


           ************************************************************
           *        Program running with 20 parallel MPI-processes    *
           *              working on a common directory               *
           ************************************************************
------------------------------------------------------------------------------
                             ORCA STARTUP CALCULATIONS
                           -- RI-GTO INTEGRALS CHOSEN --
------------------------------------------------------------------------------
------------------------------------------------------------------------------
                   ___                                                        
                  /   \      - P O W E R E D   B Y -                         
                 /     \                                                     
                 |  |  |   _    _      __       _____    __    __             
                 |  |  |  | |  | |    /  \     |  _  \  |  |  /  |          
                  \  \/   | |  | |   /    \    | | | |  |  | /  /          
                 / \  \   | |__| |  /  /\  \   | |_| |  |  |/  /          
                |  |  |   |  __  | /  /__\  \  |    /   |      \           
                |  |  |   | |  | | |   __   |  |    \   |  |\   \          
                \     /   | |  | | |  |  |  |  | |\  \  |  | \   \       
                 \___/    |_|  |_| |__|  |__|  |_| \__\ |__|  \__/        
                                                                              
                      - O R C A' S   B I G   F R I E N D -                    
                                      &                                       
                       - I N T E G R A L  F E E D E R -                       
                                                                              
 v1 FN, 2020, v2 2021, v3 2022-2024                                           
------------------------------------------------------------------------------


----------------------
SHARK INTEGRAL PACKAGE
----------------------

Number of atoms                             ...     24
Number of basis functions                   ...    744
Number of shells                            ...    264
Maximum angular momentum                    ...      3
Integral batch strategy                     ... SHARK/LIBINT Hybrid
RI-J (if used) integral strategy            ... SPLIT-RIJ (Revised 2003 algorithm where possible)
Printlevel                                  ...      1
Contraction scheme used                     ... SEGMENTED contraction
Prescreening option                         ... SCHWARTZ
   Thresh                                   ... 2.500e-11
   Tcut                                     ... 2.500e-12
   Tpresel                                  ... 2.500e-12 
Coulomb Range Separation                    ... NOT USED
Exchange Range Separation                   ... NOT USED
Multipole approximations                    ... NOT USED
Finite Nucleus Model                        ... NOT USED
CABS basis                                  ... NOT available
Auxiliary Coulomb fitting basis             ... AVAILABLE
   # of basis functions in Aux-J            ...   1176
   # of shells in Aux-J                     ...    360
   Maximum angular momentum in Aux-J        ...      4
Auxiliary J/K fitting basis                 ... NOT available
Auxiliary Correlation fitting basis         ... NOT available
Auxiliary 'external' fitting basis          ... NOT available

Checking pre-screening integrals            ... done (  0.0 sec) Dimension = 264
Check shell pair data                       ... done (  0.0 sec)
Shell pair information
Shell pair cut-off parameter TPreSel        ...   2.5e-12
Total number of shell pairs                 ...     34980
Shell pairs after pre-screening             ...     22054
Total number of primitive shell pairs       ...    115968
Primitive shell pairs kept                  ...     46855
          la=0 lb=0:   4113 shell pairs
          la=1 lb=0:   5996 shell pairs
          la=1 lb=1:   2097 shell pairs
          la=2 lb=0:   3277 shell pairs
          la=2 lb=1:   2425 shell pairs
          la=2 lb=2:    686 shell pairs
          la=3 lb=0:   1500 shell pairs
          la=3 lb=1:   1177 shell pairs
          la=3 lb=2:    631 shell pairs
          la=3 lb=3:    152 shell pairs

Calculating one electron integrals          ... done (  0.0 sec)
Calculating RI/J V-Matrix + Cholesky decomp.... done (  0.1 sec)
Calculating Nuclear repulsion               ... done (  0.0 sec) ENN=   2646.548565201917 Eh

Diagonalization of the overlap matrix:
Smallest eigenvalue                        ... 6.509e-05
Time for diagonalization                   ...    0.095 sec
Threshold for overlap eigenvalues          ... 1.000e-07
Number of eigenvalues below threshold      ... 0
Time for construction of square roots      ...    0.041 sec
Total time needed                          ...    0.140 sec

-------------------
DFT GRID GENERATION
-------------------

General Integration Accuracy     IntAcc      ... 4.388
Radial Grid Type                 RadialGrid  ... OptM3 with GC (2021)
Angular Grid (max. ang.)         AngularGrid ... 4 (Lebedev-302)
Angular grid pruning method      GridPruning ... 4 (adaptive)
Weight generation scheme         WeightScheme... mBecke (2022)
Basis function cutoff            BFCut       ... 1.0000e-11
Integration weight cutoff        WCut        ... 1.0000e-14
Partially contracted basis set               ... off
Rotationally invariant grid construction     ... off
Angular grids for H and He will be reduced by one unit

Total number of grid points                  ...   145433
Total number of batches                      ...     2282
Average number of points per batch           ...       63
Average number of grid points per atom       ...     6060

--------------------
COSX GRID GENERATION
--------------------

GRIDX 1
-------
General Integration Accuracy     IntAcc      ... 3.816
Radial Grid Type                 RadialGrid  ... OptM3 with GC (2021)
Angular Grid (max. ang.)         AngularGrid ... 1 (Lebedev-50)
Angular grid pruning method      GridPruning ... 4 (adaptive)
Weight generation scheme         WeightScheme... mBecke (2022)
Basis function cutoff            BFCut       ... 1.0000e-11
Integration weight cutoff        WCut        ... 1.0000e-14
Partially contracted basis set               ... on
Rotationally invariant grid construction     ... off
Angular grids for H and He will be reduced by one unit

Total number of grid points                  ...    18257
Total number of batches                      ...      153
Average number of points per batch           ...      119
Average number of grid points per atom       ...      761
UseSFitting                                  ... on

GRIDX 2
-------
General Integration Accuracy     IntAcc      ... 4.020
Radial Grid Type                 RadialGrid  ... OptM3 with GC (2021)
Angular Grid (max. ang.)         AngularGrid ... 2 (Lebedev-110)
Angular grid pruning method      GridPruning ... 4 (adaptive)
Weight generation scheme         WeightScheme... mBecke (2022)
Basis function cutoff            BFCut       ... 1.0000e-11
Integration weight cutoff        WCut        ... 1.0000e-14
Partially contracted basis set               ... on
Rotationally invariant grid construction     ... off
Angular grids for H and He will be reduced by one unit

Total number of grid points                  ...    43304
Total number of batches                      ...      353
Average number of points per batch           ...      122
Average number of grid points per atom       ...     1804
UseSFitting                                  ... on

GRIDX 3
-------
General Integration Accuracy     IntAcc      ... 4.338
Radial Grid Type                 RadialGrid  ... OptM3 with GC (2021)
Angular Grid (max. ang.)         AngularGrid ... 3 (Lebedev-194)
Angular grid pruning method      GridPruning ... 4 (adaptive)
Weight generation scheme         WeightScheme... mBecke (2022)
Basis function cutoff            BFCut       ... 1.0000e-11
Integration weight cutoff        WCut        ... 1.0000e-14
Partially contracted basis set               ... on
Rotationally invariant grid construction     ... off
Angular grids for H and He will be reduced by one unit

Total number of grid points                  ...    95986
Total number of batches                      ...      760
Average number of points per batch           ...      126
Average number of grid points per atom       ...     3999
UseSFitting                                  ... on
Initializing property integral containers    ... done (  0.0 sec)

SHARK setup successfully completed in   2.9 seconds

Maximum memory used throughout the entire STARTUP-calculation: 57.2 MB


           ************************************************************
           *        Program running with 20 parallel MPI-processes    *
           *              working on a common directory               *
           ************************************************************
-------------------------------------------------------------------------------
                                 ORCA GUESS
                   Start orbitals & Density for SCF / CASSCF
-------------------------------------------------------------------------------

------------
SCF SETTINGS
------------
Hamiltonian:
 Density Functional     Method          .... DFT(GTOs)
 Exchange Functional    Exchange        .... TPSS
 Correlation Functional Correlation     .... TPSS
 LDA part of GGA corr.  LDAOpt          .... PW91-LDA
 Gradients option       PostSCFGGA      .... off
 Hybrid DFT is turned on
   Fraction HF Exchange ScalHFX         ....  0.100000
   Scaling of DF-GGA-X  ScalDFX         ....  0.900000
   Scaling of DF-GGA-C  ScalDFC         ....  1.000000
   Scaling of DF-LDA-C  ScalLDAC        ....  1.000000
   Perturbative correction              ....  0.000000
   NL short-range parameter             ....  5.200000
 RI-approximation to the Coulomb term is turned on
   Number of AuxJ basis functions       .... 1176
   RIJ-COSX (HFX calculated with COS-X)).... on


General Settings:
 Integral files         IntName         .... rf_mecn_freq_TP_C2_D_B
 Hartree-Fock type      HFTyp           .... UHF
 Total Charge           Charge          ....   -1
 Multiplicity           Mult            ....    2
 Number of Electrons    NEL             ....  191
 Basis Dimension        Dim             ....  744
 Nuclear Repulsion      ENuc            ....   2646.5485652019 Eh

Convergence Acceleration:
 AO-DIIS                CNVDIIS         .... on
   Start iteration      DIISMaxIt       ....     0
   Startup error        DIISStart       ....  0.200000
   # of expansion vecs  DIISMaxEq       ....     5
   Bias factor          DIISBfac        ....   1.050
   Max. coefficient     DIISMaxC        ....  10.000
 MO-DIIS                CNVKDIIS        .... off
 Trust-Rad. Augm. Hess. CNVTRAH         .... auto
   Auto Start mean grad. ratio tolernc. ....  1.125000
   Auto Start start iteration           ....    50
   Auto Start num. interpolation iter.  ....    10
   Max. Number of Micro iterations      ....    24
   Max. Number of Macro iterations      .... Maxiter - #DIIS iter
   Number of Davidson start vectors     ....     2
   Converg. threshold    (grad. norm)   ....   1.000e-05
   Grad. Scal. Fac. for Micro threshold ....   0.100
   Minimum threshold for Micro iter.    ....   1.000e-02
   NR start threshold (gradient norm)   ....   1.000e-04
   Initial trust radius                 ....   0.400
   Minimum AH scaling param. (alpha)    ....   1.000
   Maximum AH scaling param. (alpha)    .... 1000.000
   Quad. conv. algorithm                .... NR
   White noise on init. David. guess    .... on
   Maximum white noise                  ....   0.010
   Pseudo random numbers                .... off
   Inactive MOs                         .... canonical
   Orbital update algorithm             .... Taylor
   Preconditioner                       .... Diag
   Full preconditioner red. dimension   ....   250
 SOSCF                  CNVSOSCF        .... on
   Start iteration      SOSCFMaxIt      ....   150
   Startup grad/error   SOSCFStart      ....  0.001000
   Hessian update       SOSCFHessUp     .... L-BFGS
 Level Shifting         CNVShift        .... on
   Level shift para.    LevelShift      ....    0.2500
   Turn off err/grad.   ShiftErr        ....    0.0000
 Zerner damping         CNVZerner       .... off
 Static damping         CNVDamp         .... on
   Fraction old density DampFac         ....    0.8500
   Max. Damping (<1)    DampMax         ....    0.9800
   Min. Damping (>=0)   DampMin         ....    0.0000
   Turn off err/grad.   DampErr         ....    0.0300

SCF Procedure:
 Maximum # iterations   MaxIter         ....  1500
 SCF integral mode      SCFMode         .... Direct
   Integral package                     .... SHARK and LIBINT hybrid scheme
 Reset frequency        DirectResetFreq ....    20
 Integral Threshold     Thresh          ....  2.500e-11 Eh
 Primitive CutOff       TCut            ....  2.500e-12 Eh

Convergence Tolerance:
 Convergence Check Mode ConvCheckMode   .... Total+1el-Energy
 Convergence forced     ConvForced      .... 0
 Energy Change          TolE            ....  1.000e-08 Eh
 1-El. energy change                    ....  1.000e-05 Eh
 Orbital Gradient       TolG            ....  1.000e-05
 Orbital Rotation angle TolX            ....  1.000e-05
 DIIS Error             TolErr          ....  5.000e-07

------------------------------
INITIAL GUESS: MODEL POTENTIAL
------------------------------
Loading Hartree-Fock densities                     ... done
Calculating cut-offs                               ... done
Initializing the effective Hamiltonian             ... done
Setting up the integral package (SHARK)            ... done
Starting the Coulomb interaction                   ... done (   0.1 sec)
Making the grid                                    ... done (   0.5 sec)
Mapping shells                                     ... done
Starting the XC term evaluation                    ... done (   0.1 sec)
  promolecular density results
     # of electrons  =    190.000087641
     EX              =   -197.186553658
     EC              =     -6.670903309
     EX+EC           =   -203.857456966
Transforming the Hamiltonian                       ... done (   0.0 sec)
Diagonalizing the Hamiltonian                      ... done (   0.1 sec)
Back transforming the eigenvectors                 ... done (   0.0 sec)
Now organizing SCF variables                       ... done
                      ------------------
                      INITIAL GUESS DONE (   1.0 sec)
                      ------------------
             **** ENERGY FILE WAS UPDATED (rf_mecn_freq_TP_C2_D_B.en.tmp) ****
Finished Guess after   1.7 sec
Maximum memory used throughout the entire GUESS-calculation: 45.8 MB


           ************************************************************
           *        Program running with 20 parallel MPI-processes    *
           *              working on a common directory               *
           ************************************************************

-------------------------------------------------------------------------------------------
                                      ORCA LEAN-SCF
                              memory conserving SCF solver
-------------------------------------------------------------------------------------------

--------------------
CPCM SOLVATION MODEL
--------------------
CPCM parameters:
  Epsilon                                         ...      35.6880
  Refrac                                          ...       1.3442
  Rsolv                                           ...       1.3000
  Surface type                                    ... GAUSSIAN VDW
  Discretization scheme                           ... Constant charge density
    Threshold for H atoms                         ...       5.0000 (charges/Ang^2)
    Threshold for non-H atoms                     ...       5.0000 (charges/Ang^2)
  Epsilon function type                           ...         CPCM
Solvent:                                          ... ACETONITRILE
SMD-CDS solvent descriptors:
  Soln                                            ...       1.3442
  Soln25                                          ...       1.3416
  Sola                                            ...       0.0700
  Solb                                            ...       0.3200
  Solg                                            ...      41.2500
  Solc                                            ...       0.0000
  Solh                                            ...       0.0000
Radii:
  Scheme                                          ... Element-dependent radii
  Radius for C  used is    3.4960 Bohr (=   1.8500 Ang.)
  Radius for O  used is    4.0969 Bohr (=   2.1680 Ang.)
  Radius for F  used is    3.2692 Bohr (=   1.7300 Ang.)
Calculating surface                               ...        done! (  0.0s)
Cavity surface points                             ...         2112
Cavity Volume                                     ...    2109.9635
Cavity Surface-area                               ...    1096.6016
Calculating surface distance matrix               ...        done! (  0.0s)
Performing Cholesky decomposition & store         ...        done! (  0.1s)
Overall time for CPCM initialization              ...                 0.1s

----------------------------------------D-I-I-S--------------------------------------------
Iteration    Energy (Eh)           Delta-E    RMSDP     MaxDP     DIISErr   Damp  Time(sec)
-------------------------------------------------------------------------------------------
               ***  Starting incremental Fock matrix formation  ***
    1    -1853.4525962849556890     0.00e+00  3.80e-04  7.55e-02  1.61e-01  0.850   6.6
Warning: op=0 Small HOMO/LUMO gap (   0.004) - skipping pre-diagonalization
         Will do a full diagonalization
    2    -1853.6021828866159922    -1.50e-01  5.73e-04  1.40e-01  1.10e-01  0.850   4.7
                               ***Turning on AO-DIIS***
    3    -1853.6822060910890286    -8.00e-02  2.25e-04  4.94e-02  6.47e-02  0.850   4.8
    4    -1853.7292296488612919    -4.70e-02  9.19e-05  1.05e-02  4.75e-02  0.850   4.4
    5    -1853.7625936032482059    -3.34e-02  5.91e-05  4.83e-03  3.91e-02  0.850   4.3
    6    -1853.7890315155536882    -2.64e-02  5.24e-05  7.91e-03  3.37e-02  0.850   4.4
    7    -1853.8110865939197538    -2.21e-02  4.68e-05  7.53e-03  2.92e-02  0.850   4.2
    8    -1853.8298725377680967    -1.88e-02  2.71e-04  3.96e-02  2.47e-02  0.000   4.4
    9    -1853.9295168360977186    -9.96e-02  3.32e-05  3.82e-03  4.55e-03  0.000   4.7
   10    -1853.9297937952296706    -2.77e-04  1.61e-05  2.30e-03  2.48e-03  0.000   4.1
                              *** Initializing SOSCF ***
---------------------------------------S-O-S-C-F--------------------------------------
Iteration    Energy (Eh)           Delta-E    RMSDP     MaxDP     MaxGrad    Time(sec)
--------------------------------------------------------------------------------------
   11    -1853.9298936796030830    -9.99e-05  1.09e-05  1.18e-03  9.11e-04     4.5
               *** Restarting incremental Fock matrix formation ***
   12    -1853.9299231081477046    -2.94e-05  1.95e-05  2.68e-03  1.42e-03     8.0
   13    -1853.9299572464860830    -3.41e-05  2.09e-05  2.94e-03  4.76e-04     5.0
   14    -1853.9299475996058391     9.65e-06  1.12e-05  1.42e-03  1.07e-03     5.1
   15    -1853.9299657446654237    -1.81e-05  6.16e-06  1.26e-03  1.54e-04     4.6
   16    -1853.9299641012803477     1.64e-06  3.67e-06  6.78e-04  1.88e-04     4.8
   17    -1853.9299669774109134    -2.88e-06  1.13e-06  2.11e-04  2.50e-05     4.7
   18    -1853.9299669713072944     6.10e-09  4.48e-07  6.55e-05  3.22e-05     3.8
                 **** Energy Check signals convergence ****

               *****************************************************
               *                     SUCCESS                       *
               *           SCF CONVERGED AFTER  18 CYCLES          *
               *****************************************************

Recomputing exchange energy using gridx3       ... done (    8.624 sec)
Old exchange energy                            :    -19.903946454 Eh
New exchange energy                            :    -19.903951872 Eh
Exchange energy change after final integration :     -0.000005418 Eh
Total energy after final integration           :  -1853.929972390 Eh

SMD CDS free energy correction energy :                 3.24037     Kcal/mol
Total Energy after SMD CDS correction =             -1853.924808537 Eh
             **** ENERGY FILE WAS UPDATED (rf_mecn_freq_TP_C2_D_B.en.tmp) ****

----------------
TOTAL SCF ENERGY
----------------

Total Energy       :      -1853.92480853679581 Eh          -50447.85876 eV

Components:
Nuclear Repulsion  :       2646.54856520191697 Eh           72016.24769 eV
Electronic Energy  :      -4500.39615423236501 Eh         -122462.00520 eV
One Electron Energy:      -7867.70115365630954 Eh         -214091.03257 eV
Two Electron Energy:       3367.30499942394499 Eh           91629.02736 eV
CPCM Dielectric    :         -0.08237794085909 Eh              -2.24162 eV
SMD CDS (Gcds)     :          0.00516385275827 Eh               0.14052 eV

Virial components:
Potential Energy   :      -3701.57597461674231 Eh         -100725.00303 eV
Kinetic Energy     :       1847.65116607994651 Eh           50277.14427 eV
Virial Ratio       :          2.00339546910803

DFT components:
N(Alpha)           :       95.999987845220 electrons
N(Beta)            :       94.999977280093 electrons
N(Total)           :      190.999965125313 electrons
E(X)               :     -180.881183446275 Eh       
E(C)               :       -6.718426669821 Eh       
E(XC)              :     -187.599610116096 Eh       

CPCM Solvation Model Properties:
Surface-charge          :          0.98986151492109
Corrected charge        :          1.00000000000000
Outlying charge corr.   :          0.00000566552297 Eh               0.00015 eV
Free-energy (cav+disp)  :          0.00516385275827 Eh               0.14052 eV

---------------
SCF CONVERGENCE
---------------

  Last Energy change         ...   -6.1036e-09  Tolerance :   1.0000e-08
  Last MAX-Density change    ...    6.5515e-05  Tolerance :   1.0000e-07
  Last RMS-Density change    ...    4.4818e-07  Tolerance :   5.0000e-09
  Last DIIS Error            ...    9.1124e-04  Tolerance :   5.0000e-07
  Last Orbital Gradient      ...    3.2154e-05  Tolerance :   1.0000e-05
  Last Orbital Rotation      ...    9.4005e-05  Tolerance :   1.0000e-05


----------------------
UHF SPIN CONTAMINATION
----------------------

Warning: in a DFT calculation there is little theoretical justification to 
         calculate <S**2> as in Hartree-Fock theory. We will do it anyways
         but you should keep in mind that the values have only limited relevance

Expectation value of <S**2>     :     0.756520
Ideal value S*(S+1) for S=0.5   :     0.750000
Deviation                       :     0.006520

----------------
ORBITAL ENERGIES
----------------
                 SPIN UP ORBITALS
  NO   OCC          E(Eh)            E(eV) 
   0   1.0000     -24.660370      -671.0428 
   1   1.0000     -24.659311      -671.0140 
   2   1.0000     -24.658740      -670.9984 
   3   1.0000     -24.658471      -670.9911 
   4   1.0000     -24.657678      -670.9695 
   5   1.0000     -24.657446      -670.9632 
   6   1.0000     -24.657377      -670.9614 
   7   1.0000     -24.653549      -670.8572 
   8   1.0000     -24.653341      -670.8515 
   9   1.0000     -24.645834      -670.6472 
  10   1.0000     -24.645724      -670.6442 
  11   1.0000     -24.629474      -670.2021 
  12   1.0000     -24.629229      -670.1954 
  13   1.0000     -24.624562      -670.0684 
  14   1.0000     -18.981226      -516.5054 
  15   1.0000     -18.978871      -516.4413 
  16   1.0000     -10.394770      -282.8561 
  17   1.0000     -10.342222      -281.4262 
  18   1.0000     -10.341994      -281.4200 
  19   1.0000     -10.337328      -281.2930 
  20   1.0000     -10.326064      -280.9865 
  21   1.0000     -10.313011      -280.6313 
  22   1.0000     -10.209252      -277.8079 
  23   1.0000     -10.185915      -277.1728 
  24   1.0000      -1.321352       -35.9558 
  25   1.0000      -1.296270       -35.2733 
  26   1.0000      -1.280668       -34.8487 
  27   1.0000      -1.274636       -34.6846 
  28   1.0000      -1.267542       -34.4916 
  29   1.0000      -1.249572       -34.0026 
  30   1.0000      -1.236345       -33.6427 
  31   1.0000      -1.230491       -33.4834 
  32   1.0000      -1.228787       -33.4370 
  33   1.0000      -1.222117       -33.2555 
  34   1.0000      -1.218908       -33.1682 
  35   1.0000      -1.214600       -33.0509 
  36   1.0000      -1.210112       -32.9288 
  37   1.0000      -1.192016       -32.4364 
  38   1.0000      -0.988571       -26.9004 
  39   1.0000      -0.905338       -24.6355 
  40   1.0000      -0.821085       -22.3429 
  41   1.0000      -0.798815       -21.7369 
  42   1.0000      -0.772495       -21.0207 
  43   1.0000      -0.732469       -19.9315 
  44   1.0000      -0.686406       -18.6781 
  45   1.0000      -0.658502       -17.9188 
  46   1.0000      -0.637049       -17.3350 
  47   1.0000      -0.620740       -16.8912 
  48   1.0000      -0.615950       -16.7608 
  49   1.0000      -0.608956       -16.5705 
  50   1.0000      -0.597296       -16.2533 
  51   1.0000      -0.594045       -16.1648 
  52   1.0000      -0.591767       -16.1028 
  53   1.0000      -0.579625       -15.7724 
  54   1.0000      -0.574962       -15.6455 
  55   1.0000      -0.566246       -15.4083 
  56   1.0000      -0.565549       -15.3894 
  57   1.0000      -0.555398       -15.1131 
  58   1.0000      -0.546048       -14.8587 
  59   1.0000      -0.540290       -14.7020 
  60   1.0000      -0.516176       -14.0459 
  61   1.0000      -0.485310       -13.2059 
  62   1.0000      -0.480708       -13.0807 
  63   1.0000      -0.475663       -12.9434 
  64   1.0000      -0.471184       -12.8216 
  65   1.0000      -0.468957       -12.7610 
  66   1.0000      -0.468415       -12.7462 
  67   1.0000      -0.461004       -12.5445 
  68   1.0000      -0.456795       -12.4300 
  69   1.0000      -0.453860       -12.3502 
  70   1.0000      -0.448928       -12.2160 
  71   1.0000      -0.445664       -12.1271 
  72   1.0000      -0.441873       -12.0240 
  73   1.0000      -0.433461       -11.7951 
  74   1.0000      -0.432086       -11.7576 
  75   1.0000      -0.430426       -11.7125 
  76   1.0000      -0.422761       -11.5039 
  77   1.0000      -0.422293       -11.4912 
  78   1.0000      -0.418755       -11.3949 
  79   1.0000      -0.416738       -11.3400 
  80   1.0000      -0.412938       -11.2366 
  81   1.0000      -0.412124       -11.2145 
  82   1.0000      -0.410652       -11.1744 
  83   1.0000      -0.407719       -11.0946 
  84   1.0000      -0.403655       -10.9840 
  85   1.0000      -0.394308       -10.7297 
  86   1.0000      -0.392077       -10.6690 
  87   1.0000      -0.379518       -10.3272 
  88   1.0000      -0.369718       -10.0605 
  89   1.0000      -0.367376        -9.9968 
  90   1.0000      -0.353382        -9.6160 
  91   1.0000      -0.320651        -8.7254 
  92   1.0000      -0.229996        -6.2585 
  93   1.0000      -0.221750        -6.0341 
  94   1.0000      -0.212196        -5.7742 
  95   1.0000      -0.203922        -5.5490 
  96   0.0000      -0.012038        -0.3276 
  97   0.0000      -0.002770        -0.0754 
  98   0.0000       0.027319         0.7434 
  99   0.0000       0.043795         1.1917 
 100   0.0000       0.072988         1.9861 
 101   0.0000       0.077519         2.1094 
 102   0.0000       0.099063         2.6956 
 103   0.0000       0.103344         2.8121 
 104   0.0000       0.108495         2.9523 
 105   0.0000       0.122757         3.3404 
 106   0.0000       0.137574         3.7436 

                 SPIN DOWN ORBITALS
  NO   OCC          E(Eh)            E(eV) 
   0   1.0000     -24.660370      -671.0428 
   1   1.0000     -24.659310      -671.0139 
   2   1.0000     -24.658741      -670.9984 
   3   1.0000     -24.658466      -670.9910 
   4   1.0000     -24.657674      -670.9694 
   5   1.0000     -24.657445      -670.9632 
   6   1.0000     -24.657380      -670.9614 
   7   1.0000     -24.653539      -670.8569 
   8   1.0000     -24.653346      -670.8517 
   9   1.0000     -24.645801      -670.6464 
  10   1.0000     -24.645708      -670.6438 
  11   1.0000     -24.629045      -670.1904 
  12   1.0000     -24.628786      -670.1833 
  13   1.0000     -24.620606      -669.9608 
  14   1.0000     -18.979002      -516.4449 
  15   1.0000     -18.977719      -516.4100 
  16   1.0000     -10.394761      -282.8558 
  17   1.0000     -10.342196      -281.4255 
  18   1.0000     -10.341932      -281.4183 
  19   1.0000     -10.337148      -281.2881 
  20   1.0000     -10.325262      -280.9647 
  21   1.0000     -10.313787      -280.6524 
  22   1.0000     -10.194888      -277.4170 
  23   1.0000     -10.187053      -277.2038 
  24   1.0000      -1.321347       -35.9557 
  25   1.0000      -1.296205       -35.2715 
  26   1.0000      -1.280561       -34.8458 
  27   1.0000      -1.274599       -34.6836 
  28   1.0000      -1.267363       -34.4867 
  29   1.0000      -1.248436       -33.9717 
  30   1.0000      -1.236341       -33.6425 
  31   1.0000      -1.230485       -33.4832 
  32   1.0000      -1.228761       -33.4363 
  33   1.0000      -1.222050       -33.2537 
  34   1.0000      -1.218781       -33.1647 
  35   1.0000      -1.211810       -32.9750 
  36   1.0000      -1.205805       -32.8116 
  37   1.0000      -1.190614       -32.3982 
  38   1.0000      -0.985966       -26.8295 
  39   1.0000      -0.901852       -24.5406 
  40   1.0000      -0.820613       -22.3300 
  41   1.0000      -0.796398       -21.6711 
  42   1.0000      -0.767012       -20.8715 
  43   1.0000      -0.726088       -19.7579 
  44   1.0000      -0.681222       -18.5370 
  45   1.0000      -0.655969       -17.8498 
  46   1.0000      -0.631545       -17.1852 
  47   1.0000      -0.620570       -16.8866 
  48   1.0000      -0.615308       -16.7434 
  49   1.0000      -0.608909       -16.5693 
  50   1.0000      -0.596897       -16.2424 
  51   1.0000      -0.592982       -16.1358 
  52   1.0000      -0.591007       -16.0821 
  53   1.0000      -0.579189       -15.7605 
  54   1.0000      -0.574402       -15.6303 
  55   1.0000      -0.565302       -15.3826 
  56   1.0000      -0.563135       -15.3237 
  57   1.0000      -0.554543       -15.0899 
  58   1.0000      -0.545079       -14.8323 
  59   1.0000      -0.538080       -14.6419 
  60   1.0000      -0.513332       -13.9685 
  61   1.0000      -0.485208       -13.2032 
  62   1.0000      -0.480626       -13.0785 
  63   1.0000      -0.475614       -12.9421 
  64   1.0000      -0.470596       -12.8056 
  65   1.0000      -0.468921       -12.7600 
  66   1.0000      -0.464003       -12.6262 
  67   1.0000      -0.457213       -12.4414 
  68   1.0000      -0.453866       -12.3503 
  69   1.0000      -0.448799       -12.2124 
  70   1.0000      -0.445618       -12.1259 
  71   1.0000      -0.445306       -12.1174 
  72   1.0000      -0.437672       -11.9097 
  73   1.0000      -0.433110       -11.7855 
  74   1.0000      -0.429362       -11.6835 
  75   1.0000      -0.426376       -11.6023 
  76   1.0000      -0.422279       -11.4908 
  77   1.0000      -0.422218       -11.4891 
  78   1.0000      -0.417811       -11.3692 
  79   1.0000      -0.416611       -11.3366 
  80   1.0000      -0.412159       -11.2154 
  81   1.0000      -0.411876       -11.2077 
  82   1.0000      -0.409488       -11.1427 
  83   1.0000      -0.406889       -11.0720 
  84   1.0000      -0.403019       -10.9667 
  85   1.0000      -0.393419       -10.7055 
  86   1.0000      -0.391086       -10.6420 
  87   1.0000      -0.378281       -10.2936 
  88   1.0000      -0.367631       -10.0037 
  89   1.0000      -0.359566        -9.7843 
  90   1.0000      -0.351793        -9.5728 
  91   1.0000      -0.318519        -8.6673 
  92   1.0000      -0.218894        -5.9564 
  93   1.0000      -0.215255        -5.8574 
  94   1.0000      -0.207709        -5.6520 
  95   0.0000      -0.099839        -2.7168 
  96   0.0000      -0.009464        -0.2575 
  97   0.0000      -0.001507        -0.0410 
  98   0.0000       0.029978         0.8157 
  99   0.0000       0.047940         1.3045 
 100   0.0000       0.078600         2.1388 
 101   0.0000       0.083325         2.2674 
 102   0.0000       0.099797         2.7156 
 103   0.0000       0.105414         2.8685 
 104   0.0000       0.116865         3.1801 
 105   0.0000       0.125474         3.4143 
*Only the first 10 virtual orbitals were printed.

                    ********************************
                    * MULLIKEN POPULATION ANALYSIS *
                    ********************************

--------------------------------------------
MULLIKEN ATOMIC CHARGES AND SPIN POPULATIONS
--------------------------------------------
   0 C :    0.202773   -0.060763
   1 O :   -0.500864    0.081125
   2 O :   -0.509643    0.044841
   3 C :    0.062006    0.818903
   4 C :    0.370230   -0.014860
   5 C :    0.251973    0.036622
   6 C :    0.299504    0.007141
   7 C :    0.272125    0.002970
   8 C :    0.295511    0.000647
   9 C :    0.408115    0.000328
  10 F :   -0.177574    0.070693
  11 F :   -0.184867    0.006663
  12 F :   -0.165579    0.005928
  13 F :   -0.154675    0.000238
  14 F :   -0.166153   -0.000629
  15 F :   -0.153770    0.000142
  16 F :   -0.152535   -0.000181
  17 F :   -0.150774    0.000026
  18 F :   -0.150274    0.000076
  19 F :   -0.147833   -0.000010
  20 F :   -0.144592    0.000022
  21 F :   -0.135983   -0.000011
  22 F :   -0.133546    0.000090
  23 F :   -0.133575    0.000000
Sum of atomic charges         :   -1.0000000
Sum of atomic spin populations:    1.0000000

-----------------------------------------------------
MULLIKEN REDUCED ORBITAL CHARGES AND SPIN POPULATIONS
-----------------------------------------------------
CHARGE
  0 C s       :     2.986548  s :     2.986548
      pz      :     0.816600  p :     2.521791
      px      :     0.835903
      py      :     0.869287
      dz2     :     0.066050  d :     0.265112
      dxz     :     0.065046
      dyz     :     0.047042
      dx2y2   :     0.041066
      dxy     :     0.045909
      f0      :     0.003470  f :     0.023776
      f+1     :     0.006114
      f-1     :     0.002588
      f+2     :     0.004064
      f-2     :     0.003084
      f+3     :     0.002161
      f-3     :     0.002295

  1 O s       :     3.796631  s :     3.796631
      pz      :     1.403184  p :     4.675939
      px      :     1.672800
      py      :     1.599955
      dz2     :     0.009507  d :     0.026601
      dxz     :     0.006633
      dyz     :     0.006829
      dx2y2   :     0.001569
      dxy     :     0.002062
      f0      :     0.000503  f :     0.001693
      f+1     :     0.000365
      f-1     :     0.000322
      f+2     :     0.000187
      f-2     :     0.000240
      f+3     :     0.000042
      f-3     :     0.000034

  2 O s       :     3.794996  s :     3.794996
      pz      :     1.635281  p :     4.686302
      px      :     1.429294
      py      :     1.621727
      dz2     :     0.004165  d :     0.026627
      dxz     :     0.007615
      dyz     :     0.002717
      dx2y2   :     0.006572
      dxy     :     0.005558
      f0      :     0.000156  f :     0.001719
      f+1     :     0.000395
      f-1     :     0.000049
      f+2     :     0.000336
      f-2     :     0.000290
      f+3     :     0.000273
      f-3     :     0.000220

  3 C s       :     3.278840  s :     3.278840
      pz      :     0.642957  p :     2.490123
      px      :     0.902587
      py      :     0.944579
      dz2     :     0.032689  d :     0.151844
      dxz     :     0.046658
      dyz     :     0.038453
      dx2y2   :     0.020351
      dxy     :     0.013693
      f0      :     0.003429  f :     0.017187
      f+1     :     0.004179
      f-1     :     0.003952
      f+2     :     0.001291
      f-2     :     0.001595
      f+3     :     0.001223
      f-3     :     0.001519

  4 C s       :     3.042397  s :     3.042397
      pz      :     0.623289  p :     2.264038
      px      :     0.931228
      py      :     0.709521
      dz2     :     0.064665  d :     0.295999
      dxz     :     0.061375
      dyz     :     0.065247
      dx2y2   :     0.048145
      dxy     :     0.056565
      f0      :     0.003901  f :     0.027337
      f+1     :     0.004761
      f-1     :     0.007331
      f+2     :     0.002733
      f-2     :     0.002900
      f+3     :     0.003158
      f-3     :     0.002552

  5 C s       :     3.143070  s :     3.143070
      pz      :     0.591202  p :     2.275955
      px      :     0.948133
      py      :     0.736619
      dz2     :     0.077783  d :     0.300713
      dxz     :     0.062019
      dyz     :     0.058712
      dx2y2   :     0.040482
      dxy     :     0.061718
      f0      :     0.005326  f :     0.028289
      f+1     :     0.004231
      f-1     :     0.005762
      f+2     :     0.003512
      f-2     :     0.004726
      f+3     :     0.002594
      f-3     :     0.002138

  6 C s       :     3.124169  s :     3.124169
      pz      :     0.587128  p :     2.247294
      px      :     0.928726
      py      :     0.731439
      dz2     :     0.082079  d :     0.300666
      dxz     :     0.063732
      dyz     :     0.056346
      dx2y2   :     0.037502
      dxy     :     0.061007
      f0      :     0.006219  f :     0.028366
      f+1     :     0.003985
      f-1     :     0.004449
      f+2     :     0.004193
      f-2     :     0.005259
      f+3     :     0.002250
      f-3     :     0.002011

  7 C s       :     3.134889  s :     3.134889
      pz      :     0.604928  p :     2.262026
      px      :     0.933412
      py      :     0.723687
      dz2     :     0.073160  d :     0.302509
      dxz     :     0.064541
      dyz     :     0.065599
      dx2y2   :     0.039882
      dxy     :     0.059326
      f0      :     0.004360  f :     0.028451
      f+1     :     0.004730
      f-1     :     0.007208
      f+2     :     0.003114
      f-2     :     0.003695
      f+3     :     0.002921
      f-3     :     0.002423

  8 C s       :     3.104792  s :     3.104792
      pz      :     0.636788  p :     2.273945
      px      :     0.944632
      py      :     0.692524
      dz2     :     0.057619  d :     0.297225
      dxz     :     0.062760
      dyz     :     0.077003
      dx2y2   :     0.037304
      dxy     :     0.062538
      f0      :     0.003674  f :     0.028527
      f+1     :     0.005316
      f-1     :     0.008282
      f+2     :     0.002370
      f-2     :     0.002155
      f+3     :     0.004158
      f-3     :     0.002572

  9 C s       :     3.020786  s :     3.020786
      pz      :     0.665433  p :     2.168072
      px      :     0.805760
      py      :     0.696879
      dz2     :     0.068689  d :     0.362595
      dxz     :     0.071326
      dyz     :     0.087600
      dx2y2   :     0.062327
      dxy     :     0.072654
      f0      :     0.004881  f :     0.040431
      f+1     :     0.008555
      f-1     :     0.007873
      f+2     :     0.005093
      f-2     :     0.003070
      f+3     :     0.007281
      f-3     :     0.003678

 10 F s       :     3.913290  s :     3.913290
      pz      :     1.503113  p :     5.247806
      px      :     1.888100
      py      :     1.856593
      dz2     :     0.006955  d :     0.015791
      dxz     :     0.003719
      dyz     :     0.004194
      dx2y2   :     0.000406
      dxy     :     0.000517
      f0      :     0.000278  f :     0.000688
      f+1     :     0.000157
      f-1     :     0.000179
      f+2     :     0.000031
      f-2     :     0.000037
      f+3     :     0.000002
      f-3     :     0.000003

 11 F s       :     3.917609  s :     3.917609
      pz      :     1.794158  p :     5.252203
      px      :     1.894031
      py      :     1.564014
      dz2     :     0.001851  d :     0.014417
      dxz     :     0.001013
      dyz     :     0.004848
      dx2y2   :     0.003772
      dxy     :     0.002933
      f0      :     0.000074  f :     0.000638
      f+1     :     0.000008
      f-1     :     0.000111
      f+2     :     0.000164
      f-2     :     0.000085
      f+3     :     0.000095
      f-3     :     0.000100

 12 F s       :     3.912215  s :     3.912215
      pz      :     1.467018  p :     5.237371
      px      :     1.906713
      py      :     1.863640
      dz2     :     0.007524  d :     0.015295
      dxz     :     0.003385
      dyz     :     0.003704
      dx2y2   :     0.000300
      dxy     :     0.000382
      f0      :     0.000318  f :     0.000697
      f+1     :     0.000136
      f-1     :     0.000193
      f+2     :     0.000021
      f-2     :     0.000027
      f+3     :     0.000002
      f-3     :     0.000001

 13 F s       :     3.917243  s :     3.917243
      pz      :     1.688938  p :     5.220779
      px      :     1.900405
      py      :     1.631436
      dz2     :     0.002761  d :     0.015943
      dxz     :     0.001688
      dyz     :     0.006341
      dx2y2   :     0.002850
      dxy     :     0.002302
      f0      :     0.000080  f :     0.000711
      f+1     :     0.000016
      f-1     :     0.000204
      f+2     :     0.000198
      f-2     :     0.000102
      f+3     :     0.000053
      f-3     :     0.000058

 14 F s       :     3.918219  s :     3.918219
      pz      :     1.518781  p :     5.231670
      px      :     1.900692
      py      :     1.812197
      dz2     :     0.005965  d :     0.015571
      dxz     :     0.003123
      dyz     :     0.004841
      dx2y2   :     0.000785
      dxy     :     0.000857
      f0      :     0.000204  f :     0.000693
      f+1     :     0.000103
      f-1     :     0.000243
      f+2     :     0.000064
      f-2     :     0.000067
      f+3     :     0.000006
      f-3     :     0.000006

 15 F s       :     3.917980  s :     3.917980
      pz      :     1.569749  p :     5.219166
      px      :     1.893235
      py      :     1.756182
      dz2     :     0.004714  d :     0.015918
      dxz     :     0.002821
      dyz     :     0.005697
      dx2y2   :     0.001281
      dxy     :     0.001405
      f0      :     0.000136  f :     0.000707
      f+1     :     0.000074
      f-1     :     0.000258
      f+2     :     0.000107
      f-2     :     0.000100
      f+3     :     0.000016
      f-3     :     0.000015

 16 F s       :     3.917279  s :     3.917279
      pz      :     1.620393  p :     5.218584
      px      :     1.901931
      py      :     1.696260
      dz2     :     0.003729  d :     0.015961
      dxz     :     0.002204
      dyz     :     0.006336
      dx2y2   :     0.001926
      dxy     :     0.001766
      f0      :     0.000099  f :     0.000711
      f+1     :     0.000037
      f-1     :     0.000254
      f+2     :     0.000158
      f-2     :     0.000103
      f+3     :     0.000030
      f-3     :     0.000029

 17 F s       :     3.918626  s :     3.918626
      pz      :     1.743986  p :     5.215419
      px      :     1.889605
      py      :     1.581827
      dz2     :     0.002263  d :     0.016020
      dxz     :     0.001380
      dyz     :     0.005820
      dx2y2   :     0.003592
      dxy     :     0.002965
      f0      :     0.000080  f :     0.000710
      f+1     :     0.000011
      f-1     :     0.000152
      f+2     :     0.000192
      f-2     :     0.000106
      f+3     :     0.000083
      f-3     :     0.000087

 18 F s       :     3.918216  s :     3.918216
      pz      :     1.471883  p :     5.215302
      px      :     1.899902
      py      :     1.843517
      dz2     :     0.007260  d :     0.016045
      dxz     :     0.003495
      dyz     :     0.004321
      dx2y2   :     0.000439
      dxy     :     0.000530
      f0      :     0.000284  f :     0.000712
      f+1     :     0.000129
      f-1     :     0.000219
      f+2     :     0.000033
      f-2     :     0.000042
      f+3     :     0.000003
      f-3     :     0.000002

 19 F s       :     3.917815  s :     3.917815
      pz      :     1.833057  p :     5.213358
      px      :     1.897478
      py      :     1.482822
      dz2     :     0.002043  d :     0.015951
      dxz     :     0.000504
      dyz     :     0.004562
      dx2y2   :     0.005326
      dxy     :     0.003516
      f0      :     0.000078  f :     0.000709
      f+1     :     0.000005
      f-1     :     0.000120
      f+2     :     0.000168
      f-2     :     0.000044
      f+3     :     0.000126
      f-3     :     0.000169

 20 F s       :     3.915471  s :     3.915471
      pz      :     1.430145  p :     5.212289
      px      :     1.898765
      py      :     1.883380
      dz2     :     0.008585  d :     0.016108
      dxz     :     0.003880
      dyz     :     0.003319
      dx2y2   :     0.000172
      dxy     :     0.000151
      f0      :     0.000382  f :     0.000724
      f+1     :     0.000171
      f-1     :     0.000157
      f+2     :     0.000006
      f-2     :     0.000006
      f+3     :     0.000001
      f-3     :     0.000001

 21 F s       :     3.912725  s :     3.912725
      pz      :     1.864345  p :     5.206310
      px      :     1.887183
      py      :     1.454782
      dz2     :     0.002248  d :     0.016188
      dxz     :     0.000275
      dyz     :     0.003920
      dx2y2   :     0.006160
      dxy     :     0.003584
      f0      :     0.000073  f :     0.000760
      f+1     :     0.000010
      f-1     :     0.000143
      f+2     :     0.000135
      f-2     :     0.000023
      f+3     :     0.000155
      f-3     :     0.000221

 22 F s       :     3.911222  s :     3.911222
      pz      :     1.802378  p :     5.205350
      px      :     1.575412
      py      :     1.827560
      dz2     :     0.002169  d :     0.016207
      dxz     :     0.004662
      dyz     :     0.001510
      dx2y2   :     0.003916
      dxy     :     0.003949
      f0      :     0.000088  f :     0.000768
      f+1     :     0.000118
      f-1     :     0.000025
      f+2     :     0.000126
      f-2     :     0.000148
      f+3     :     0.000115
      f-3     :     0.000148

 23 F s       :     3.911371  s :     3.911371
      pz      :     1.442081  p :     5.205098
      px      :     1.882624
      py      :     1.880392
      dz2     :     0.008594  d :     0.016334
      dxz     :     0.003757
      dyz     :     0.003531
      dx2y2   :     0.000273
      dxy     :     0.000180
      f0      :     0.000384  f :     0.000773
      f+1     :     0.000178
      f-1     :     0.000178
      f+2     :     0.000018
      f-2     :     0.000013
      f+3     :     0.000001
      f-3     :     0.000001


SPIN
  0 C s       :    -0.016904  s :    -0.016904
      pz      :    -0.012172  p :    -0.055909
      px      :    -0.016183
      py      :    -0.027554
      dz2     :     0.000555  d :     0.010904
      dxz     :     0.004013
      dyz     :    -0.000790
      dx2y2   :     0.008035
      dxy     :    -0.000909
      f0      :     0.000150  f :     0.001146
      f+1     :     0.000004
      f-1     :     0.000108
      f+2     :     0.000346
      f-2     :     0.000061
      f+3     :     0.000118
      f-3     :     0.000360

  1 O s       :     0.003273  s :     0.003273
      pz      :     0.021916  p :     0.078017
      px      :     0.036838
      py      :     0.019264
      dz2     :    -0.000131  d :    -0.000119
      dxz     :    -0.000069
      dyz     :     0.000060
      dx2y2   :     0.000052
      dxy     :    -0.000031
      f0      :    -0.000018  f :    -0.000047
      f+1     :    -0.000014
      f-1     :    -0.000007
      f+2     :    -0.000005
      f-2     :    -0.000012
      f+3     :     0.000004
      f-3     :     0.000006

  2 O s       :     0.001954  s :     0.001954
      pz      :     0.005783  p :     0.043055
      px      :     0.010878
      py      :     0.026394
      dz2     :     0.000014  d :    -0.000141
      dxz     :    -0.000033
      dyz     :    -0.000015
      dx2y2   :    -0.000097
      dxy     :    -0.000009
      f0      :     0.000002  f :    -0.000027
      f+1     :    -0.000005
      f-1     :     0.000002
      f+2     :    -0.000005
      f-2     :    -0.000006
      f+3     :    -0.000012
      f-3     :    -0.000004

  3 C s       :     0.059202  s :     0.059202
      pz      :     0.083618  p :     0.757016
      px      :     0.189576
      py      :     0.483822
      dz2     :     0.002048  d :     0.004573
      dxz     :     0.001186
      dyz     :     0.001065
      dx2y2   :     0.001152
      dxy     :    -0.000878
      f0      :    -0.000361  f :    -0.001887
      f+1     :    -0.000090
      f-1     :    -0.000251
      f+2     :    -0.000156
      f-2     :    -0.000365
      f+3     :    -0.000111
      f-3     :    -0.000553

  4 C s       :    -0.017686  s :    -0.017686
      pz      :    -0.000982  p :    -0.019197
      px      :    -0.025652
      py      :     0.007438
      dz2     :     0.002552  d :     0.021098
      dxz     :    -0.000502
      dyz     :     0.000518
      dx2y2   :     0.012662
      dxy     :     0.005868
      f0      :     0.000060  f :     0.000925
      f+1     :     0.000090
      f-1     :    -0.000000
      f+2     :     0.000053
      f-2     :     0.000203
      f+3     :     0.000565
      f-3     :    -0.000046

  5 C s       :    -0.001628  s :    -0.001628
      pz      :     0.002221  p :     0.032953
      px      :     0.012440
      py      :     0.018293
      dz2     :     0.001014  d :     0.005305
      dxz     :     0.000148
      dyz     :     0.000141
      dx2y2   :     0.003674
      dxy     :     0.000328
      f0      :    -0.000002  f :    -0.000008
      f+1     :     0.000001
      f-1     :    -0.000016
      f+2     :    -0.000009
      f-2     :     0.000012
      f+3     :     0.000027
      f-3     :    -0.000021

  6 C s       :    -0.002497  s :    -0.002497
      pz      :     0.000586  p :     0.008525
      px      :     0.002209
      py      :     0.005730
      dz2     :     0.000183  d :     0.001092
      dxz     :    -0.000001
      dyz     :     0.000070
      dx2y2   :     0.000703
      dxy     :     0.000137
      f0      :     0.000002  f :     0.000021
      f+1     :    -0.000000
      f-1     :    -0.000005
      f+2     :     0.000001
      f-2     :     0.000002
      f+3     :     0.000021
      f-3     :     0.000000

  7 C s       :     0.000077  s :     0.000077
      pz      :    -0.000052  p :     0.002410
      px      :     0.000420
      py      :     0.002043
      dz2     :     0.000051  d :     0.000472
      dxz     :    -0.000010
      dyz     :     0.000003
      dx2y2   :     0.000413
      dxy     :     0.000015
      f0      :    -0.000002  f :     0.000010
      f+1     :     0.000000
      f-1     :     0.000001
      f+2     :     0.000001
      f-2     :    -0.000001
      f+3     :     0.000011
      f-3     :    -0.000001

  8 C s       :    -0.000080  s :    -0.000080
      pz      :     0.000019  p :     0.000603
      px      :     0.000316
      py      :     0.000268
      dz2     :     0.000008  d :     0.000120
      dxz     :    -0.000004
      dyz     :    -0.000003
      dx2y2   :     0.000085
      dxy     :     0.000035
      f0      :    -0.000001  f :     0.000003
      f+1     :    -0.000000
      f-1     :    -0.000000
      f+2     :     0.000001
      f-2     :     0.000001
      f+3     :     0.000002
      f-3     :     0.000000

  9 C s       :     0.000145  s :     0.000145
      pz      :     0.000043  p :     0.000153
      px      :    -0.000003
      py      :     0.000114
      dz2     :     0.000001  d :     0.000027
      dxz     :     0.000002
      dyz     :     0.000000
      dx2y2   :     0.000018
      dxy     :     0.000006
      f0      :    -0.000000  f :     0.000002
      f+1     :     0.000000
      f-1     :    -0.000000
      f+2     :     0.000000
      f-2     :     0.000001
      f+3     :     0.000002
      f-3     :    -0.000000

 10 F s       :     0.003798  s :     0.003798
      pz      :    -0.004368  p :     0.065364
      px      :     0.018189
      py      :     0.051543
      dz2     :     0.000360  d :     0.001508
      dxz     :     0.000295
      dyz     :     0.000768
      dx2y2   :     0.000014
      dxy     :     0.000071
      f0      :     0.000006  f :     0.000024
      f+1     :     0.000002
      f-1     :     0.000009
      f+2     :    -0.000000
      f-2     :     0.000004
      f+3     :     0.000001
      f-3     :     0.000001

 11 F s       :    -0.000211  s :    -0.000211
      pz      :     0.003087  p :     0.006870
      px      :     0.000206
      py      :     0.003577
      dz2     :     0.000014  d :     0.000001
      dxz     :    -0.000006
      dyz     :    -0.000016
      dx2y2   :     0.000032
      dxy     :    -0.000023
      f0      :     0.000000  f :     0.000004
      f+1     :     0.000000
      f-1     :     0.000000
      f+2     :     0.000000
      f-2     :     0.000000
      f+3     :     0.000001
      f-3     :     0.000002

 12 F s       :    -0.000685  s :    -0.000685
      pz      :     0.007848  p :     0.006574
      px      :    -0.000495
      py      :    -0.000779
      dz2     :    -0.000017  d :     0.000035
      dxz     :    -0.000025
      dyz     :     0.000013
      dx2y2   :     0.000061
      dxy     :     0.000003
      f0      :     0.000001  f :     0.000004
      f+1     :    -0.000001
      f-1     :     0.000001
      f+2     :     0.000002
      f-2     :    -0.000000
      f+3     :     0.000000
      f-3     :     0.000000

 13 F s       :     0.000126  s :     0.000126
      pz      :     0.000382  p :     0.000064
      px      :    -0.000314
      py      :    -0.000004
      dz2     :     0.000005  d :     0.000047
      dxz     :     0.000001
      dyz     :     0.000004
      dx2y2   :     0.000025
      dxy     :     0.000012
      f0      :    -0.000000  f :     0.000001
      f+1     :     0.000000
      f-1     :    -0.000000
      f+2     :     0.000000
      f-2     :     0.000000
      f+3     :     0.000000
      f-3     :     0.000001

 14 F s       :     0.000584  s :     0.000584
      pz      :    -0.000022  p :    -0.001301
      px      :    -0.001267
      py      :    -0.000012
      dz2     :     0.000007  d :     0.000083
      dxz     :     0.000000
      dyz     :     0.000006
      dx2y2   :     0.000069
      dxy     :     0.000001
      f0      :     0.000000  f :     0.000004
      f+1     :     0.000001
      f-1     :     0.000000
      f+2     :     0.000002
      f-2     :     0.000000
      f+3     :     0.000000
      f-3     :     0.000000

 15 F s       :     0.000028  s :     0.000028
      pz      :    -0.000028  p :     0.000094
      px      :     0.000016
      py      :     0.000106
      dz2     :     0.000000  d :     0.000019
      dxz     :     0.000003
      dyz     :     0.000002
      dx2y2   :     0.000004
      dxy     :     0.000010
      f0      :    -0.000000  f :     0.000000
      f+1     :     0.000000
      f-1     :    -0.000000
      f+2     :     0.000000
      f-2     :     0.000000
      f+3     :     0.000000
[...]
  6:     18.48   0.000089    0.45  0.001507  (-0.009311 -0.029378  0.023598)
  7:     25.33   0.000789    3.99  0.009725  (-0.008254 -0.031484  0.093087)
  8:     33.36   0.001293    6.54  0.012099  (-0.067892 -0.086296 -0.006514)
  9:     42.51   0.000614    3.10  0.004509  ( 0.052631  0.039358 -0.013784)
 10:     45.87   0.000035    0.18  0.000239  (-0.005702 -0.004627  0.013604)
 11:     59.02   0.000173    0.88  0.000916  ( 0.027585  0.012438 -0.000775)
 12:     64.20   0.000167    0.84  0.000813  (-0.027897  0.004610  0.003618)
 13:     79.34   0.000065    0.33  0.000257  (-0.002464  0.013942 -0.007491)
 14:    116.07   0.000878    4.44  0.002362  (-0.044467  0.014833  0.012814)
 15:    129.99   0.000205    1.04  0.000493  ( 0.017862 -0.003381  0.012741)
 16:    170.72   0.000873    4.41  0.001596  (-0.024243  0.013945 -0.028520)
 17:    173.50   0.000623    3.15  0.001120  (-0.003313  0.013903 -0.030256)
 18:    186.41   0.001982   10.02  0.003319  (-0.005172 -0.009654  0.056558)
 19:    192.97   0.000044    0.22  0.000072  (-0.001556  0.008197  0.001379)
 20:    209.97   0.000381    1.92  0.000566  (-0.006042  0.022696 -0.003808)
 21:    229.25   0.000002    0.01  0.000002  ( 0.000198 -0.001304 -0.000591)
 22:    243.10   0.000027    0.14  0.000035  ( 0.005745 -0.001039 -0.001031)
 23:    246.91   0.000076    0.39  0.000096  (-0.008754 -0.004041 -0.001832)
 24:    275.67   0.003228   16.32  0.003655  (-0.058125 -0.001826  0.016517)
 25:    278.95   0.000208    1.05  0.000233  (-0.010435  0.010530  0.003582)
 26:    282.82   0.000441    2.23  0.000486  (-0.012044  0.002654  0.018281)
 27:    304.94   0.000144    0.73  0.000148  (-0.006153 -0.007255  0.007574)
 28:    311.49   0.000504    2.55  0.000505  (-0.018307  0.008085  0.010216)
 29:    334.71   0.000074    0.37  0.000069  (-0.005233 -0.000345  0.006431)
 30:    346.41   0.000259    1.31  0.000233  ( 0.001866 -0.000168  0.015145)
 31:    351.47   0.000024    0.12  0.000022  (-0.000467 -0.000684 -0.004585)
 32:    359.50   0.000090    0.45  0.000078  (-0.008791  0.000469  0.000723)
 33:    367.59   0.000341    1.72  0.000290  (-0.016341  0.001966  0.004339)
 34:    375.55   0.000492    2.49  0.000409  ( 0.018408 -0.003649 -0.007520)
 35:    397.40   0.000299    1.51  0.000235  ( 0.007629  0.011293 -0.007022)
 36:    450.94   0.000142    0.72  0.000098  (-0.001232  0.004889 -0.008527)
 37:    507.04   0.001831    9.25  0.001127  (-0.032763 -0.003395  0.006475)
 38:    515.63   0.005980   30.22  0.003619  (-0.055011  0.022284  0.009831)
 39:    545.81   0.004134   20.89  0.002364  ( 0.005381  0.048035 -0.005228)
 40:    551.39   0.007466   37.73  0.004225  ( 0.064403  0.003653  0.008009)
 41:    559.63   0.006575   33.23  0.003666  (-0.051370 -0.023292 -0.022023)
 42:    584.62   0.000177    0.89  0.000094  (-0.000561 -0.004159  0.008767)
 43:    592.27   0.003404   17.20  0.001793  ( 0.042183 -0.002349  0.002918)
 44:    623.00   0.003661   18.50  0.001834  ( 0.038339  0.016812  0.009009)
 45:    651.10   0.040642  205.39  0.019479  (-0.139549  0.002302 -0.000005)
 46:    679.00   0.014203   71.78  0.006528  (-0.079287  0.013981  0.006767)
 47:    707.83   0.001120    5.66  0.000494  (-0.007034  0.019430  0.008179)
 48:    721.26   0.008813   44.54  0.003813  (-0.044591 -0.042573  0.003484)
 49:    737.82   0.006245   31.56  0.002641  (-0.038812  0.016180  0.029552)
 50:    764.20   0.007211   36.44  0.002945  (-0.012351  0.045084  0.027558)
 51:    858.15   0.004657   23.54  0.001694  (-0.020871  0.025993  0.024132)
 52:    994.99   0.010817   54.66  0.003393  ( 0.056596 -0.008866  0.010533)
 53:   1031.64   0.034438  174.04  0.010417  (-0.022960 -0.097314 -0.020497)
 54:   1095.52   0.007020   35.48  0.002000  ( 0.035135 -0.024765 -0.012325)
 55:   1104.08   0.051197  258.73  0.014471  (-0.002682  0.016540 -0.119122)
 56:   1118.32   0.064560  326.26  0.018015  ( 0.004410  0.132650  0.019991)
 57:   1127.16   0.042895  216.77  0.011876  (-0.002964  0.088482  0.063544)
 58:   1136.89   0.024453  123.58  0.006712  ( 0.017172 -0.043214  0.067453)
 59:   1143.98   0.085785  433.52  0.023401  ( 0.009415 -0.021517  0.151160)
 60:   1151.44   0.092025  465.06  0.024941  ( 0.054222 -0.142627 -0.040721)
 61:   1156.44   0.097016  490.28  0.026180  (-0.008495 -0.031164  0.158544)
 62:   1173.77   0.016816   84.98  0.004471  (-0.041672 -0.024897  0.045981)
 63:   1174.99   0.069721  352.34  0.018517  (-0.013674  0.062528 -0.120085)
 64:   1198.06   0.032806  165.79  0.008545  (-0.005287  0.025349  0.088739)
 65:   1207.32   0.003995   20.19  0.001033  ( 0.006597 -0.005112  0.031032)
 66:   1242.57   0.008944   45.20  0.002246  ( 0.038792 -0.009057 -0.025679)
 67:   1266.53   0.033545  169.52  0.008265  (-0.052687  0.068544  0.028126)
 68:   1278.13   0.022609  114.26  0.005520  (-0.024222  0.062722  0.031614)
 69:   1320.50   0.048411  244.65  0.011441  (-0.104647  0.022028  0.002071)
 70:   1343.67   0.002321   11.73  0.000539  (-0.004680  0.021052  0.008594)
 71:   1642.88   0.139491  704.93  0.026496  ( 0.111779  0.003608  0.118274)

* The epsilon (eps) is given for a Dirac delta lineshape.
** The dipole moment derivative (T) already includes vibrational overlap.

The first frequency considered to be a vibration is 6
The total number of vibrations considered is 66


--------------------------
THERMOCHEMISTRY AT 298.15K
--------------------------

Temperature         ...   298.15 K
Pressure            ...     1.00 atm
Total Mass          ...   394.06 AMU
Quasi RRHO          ...     True
Cut-Off Frequency   ...     1.00 cm^-1

Throughout the following assumptions are being made:
  (1) The electronic state is orbitally nondegenerate
      but the spin degeneracy is treated
  (2) There are no thermally accessible electronically excited states
  (3) Hindered rotations indicated by low frequency modes are not
      treated as such but are treated as vibrations and this may
      cause some error
  (4) All equations used are the standard statistical mechanics
      equations for an ideal gas
  (5) All vibrations are strictly harmonic

freq.      18.48  E(vib)   ...       0.57 
freq.      25.33  E(vib)   ...       0.56 
freq.      33.36  E(vib)   ...       0.55 
freq.      42.51  E(vib)   ...       0.53 
freq.      45.87  E(vib)   ...       0.53 
freq.      59.02  E(vib)   ...       0.51 
freq.      64.20  E(vib)   ...       0.51 
freq.      79.34  E(vib)   ...       0.49 
freq.     116.07  E(vib)   ...       0.44 
freq.     129.99  E(vib)   ...       0.43 
freq.     170.72  E(vib)   ...       0.38 
freq.     173.50  E(vib)   ...       0.38 
freq.     186.41  E(vib)   ...       0.37 
freq.     192.97  E(vib)   ...       0.36 
freq.     209.97  E(vib)   ...       0.34 
freq.     229.25  E(vib)   ...       0.32 
freq.     243.10  E(vib)   ...       0.31 
freq.     246.91  E(vib)   ...       0.31 
freq.     275.67  E(vib)   ...       0.28 
freq.     278.95  E(vib)   ...       0.28 
freq.     282.82  E(vib)   ...       0.28 
freq.     304.94  E(vib)   ...       0.26 
freq.     311.49  E(vib)   ...       0.25 
freq.     334.71  E(vib)   ...       0.24 
freq.     346.41  E(vib)   ...       0.23 
freq.     351.47  E(vib)   ...       0.23 
freq.     359.50  E(vib)   ...       0.22 
freq.     367.59  E(vib)   ...       0.21 
freq.     375.55  E(vib)   ...       0.21 
freq.     397.40  E(vib)   ...       0.20 
freq.     450.94  E(vib)   ...       0.17 
freq.     507.04  E(vib)   ...       0.14 
freq.     515.63  E(vib)   ...       0.13 
freq.     545.81  E(vib)   ...       0.12 
freq.     551.39  E(vib)   ...       0.12 
freq.     559.63  E(vib)   ...       0.12 
freq.     584.62  E(vib)   ...       0.11 
freq.     592.27  E(vib)   ...       0.10 
freq.     623.00  E(vib)   ...       0.09 
freq.     651.10  E(vib)   ...       0.08 
freq.     679.00  E(vib)   ...       0.08 
freq.     707.83  E(vib)   ...       0.07 
freq.     721.26  E(vib)   ...       0.07 
freq.     737.82  E(vib)   ...       0.06 
freq.     764.20  E(vib)   ...       0.06 
freq.     858.15  E(vib)   ...       0.04 
freq.     994.99  E(vib)   ...       0.02 
freq.    1031.64  E(vib)   ...       0.02 
freq.    1095.52  E(vib)   ...       0.02 
freq.    1104.08  E(vib)   ...       0.02 
freq.    1118.32  E(vib)   ...       0.01 
freq.    1127.16  E(vib)   ...       0.01 
freq.    1136.89  E(vib)   ...       0.01 
freq.    1143.98  E(vib)   ...       0.01 
freq.    1151.44  E(vib)   ...       0.01 
freq.    1156.44  E(vib)   ...       0.01 
freq.    1173.77  E(vib)   ...       0.01 
freq.    1174.99  E(vib)   ...       0.01 
freq.    1198.06  E(vib)   ...       0.01 
freq.    1207.32  E(vib)   ...       0.01 
freq.    1242.57  E(vib)   ...       0.01 
freq.    1266.53  E(vib)   ...       0.01 
freq.    1278.13  E(vib)   ...       0.01 
freq.    1320.50  E(vib)   ...       0.01 
freq.    1343.67  E(vib)   ...       0.01 
freq.    1642.88  E(vib)   ...       0.00 

------------
INNER ENERGY
------------

The inner energy is: U= E(el) + E(ZPE) + E(vib) + E(rot) + E(trans)
    E(el)   - is the total energy from the electronic structure calculation
              = E(kin-el) + E(nuc-el) + E(el-el) + E(nuc-nuc)
    E(ZPE)  - the the zero temperature vibrational energy from the frequency calculation
    E(vib)  - the the finite temperature correction to E(ZPE) due to population
              of excited vibrational states
    E(rot)  - is the rotational thermal energy
    E(trans)- is the translational thermal energy

Summary of contributions to the inner energy U:
Electronic energy                ...  -1853.95406658 Eh
Zero point energy                ...      0.09160976 Eh      57.49 kcal/mol
Thermal vibrational correction   ...      0.01999334 Eh      12.55 kcal/mol
Thermal rotational correction    ...      0.00141627 Eh       0.89 kcal/mol
Thermal translational correction ...      0.00141627 Eh       0.89 kcal/mol
-----------------------------------------------------------------------
Total thermal energy                  -1853.83963094 Eh


Summary of corrections to the electronic energy:
(perhaps to be used in another calculation)
Total thermal correction                  0.02282588 Eh      14.32 kcal/mol
Non-thermal (ZPE) correction              0.09160976 Eh      57.49 kcal/mol
-----------------------------------------------------------------------
Total correction                          0.11443564 Eh      71.81 kcal/mol


--------
ENTHALPY
--------

The enthalpy is H = U + kB*T
                kB is Boltzmann's constant
Total thermal energy              ...  -1853.83963094 Eh 
Thermal Enthalpy correction       ...      0.00094421 Eh       0.59 kcal/mol
-----------------------------------------------------------------------
Total Enthalpy                    ...  -1853.83868673 Eh


Note: Only C1 symmetry has been detected, increase convergence thresholds 
      if your molecule has a higher symmetry. Symmetry factor of 1.0 is   
      used for the rotational entropy correction. 
 

Note: Rotational entropy computed according to Herzberg 
Infrared and Raman Spectra, Chapter V,1, Van Nostrand Reinhold, 1945 
Point Group:  C1, Symmetry Number:   1  
Rotational constants in cm-1:     0.020847     0.004164     0.004047 

Vibrational entropy computed according to the QRRHO of S. Grimme
Chem.Eur.J. 2012 18 9955 using a reference frequency of 100.0 cm-1


-------
ENTROPY
-------

The entropy contributions are T*S = T*(S(el)+S(vib)+S(rot)+S(trans))
     S(el)   - electronic entropy
     S(vib)  - vibrational entropy
     S(rot)  - rotational entropy
     S(trans)- translational entropy
The entropies will be listed as multiplied by the temperature to get
units of energy

Electronic entropy                ...      0.00065446 Eh      0.41 kcal/mol
Vibrational entropy               ...      0.03619818 Eh     22.71 kcal/mol
Rotational entropy                ...      0.01652674 Eh     10.37 kcal/mol
Translational entropy             ...      0.02081341 Eh     13.06 kcal/mol
-----------------------------------------------------------------------
Final entropy term                ...      0.07419279 Eh     46.56 kcal/mol

In case the symmetry of your molecule has not been determined correctly
or in case you have a reason to use a different symmetry number we print 
out the resulting rotational entropy values for sn=1,12:

 non-linear molecules -----------------------------------
|  sn= 1 | S(rot)=       0.01652674 Eh     10.37 kcal/mol|
|  sn= 2 | S(rot)=       0.01587228 Eh      9.96 kcal/mol|
|  sn= 3 | S(rot)=       0.01548945 Eh      9.72 kcal/mol|
|  sn= 4 | S(rot)=       0.01521783 Eh      9.55 kcal/mol|
|  sn= 5 | S(rot)=       0.01500714 Eh      9.42 kcal/mol|
|  sn= 6 | S(rot)=       0.01483499 Eh      9.31 kcal/mol|
|  sn= 7 | S(rot)=       0.01468945 Eh      9.22 kcal/mol|
|  sn= 8 | S(rot)=       0.01456337 Eh      9.14 kcal/mol|
|  sn= 9 | S(rot)=       0.01445216 Eh      9.07 kcal/mol|
|  sn=10 | S(rot)=       0.01435268 Eh      9.01 kcal/mol|
|  sn=11 | S(rot)=       0.01426269 Eh      8.95 kcal/mol|
|  sn=12 | S(rot)=       0.01418054 Eh      8.90 kcal/mol|
 linear molecules ---------------------------------------
|  Dinfh | S(rot)=       0.01052795 Eh      6.61 kcal/mol|
|  Cinfv | S(rot)=       0.01118240 Eh      7.02 kcal/mol|
 --------------------------------------------------------


-------------------
GIBBS FREE ENERGY
-------------------

The Gibbs free energy is G = H - T*S

Total enthalpy                    ...  -1853.83868673 Eh 
Total entropy correction          ...     -0.07419279 Eh    -46.56 kcal/mol
-----------------------------------------------------------------------
Final Gibbs free energy         ...  -1853.91287952 Eh

For completeness - the Gibbs free energy minus the electronic energy
G-E(el)                           ...      0.04118706 Eh     25.85 kcal/mol


Maximum memory used throughout the entire PROP-calculation: 523.8 MB

--------------------------------
SUGGESTED CITATIONS FOR THIS RUN
--------------------------------

Below you find a list of papers that are relevant to this ORCA run
We neither can nor want to force you to cite these papers, but we appreciate if you do
You receive ORCA, which is the product of decades of hard work by many enthusiastic individuals, for free
The only thing we kindly ask in return is that you cite our papers,
We deeply appreciate it, if you show your appreciation for ORCA by not just citing the generic ORCA reference.

Please note that relegating all ORCA citations to the supporting information does *not* help us.
SI sections are not indexed - citations you put there will not count into any citation statistics
But we need these citations in order to attract the funding resources that allow us to do what we are doing

Therefore, if you are a happy ORCA user, please consider citing a few of the papers listed below in the main body of your paper

In addition to the list printed below, the program has created the file rf_mecn_freq_TP_C2_D_B.bibtex that contains the list in bibtex format
You can import this file easily into all common literature databanks and citation aid programs


List of essential papers. We consider these as the minimum necessary citations

  1. Neese,F.
     Software update: the ORCA program system, version 5.0
     WIRES Comput. Molec. Sci., 2022 12(1)e1606
     doi.org/10.1002/wcms.1606

List of papers to cite with high priority. The work reported in these papers was absolutely
necessary for this run to complete.
Our perspective: the developers of density functionals and basis sets usually get cited in chemistry papers
Good! But without the algorithms to do something with them, the functionals or basis sets would not do anything.
Hence, in our opinion, the algorithm design and method developments papers are equally worthy of getting cited

  1. Neese,F.
     An improvement of the resolution of the identity approximation for the formation of the Coulomb matrix
     J. Comp. Chem., 2003 24(14)1740-1747
     doi.org/10.1002/jcc.10318
  2. Neese,F.; Wennmohs,F.; Hansen,A.; Becker,U.
     Efficient, approximate and parallel Hartree-Fock and hybrid DFT calculations. A 'chain-of-spheres' algorithm for the Hartree-Fock exchange
     Chem. Phys., 2009 356(1-3)98-109
     doi.org/10.1016/j.chemphys.2008.10.036
  3. Bykov,D.; Petrenko,T.; Izsak,R.; Kossmann,S.; Becker,U.; Valeev,E.; Neese,F.
     Efficient implementation of the analytic second derivatives of Hartree-Fock and hybrid DFT energies: a detailed analysis of different approximations
     Molec. Phys., 2015 113 1961-1977
     doi.org/10.1080/00268976.2015.1025114
  4. Garcia-Rates,M.; Neese,F.
     Efficient implementation of the analytical second derivatives of hartree-fock and hybrid DFT energies within the framework of the conductor-like polarizable continuum model
     J. Comput. Chem., 2019 40 1816-1828
     doi.org/10.1002/jcc.25833
  5. Garcia-Rates,M.; Neese,F.
     Effect of the Solute Cavity on the Solvation Energy and its Derivatives within the Framework of the Gaussian Charge Scheme
     J. Comput. Chem., 2020 41 922-939
     doi.org/10.1002/jcc.26139
  6. Helmich-Paris,B.; de Souza,B.; Neese,F.; Izsák,R.
     An improved chain of spheres for exchange algorithm
     J. Chem. Phys., 2021 155 104109
     doi.org/doi: 10.1063/5.0058766.
  7. Neese,F.
     The SHARK Integral Generation and Digestion System
     J. Comp. Chem., 2022  1-16
     doi.org/10.1002/jcc.26942
  8. Grimme,S.; Antony,J.; Ehrlich,S.; Krieg,H.
     A consistent and accurate ab initio parametrization of density functional dispersion correction (DFT-D) for the 94 elements H-Pu
     J. Chem. Phys., 2010 132 154104
     doi.org/10.1063/1.3382344
  9. Grimme,S.; Ehrlich,S.; Goerigk,L.
     Effect of the damping function in dispersion corrected density functional theory
     J. Comput. Chem., 2011 32(7)1456-1465
     doi.org/10.1002/jcc.21759

List of suggested additional citations. These are papers that are important in the 'surrounding' of 
of this run, or papers that preceded the highly important papers. If you like your results we are grateful for a citation.

  1. Izsak,R.; Neese,F.
     An overlap fitted chain of spheres exchange method
     J. Chem. Phys., 2011 135 144105
     doi.org/10.1063/1.3646921
  2. Izsak,R.; Hansen,A.; Neese,F.
     The resolution of identity and chain of spheres approximations for the LPNO-CCSD singles Fock term
     Molec. Phys., 2012 110 2413-2417
     doi.org/10.1080/00268976.2012.687466
  3. Neese,F.
     The ORCA program system
     WIRES Comput. Molec. Sci., 2012 2(1)73-78
     doi.org/10.1002/wcms.81
  4. Izsak,R.; Neese,F.; Klopper,W.
     Robust fitting techniques in the chain of spheres approximation to the Fock exchange: The role of the complementary space
     J. Chem. Phys., 2013 139 
     doi.org/10.1063/1.4819264
  5. Neese,F.
     Software update: the ORCA program system, version 4.0
     WIRES Comput. Molec. Sci., 2018 8(1)1-6
     doi.org/10.1002/wcms.1327
  6. Neese,F.; Wennmohs,F.; Becker,U.; Riplinger,C.
     The ORCA quantum chemistry program package
     J. Chem. Phys., 2020 152 Art. No. L224108
     doi.org/10.1063/5.0004608

List of optional additional citations

  1. Neese,F.
     Approximate second-order SCF convergence for spin unrestricted wavefunctions
     Chem. Phys. Lett., 2000 325(1-3)93-98
     doi.org/10.1016/s0009-2614(00)00662-x

Timings for individual modules:

Sum of individual times          ...     1443.853 sec (=  24.064 min)
Startup calculation              ...        3.500 sec (=   0.058 min)   0.2 %
SCF iterations                   ...      100.977 sec (=   1.683 min)   7.0 %
Property integrals               ...      427.562 sec (=   7.126 min)  29.6 %
SCF Response                     ...      640.423 sec (=  10.674 min)  44.4 %
Property calculations            ...      271.391 sec (=   4.523 min)  18.8 %
                             ****ORCA TERMINATED NORMALLY****
TOTAL RUN TIME: 0 days 0 hours 24 minutes 4 seconds 687 msec
