
                                 *****************
                                 * O   R   C   A *
                                 *****************

                                            #,                                       
                                            ###                                      
                                            ####                                     
                                            #####                                    
                                            ######                                   
                                           ########,                                 
                                     ,,################,,,,,                         
                               ,,#################################,,                 
                          ,,##########################################,,             
                       ,#########################################, ''#####,          
                    ,#############################################,,   '####,        
                  ,##################################################,,,,####,       
                ,###########''''           ''''###############################       
              ,#####''   ,,,,##########,,,,          '''####'''          '####       
            ,##' ,,,,###########################,,,                        '##       
           ' ,,###''''                  '''############,,,                           
         ,,##''                                '''############,,,,        ,,,,,,###''
      ,#''                                            '''#######################'''  
     '                                                          ''''####''''         
             ,#######,   #######,   ,#######,      ##                                
            ,#'     '#,  ##    ##  ,#'     '#,    #''#        ,####,   ,####,        
            ##       ##  ##   ,#'  ##            #'  '#       #'       #'  '#        
            ##       ##  #######   ##           ,######,      #####,   #    #        
            '#,     ,#'  ##    ##  '#,     ,#' ,#      #,     #,   #   #,  ,#        
             '#######'   ##     ##  '#######'  #'      '#     '####' # '####'        



                #########################################################
                #                        -***-                          #
                #          Department of theory and spectroscopy        #
                #                                                       #
                #                      Frank Neese                      #
                #                                                       #
                #     Directorship, Architecture, Infrastructure        #
                #                    SHARK, DRIVERS                     #
                #        Core code/Algorithms in most modules           #
                #                                                       #
                #        Max Planck Institute fuer Kohlenforschung      #
                #                Kaiser Wilhelm Platz 1                 #
                #                 D-45470 Muelheim/Ruhr                 #
                #                      Germany                          #
                #                                                       #
                #                  All rights reserved                  #
                #                        -***-                          #
                #########################################################


                         Program Version 6.0.1  -  RELEASE   -


 With contributions from (in alphabetic order):
[Max-Planck-Institut fuer Kohlenforschung]                               
  Daniel Aravena         : Magnetic Suceptibility                        
  Michael Atanasov       : Ab Initio Ligand Field Theory (pilot matlab implementation)
  Alexander A. Auer      : GIAO ZORA, VPT2 properties, NMR spectrum      
  Ute Becker             : All parallelization in ORCA, NUMFREQ, NUMCALC 
  Giovanni Bistoni       : ED, misc. LED, open-shell LED, HFLD           
  Martin Brehm           : Molecular dynamics                            
  Dmytro Bykov           : pre 5.0 version of the SCF Hessian            
  Marcos Casanova-Páez   : Triplet and SCS-CIS(D). UHF-(DLPNO)-IP/EA/STEOM-CCSD. UHF-CVS-IP/STEOM-CCSD   
  Vijay G. Chilkuri      : MRCI spin determinant printing, contributions to CSF-ICE 
  Pauline Colinet        : FMM embedding                                 
  Dipayan Datta          : RHF DLPNO-CCSD density                        
  Achintya Kumar Dutta   : EOM-CC, STEOM-CC                              
  Nicolas Foglia         : Exact transition moments, OPA infrastructure, MCD improvements    
  Dmitry Ganyushin       : Spin-Orbit,Spin-Spin,Magnetic field MRCI      
  Miquel Garcia-Rates    : C-PCM and meta-GGA Hessian, CCSD/C-PCM, Gaussian charge scheme 
  Tiago L. C. Gouveia    : GS-ROHF, GS-ROCIS                             
  Yang Guo               : DLPNO-NEVPT2, F12-NEVPT2, CIM, IAO-localization        
  Andreas Hansen         : Spin unrestricted coupled pair/coupled cluster methods 
  Ingolf Harden          : AUTO-CI MPn and infrastructure                
  Benjamin Helmich-Paris : MC-RPA, TRAH-(SCF,CASSCF), AVAS, COSX integrals, SCF dyn. polar. 
  Lee Huntington         : MR-EOM, pCC                                   
  Robert Izsak           : Overlap fitted RIJCOSX, COSX-SCS-MP3, EOM     
  Riya Kayal             : Wick's Theorem for AUTO-CI, AUTO-CI UHF-CCSDT 
  Emily Kempfer          : AUTO-CI, RHF CISDT and CCSDT                  
  Christian Kollmar      : KDIIS, OOCD, Brueckner-CCSD(T), CCSD density, CASPT2, CASPT2-K, improved NEVPT2 
  Axel Koslowski         : Symmetry handling                             
  Simone Kossmann        : meta-GGA functionals, TD-DFT gradient, OOMP2, (MP2 Hessian; deprecated post 5.0) 
  Lucas Lang             : DCDCAS                                        
  Marvin Lechner         : AUTO-CI (C++ implementation), FIC-MRCC        
  Spencer Leger          : CASSCF response                               
  Dagmar Lenk            : GEPOL surface, SMD, ORCA-2-JSON               
  Dimitrios Liakos       : Extrapolation schemes; Compound Job, initial MDCI parallelization 
  Dimitrios Manganas     : Further ROCIS development; embedding schemes. LFT, Crystal Embedding 
  Dimitrios Pantazis     : SARC Basis sets                               
  Anastasios Papadopoulos: AUTO-CI, single reference methods and gradients 
  Taras Petrenko         : pre 6.0 DFT Hessian and TD-DFT gradient, (ASA, deprecated), ECA, 1-Electron XAS/XES, NRVS 
  Peter Pinski           : DLPNO-MP2, DLPNO-MP2 Gradient                 
  Christoph Reimann      : Effective Core Potentials                     
  Marius Retegan         : Local ZFS, SOC                                
  Christoph Riplinger    : Optimizer, TS searches, QM/MM, DLPNO-CCSD(T), (RO)-DLPNO pert. Triples 
  Michael Roemelt        : Original ROCIS implementation                 
  Masaaki Saitow         : Open-shell DLPNO-CCSD energy and density      
  Barbara Sandhoefer     : DKH picture change effects                    
  Kantharuban Sivalingam : CASSCF convergence/infrastructure, NEVPT2 and variants, FIC-MRCI 
  Bernardo de Souza      : ESD, SOC TD-DFT                               
  Georgi L. Stoychev     : AutoAux, RI-MP2 NMR, DLPNO-MP2 response, X2C  
  Van Anh Tran           : RI-MP2 g-tensors                              
  Willem Van den Heuvel  : Paramagnetic NMR                              
  Zikuan Wang            : NOTCH, Electric field optimization            
  Frank Wennmohs         : Technical directorship and infrastructure     
  Hang Xu                : AUTO-CI-Response properties                   
                                                                         
[FACCTs GmbH]                                                            
  Markus Bursch, Miquel Garcia-Rates, Christoph Riplinger, Bernardo de Souza, Georgi L. Stoychev 
                                                                 
  APM, Basis sets (HGBS, AHGBS, def-TZVP (Ac-Lr), def2-XVPD (La-Lu)), CI-OPT, improved COSX, DLPNO-Multilevel,           
  DOCKER, DRACO, updates on ESD, GOAT, IRC, LR-CPCM, MBIS, meta-GGA TD-DFT gradient, ML-optimized integration grids, 
  MM, NACMEs, nearIR, NEB, NEB-TS, NL-DFT gradient (VV10), 2- and 3-layer-ONIOM, interface openCOSMO-RS, QMMM,   
  Crystal-QMMM, SF, symmetry and pop. for TD-DFT, r2SCAN hybrids, SOLVATOR                                   
                                                                         
[Other institutions]                                                     
  V. Asgeirsson          : NEB                                           
  Christoph Bannwarth    : sTDA-DFT, sTD-DFT, PBEh-3c, B97-3c, D3        
  Sebastian Ehlert       : rSCAN, r2SCAN, r2SCAN-3c, D4, dhf basis sets  
  Marvin Friede          : D4 for Fr, Ra, Ac-Lr                          
  Lars Goerigk           : TD-DFT with DH, B97 family of functionals     
  Stefan Grimme          : VdW corrections, initial TS optimization, DFT functionals, gCP, sTDA/sTD-DF 
  Waldemar Hujo          : DFT-NL                                        
  H. Jonsson             : NEB                                           
  Holger Kruse           : gCP                                           
  Marcel Mueller         : wB97X-3c, vDZP basis set                      
  Hagen Neugebauer       : wr2SCAN                                       
  Tobias Risthaus        : range-separated hybrid DFT                    
  Lukas Wittmann         : regularized MP2, r2SCAN double-hybrids, wr2SCAN        
                                                                         
We gratefully acknowledge several colleagues who have allowed us to      
interface, adapt or use parts of their codes:                            
  Ed Valeev, F. Pavosevic, A. Kumar             : LibInt (2-el integral package), F12 methods 
  Garnet Chan, S. Sharma, J. Yang, R. Olivares  : DMRG                   
  Ulf Ekstrom                                   : XCFun DFT Library      
  Mihaly Kallay                                 : mrcc  (arbitrary order and MRCC methods)
  Frank Weinhold                                : gennbo (NPA and NBO analysis)           
  Simon Mueller                                 : openCOSMO-RS                            
  Christopher J. Cramer and Donald G. Truhlar   : smd solvation model                     
  S Lehtola, MJT Oliveira, MAL Marques          : LibXC Library                           
  Liviu Ungur et al                             : ANISO software                          


 Your calculation uses the libint2 library for the computation of 2-el integrals
 For citations please refer to: http://libint.valeyev.net

 Your ORCA version has been built with support for libXC version: 6.2.2
 For citations please refer to: https://libxc.gitlab.io

 This ORCA versions uses:
   CBLAS   interface :  Fast vector & matrix operations
   LAPACKE interface :  Fast linear algebra routines
   SCALAPACK package :  Parallel linear algebra routines
   Shared memory     :  Shared parallel matrices
   BLAS/LAPACK       :  OpenBLAS 0.3.27  USE64BITINT DYNAMIC_ARCH NO_AFFINITY SkylakeX SINGLE_THREADED
        Core in use  :  SkylakeX
   Copyright (c) 2011-2014, The OpenBLAS Project


NOTE: MaxCore=8000 MB was set to SCF,MP2,MDCI,CIPSI,MRCI and CIS
      => If you want to overwrite this, your respective input block should be placed after the MaxCore statement
Your calculation utilizes the atom-pairwise dispersion correction
with the Becke-Johnson damping scheme (D3BJ)


Your calculation utilizes the SMD solvation module
Please cite in your paper:
A.V. Marenich, C.J. Cramer, D.G. Truhlar J. Phys. Chem. B, 113, (2009), 6378 

Warning: RI is on but no J-basis has been assigned. Assigning Def2/J (nothing to worry about!)
================================================================================

----- Orbital basis set information -----
Your calculation utilizes the basis: def2-TZVP
   F. Weigend and R. Ahlrichs, Phys. Chem. Chem. Phys. 7, 3297 (2005).

----- AuxJ basis set information -----
Your calculation utilizes the auxiliary basis: def2/J
   F. Weigend, Phys. Chem. Chem. Phys. 8, 1057 (2006).

================================================================================
                                        WARNINGS
                       Please study these warnings very carefully!
================================================================================


WARNING: your system is open-shell and RHF/RKS was chosen
  ===> : WILL SWITCH to UHF/UKS


WARNING: Geometry Optimization
  ===> : Switching off AutoStart
         For restart on a previous wavefunction, please use MOREAD

================================================================================
                                       INPUT FILE
================================================================================
NAME = rf_mecn_opt_B3L_C6_P_B.inp
|  1> !B3LYP def2-TZVP opt d3 TightSCF SlowConv defgrid2
|  2>  
|  3> %pal
|  4> nprocs 20
|  5> end
|  6>  
|  7> %scf
|  8> MaxIter 1500
|  9> end
| 10>  
| 11> %maxcore 8000
| 12>  
| 13> !CPCM
| 14> %cpcm smd true
| 15> SMDsolvent "ACETONITRILE"
| 16> end
| 17>  
| 18> * xyz 0 2
| 19> 6        4.790427000     -0.033865800     -0.529943200
| 20> 8        5.449345000     -1.206924000     -0.894594600
| 21> 8        4.978223000      1.323071000     -0.737377200
| 22> 6        3.506687600     -0.338741600      0.376153800
| 23> 6        2.222300000      0.400524800     -0.110681600
| 24> 6        0.900506800     -0.386389800      0.175703000
| 25> 6       -0.395261200      0.487294000      0.065549000
| 26> 6       -1.705693600     -0.364773800     -0.068373600
| 27> 6       -3.005136200      0.445344800      0.258164000
| 28> 6       -4.319880200     -0.214526000     -0.270540800
| 29> 9        3.211587400     -1.692050400      0.412735200
| 30> 9        3.741061800      0.055285800      1.689948800
| 31> 9        2.125696800      1.616867800      0.483236600
| 32> 9        2.314152400      0.589704000     -1.455769200
| 33> 9        0.794028800     -1.413561400     -0.700839000
| 34> 9        0.958350600     -0.884509000      1.435093400
| 35> 9       -0.498373400      1.260265600      1.173340200
| 36> 9       -0.299075000      1.289512600     -1.020910800
| 37> 9       -1.792381400     -0.831391600     -1.336863600
| 38> 9       -2.918792200      1.679227200     -0.295171200
| 39> 9       -3.119771000      0.573779800      1.598579800
| 40> 9       -4.383115600     -1.504377600      0.089127600
| 41> 9       -5.365669800      0.430528600      0.260394200
| 42> 9       -4.396020400     -0.128550600     -1.602941800
| 43> 1        5.903122371     -2.014774547     -1.145719253
| 44> *
| 45> 
| 46>                          ****END OF INPUT****
================================================================================

                       *****************************
                       * Geometry Optimization Run *
                       *****************************

Geometry optimization settings:
Update method            Update   .... BFGS
Choice of coordinates    CoordSys .... (2022) Redundant Internals
Initial Hessian          InHess   .... Almloef's Model
Max. no of cycles        MaxIter  .... 75

Convergence Tolerances:
Energy Change            TolE     ....  5.0000e-06 Eh
Max. Gradient            TolMAXG  ....  3.0000e-04 Eh/bohr
RMS Gradient             TolRMSG  ....  1.0000e-04 Eh/bohr
Max. Displacement        TolMAXD  ....  4.0000e-03 bohr
RMS Displacement         TolRMSD  ....  2.0000e-03 bohr
Strict Convergence                .... False

------------------------------------------------------------------------------
                        ORCA OPTIMIZATION COORDINATE SETUP
------------------------------------------------------------------------------

The optimization will be done in redundant internal coordinates (2022)
Making redundant internal coordinates   ...  (2022 redundants) done
Evaluating the initial hessian          ...  (Almloef) done
Evaluating the coordinates              ...  done
Calculating the B-matrix                .... done
Calculating the G-matrix                .... done
Diagonalizing the G-matrix              .... done
Small eigenvalue found = 4.724e-03
Small eigenvalue found = 1.347e-02
Small eigenvalue found = 2.872e-02
The first mode is                       ....   39
The number of degrees of freedom        ....   69

    -----------------------------------------------------------------
                    Redundant Internal Coordinates


    -----------------------------------------------------------------
         Definition                    Initial Value    Approx d2E/dq
    -----------------------------------------------------------------
      1. B(O   1,C   0)                  1.3940         0.551454   
      2. B(O   2,C   0)                  1.3855         0.568952   
      3. B(C   3,C   0)                  1.6006         0.288221   
      4. B(C   4,C   3)                  1.5599         0.334759   
      5. B(C   5,C   4)                  1.5647         0.328824   
      6. B(C   6,C   5)                  1.5667         0.326486   
      7. B(C   7,C   6)                  1.5688         0.323927   
      8. B(C   8,C   7)                  1.5657         0.327637   
      9. B(C   9,C   8)                  1.5632         0.330714   
     10. B(F  10,C   3)                  1.3856         0.528443   
     11. B(F  11,C   3)                  1.3915         0.517117   
     12. B(F  12,C   4)                  1.3570         0.586881   
     13. B(F  13,C   4)                  1.3614         0.577499   
     14. B(F  14,C   5)                  1.3545         0.592326   
     15. B(F  15,C   5)                  1.3556         0.590092   
     16. B(F  16,C   6)                  1.3547         0.591865   
     17. B(F  17,C   6)                  1.3540         0.593567   
     18. B(F  18,C   7)                  1.3544         0.592672   
     19. B(F  19,C   8)                  1.3550         0.591238   
     20. B(F  20,C   8)                  1.3514         0.599114   
     21. B(F  21,C   9)                  1.3406         0.623533   
     22. B(F  22,C   9)                  1.3385         0.628179   
     23. B(F  23,C   9)                  1.3373         0.630929   
     24. B(H  24,O   1)                  0.9600         0.519956   
     25. A(O   1,C   0,O   2)          136.1318         0.413163   
     26. A(O   2,C   0,C   3)          112.3347         0.371210   
     27. A(O   1,C   0,C   3)          111.5249         0.369222   
     28. L(C   0,O   1,H  24,C   3, 2) 180.0000         0.362759   
     29. L(C   0,O   1,H  24,C   3, 1) 180.0000         0.362759   
     30. A(C   4,C   3,F  11)          107.4072         0.373095   
     31. A(C   0,C   3,F  11)          110.2099         0.363632   
     32. A(F  10,C   3,F  11)          106.7094         0.399684   
     33. A(C   4,C   3,F  10)          107.2033         0.374492   
     34. A(C   0,C   3,F  10)          111.8265         0.364982   
     35. A(C   0,C   3,C   4)          113.1687         0.341363   
     36. A(C   3,C   4,F  12)          110.2926         0.381351   
     37. A(F  12,C   4,F  13)          108.2194         0.415201   
     38. A(C   3,C   4,C   5)          113.5839         0.349005   
     39. A(C   5,C   4,F  13)          107.9208         0.379109   
     40. A(C   3,C   4,F  13)          108.5818         0.380286   
     41. A(C   5,C   4,F  12)          108.0911         0.380169   
     42. A(F  14,C   5,F  15)          109.0206         0.417483   
     43. A(C   4,C   5,C   6)          113.9128         0.347536   
     44. A(C   6,C   5,F  15)          107.7906         0.380059   
     45. A(C   4,C   5,F  15)          108.5900         0.380529   
     46. A(C   6,C   5,F  14)          108.2026         0.380308   
     47. A(C   4,C   5,F  14)          109.2282         0.380779   
     48. A(C   5,C   6,C   7)          113.2023         0.346660   
     49. A(F  16,C   6,F  17)          108.8752         0.417862   
     50. A(C   7,C   6,F  17)          108.2186         0.379927   
     51. A(C   5,C   6,F  17)          109.1523         0.380446   
     52. A(C   7,C   6,F  16)          108.4284         0.379738   
     53. A(C   5,C   6,F  16)          108.8835         0.380256   
     54. A(C   8,C   7,F  18)          108.6915         0.380579   
     55. A(C   6,C   7,F  18)          108.6955         0.379828   
     56. A(C   6,C   7,C   8)          113.2298         0.346865   
     57. A(F  19,C   8,F  20)          108.8987         0.418476   
     58. A(C   7,C   8,C   9)          114.1471         0.348078   
     59. A(C   9,C   8,F  20)          107.7127         0.381912   
     60. A(C   7,C   8,F  20)          109.0521         0.381293   
     61. A(C   9,C   8,F  19)          107.4499         0.381036   
     62. A(C   7,C   8,F  19)          109.4572         0.380419   
     63. A(F  22,C   9,F  23)          108.6464         0.426961   
     64. A(F  21,C   9,F  23)          109.0552         0.426394   
     65. A(C   8,C   9,F  23)          110.9604         0.385362   
     66. A(F  21,C   9,F  22)          108.6877         0.426061   
     67. A(C   8,C   9,F  22)          108.6349         0.385069   
     68. A(C   8,C   9,F  21)          110.7995         0.384572   
     69. D(F  10,C   3,C   0,O   1)     -9.8890         0.006601   
     70. D(F  11,C   3,C   0,O   2)    -70.4768         0.006601   
     71. D(F  10,C   3,C   0,O   2)    171.0025         0.006601   
     72. D(F  11,C   3,C   0,O   1)    108.6317         0.006601   
     73. D(C   4,C   3,C   0,O   2)     49.8076         0.006601   
     74. D(C   4,C   3,C   0,O   1)   -131.0839         0.006601   
     75. D(C   5,C   4,C   3,C   0)    148.6429         0.009100   
     76. D(F  12,C   4,C   3,F  11)     32.0233         0.009100   
     77. D(F  12,C   4,C   3,F  10)    146.3851         0.009100   
     78. D(C   5,C   4,C   3,F  11)    -89.4885         0.009100   
     79. D(F  12,C   4,C   3,C   0)    -89.8453         0.009100   
     80. D(C   5,C   4,C   3,F  10)     24.8733         0.009100   
     81. D(C   6,C   5,C   4,F  13)    -75.6292         0.008811   
     82. D(C   6,C   5,C   4,F  12)     41.2001         0.008811   
     83. D(C   6,C   5,C   4,C   3)    163.9326         0.008811   
     84. D(F  14,C   5,C   4,F  13)     45.4721         0.008811   
     85. D(F  14,C   5,C   4,F  12)    162.3014         0.008811   
     86. D(F  14,C   5,C   4,C   3)    -74.9661         0.008811   
     87. D(F  16,C   6,C   5,F  15)     44.2190         0.008700   
     88. D(F  16,C   6,C   5,F  14)    161.9826         0.008700   
     89. D(F  16,C   6,C   5,C   4)    -76.3465         0.008700   
     90. D(C   7,C   6,C   5,F  15)    -76.4529         0.008700   
     91. D(C   7,C   6,C   5,F  14)     41.3107         0.008700   
     92. D(C   7,C   6,C   5,C   4)    162.9815         0.008700   
     93. D(F  18,C   7,C   6,F  16)    162.3257         0.008059   
     94. D(F  18,C   7,C   6,C   5)    -76.7446         0.008059   
     95. D(C   8,C   7,C   6,F  17)    -76.5134         0.008059   
     96. D(C   8,C   7,C   6,F  16)     41.4341         0.008059   
     97. D(C   8,C   7,C   6,C   5)    162.3638         0.008059   
     98. D(C   9,C   8,C   7,F  18)     41.5227         0.008223   
     99. D(C   9,C   8,C   7,C   6)    162.4166         0.008223   
    100. D(F  20,C   8,C   7,C   6)    -77.0818         0.008223   
    101. D(F  19,C   8,C   7,F  18)    -78.9355         0.008223   
    102. D(F  19,C   8,C   7,C   6)     41.9584         0.008223   
    103. D(F  22,C   9,C   8,F  20)     48.1091         0.008903   
    104. D(F  22,C   9,C   8,F  19)    -69.0724         0.008903   
    105. D(F  22,C   9,C   8,C   7)    169.3552         0.008903   
    106. D(F  21,C   9,C   8,F  20)    -71.2185         0.008903   
    107. D(F  21,C   9,C   8,F  19)    171.5999         0.008903   
    108. D(F  21,C   9,C   8,C   7)     50.0276         0.008903   
    -----------------------------------------------------------------

Number of atoms                         .... 25
Number of degrees of freedom            .... 108


         *************************************************************
         *                GEOMETRY OPTIMIZATION CYCLE   1            *
         *************************************************************
---------------------------------
CARTESIAN COORDINATES (ANGSTROEM)
---------------------------------
  C      4.790427   -0.033866   -0.529943
  O      5.449345   -1.206924   -0.894595
  O      4.978223    1.323071   -0.737377
  C      3.506688   -0.338742    0.376154
  C      2.222300    0.400525   -0.110682
  C      0.900507   -0.386390    0.175703
  C     -0.395261    0.487294    0.065549
  C     -1.705694   -0.364774   -0.068374
  C     -3.005136    0.445345    0.258164
  C     -4.319880   -0.214526   -0.270541
  F      3.211587   -1.692050    0.412735
  F      3.741062    0.055286    1.689949
  F      2.125697    1.616868    0.483237
  F      2.314152    0.589704   -1.455769
  F      0.794029   -1.413561   -0.700839
  F      0.958351   -0.884509    1.435093
  F     -0.498373    1.260266    1.173340
  F     -0.299075    1.289513   -1.020911
  F     -1.792381   -0.831392   -1.336864
  F     -2.918792    1.679227   -0.295171
  F     -3.119771    0.573780    1.598580
  F     -4.383116   -1.504378    0.089128
  F     -5.365670    0.430529    0.260394
  F     -4.396020   -0.128551   -1.602942
  H      5.903122   -2.014775   -1.145719

----------------------------
CARTESIAN COORDINATES (A.U.)
----------------------------
  NO LB      ZA    FRAG     MASS         X           Y           Z
   0 C     6.0000    0    12.011    9.052595   -0.063997   -1.001448
   1 O     8.0000    0    15.999   10.297770   -2.280756   -1.690539
   2 O     8.0000    0    15.999    9.407478    2.500242   -1.393441
   3 C     6.0000    0    12.011    6.626679   -0.640129    0.710828
   4 C     6.0000    0    12.011    4.199538    0.756882   -0.209158
   5 C     6.0000    0    12.011    1.701711   -0.730171    0.332031
   6 C     6.0000    0    12.011   -0.746935    0.920852    0.123870
   7 C     6.0000    0    12.011   -3.223294   -0.689323   -0.129207
   8 C     6.0000    0    12.011   -5.678884    0.841580    0.487859
   9 C     6.0000    0    12.011   -8.163391   -0.405395   -0.511248
  10 F     9.0000    0    18.998    6.069021   -3.197512    0.779956
  11 F     9.0000    0    18.998    7.069582    0.104475    3.193540
  12 F     9.0000    0    18.998    4.016985    3.055437    0.913185
  13 F     9.0000    0    18.998    4.373114    1.114379   -2.751005
  14 F     9.0000    0    18.998    1.500497   -2.671244   -1.324394
  15 F     9.0000    0    18.998    1.811020   -1.671480    2.711934
  16 F     9.0000    0    18.998   -0.941789    2.381557    2.217292
  17 F     9.0000    0    18.998   -0.565170    2.436826   -1.929242
  18 F     9.0000    0    18.998   -3.387110   -1.571102   -2.526306
  19 F     9.0000    0    18.998   -5.515718    3.173280   -0.557793
  20 F     9.0000    0    18.998   -5.895513    1.084287    3.020878
  21 F     9.0000    0    18.998   -8.282888   -2.842862    0.168427
  22 F     9.0000    0    18.998  -10.139646    0.813581    0.492074
  23 F     9.0000    0    18.998   -8.307275   -0.242925   -3.029121
  24 H     1.0000    0     1.008   11.155285   -3.807372   -2.165096

--------------------------------
INTERNAL COORDINATES (ANGSTROEM)
--------------------------------
 C      0   0   0     0.000000000000     0.00000000     0.00000000
 O      1   0   0     1.393990356793     0.00000000     0.00000000
 O      1   2   0     1.385486802956   136.13177198     0.00000000
 C      1   2   3     1.600608594862   111.52489317   181.18992567
 C      4   1   2     1.559863783763   113.16872737   228.91614990
 C      5   4   1     1.564732561934   113.58394786   148.64287440
 C      6   5   4     1.566675459667   113.91280616   163.93256239
 C      7   6   5     1.568817348692   113.20226571   162.98152714
 C      8   7   6     1.565717094808   113.22984595   162.36375422
 C      9   8   7     1.563173062643   114.14707705   162.41661495
 F      4   1   2     1.385592665621   111.82651119   350.11101305
 F      4   1   2     1.391490625050   110.20991618   108.63170802
 F      5   4   1     1.357041377479   110.29260564   270.15468021
 F      5   4   1     1.361428031433   108.58179722    28.57841973
 F      6   5   4     1.354527570075   109.22822656   285.03385927
 F      6   5   4     1.355556277776   108.59004089    43.81583148
 F      7   6   5     1.354739297058   108.88346185   283.65347401
 F      7   6   5     1.353957667090   109.15230848    42.38718856
 F      8   7   6     1.354368423305   108.69554158   283.25540020
 F      9   8   7     1.355028009646   109.45719767    41.95842364
 F      9   8   7     1.351425618925   109.05210362   282.91820052
 F     10   9   8     1.340551089588   110.79953142    50.02756898
 F     10   9   8     1.338530275591   108.63493714   169.35523750
 F     10   9   8     1.337341214598   110.96044107   288.72891896
 H      2   1   3     0.960000000033   180.00000000     0.00000000

---------------------------
INTERNAL COORDINATES (A.U.)
---------------------------
 C      0   0   0     0.000000000000     0.00000000     0.00000000
 O      1   0   0     2.634260007667     0.00000000     0.00000000
 O      1   2   0     2.618190619750   136.13177198     0.00000000
 C      1   2   3     3.024711891890   111.52489317   181.18992567
 C      4   1   2     2.947715357535   113.16872737   228.91614990
 C      5   4   1     2.956916014884   113.58394786   148.64287440
 C      6   5   4     2.960587559506   113.91280616   163.93256239
 C      7   6   5     2.964635143173   113.20226571   162.98152714
 C      8   7   6     2.958776512386   113.22984595   162.36375422
 C      9   8   7     2.953968988318   114.14707705   162.41661495
 F      4   1   2     2.618390671194   111.82651119   350.11101305
 F      4   1   2     2.629536199263   110.20991618   108.63170802
 F      5   4   1     2.564436555835   110.29260564   270.15468021
 F      5   4   1     2.572726130452   108.58179722    28.57841973
 F      6   5   4     2.559686148288   109.22822656   285.03385927
 F      6   5   4     2.561630124115   108.59004089    43.81583148
 F      7   6   5     2.560086254300   108.88346185   283.65347401
 F      7   6   5     2.558609187723   109.15230848    42.38718856
 F      8   7   6     2.559385404477   108.69554158   283.25540020
 F      9   8   7     2.560631842023   109.45719767    41.95842364
 F      9   8   7     2.553824310132   109.05210362   282.91820052
 F     10   9   8     2.533274427850   110.79953142    50.02756898
 F     10   9   8     2.529455642830   108.63493714   169.35523750
 F     10   9   8     2.527208643196   110.96044107   288.72891896
 H      2   1   3     1.814137088628   180.00000000     0.00000000

---------------------
BASIS SET INFORMATION
---------------------
There are 4 groups of distinct atoms

 Group   1 Type C   : 11s6p2d1f contracted to 5s3p2d1f pattern {62111/411/11/1}
 Group   2 Type O   : 11s6p2d1f contracted to 5s3p2d1f pattern {62111/411/11/1}
 Group   3 Type F   : 11s6p2d1f contracted to 5s3p2d1f pattern {62111/411/11/1}
 Group   4 Type H   : 5s1p contracted to 3s1p pattern {311/1}

Atom   0C    basis set group =>   1
Atom   1O    basis set group =>   2
Atom   2O    basis set group =>   2
Atom   3C    basis set group =>   1
Atom   4C    basis set group =>   1
Atom   5C    basis set group =>   1
Atom   6C    basis set group =>   1
Atom   7C    basis set group =>   1
Atom   8C    basis set group =>   1
Atom   9C    basis set group =>   1
Atom  10F    basis set group =>   3
Atom  11F    basis set group =>   3
Atom  12F    basis set group =>   3
Atom  13F    basis set group =>   3
Atom  14F    basis set group =>   3
Atom  15F    basis set group =>   3
Atom  16F    basis set group =>   3
Atom  17F    basis set group =>   3
Atom  18F    basis set group =>   3
Atom  19F    basis set group =>   3
Atom  20F    basis set group =>   3
Atom  21F    basis set group =>   3
Atom  22F    basis set group =>   3
Atom  23F    basis set group =>   3
Atom  24H    basis set group =>   4
---------------------------------
AUXILIARY/J BASIS SET INFORMATION
---------------------------------
There are 4 groups of distinct atoms

 Group   1 Type C   : 12s5p4d2f1g contracted to 6s4p3d1f1g pattern {711111/2111/211/2/1}
 Group   2 Type O   : 12s5p4d2f1g contracted to 6s4p3d1f1g pattern {711111/2111/211/2/1}
 Group   3 Type F   : 12s5p4d2f1g contracted to 6s4p3d1f1g pattern {711111/2111/211/2/1}
 Group   4 Type H   : 5s2p1d contracted to 3s1p1d pattern {311/2/1}

Atom   0C    basis set group =>   1
Atom   1O    basis set group =>   2
Atom   2O    basis set group =>   2
Atom   3C    basis set group =>   1
Atom   4C    basis set group =>   1
Atom   5C    basis set group =>   1
Atom   6C    basis set group =>   1
Atom   7C    basis set group =>   1
Atom   8C    basis set group =>   1
Atom   9C    basis set group =>   1
Atom  10F    basis set group =>   3
Atom  11F    basis set group =>   3
Atom  12F    basis set group =>   3
Atom  13F    basis set group =>   3
Atom  14F    basis set group =>   3
Atom  15F    basis set group =>   3
Atom  16F    basis set group =>   3
Atom  17F    basis set group =>   3
Atom  18F    basis set group =>   3
Atom  19F    basis set group =>   3
Atom  20F    basis set group =>   3
Atom  21F    basis set group =>   3
Atom  22F    basis set group =>   3
Atom  23F    basis set group =>   3
Atom  24H    basis set group =>   4


           ************************************************************
           *        Program running with 20 parallel MPI-processes    *
           *              working on a common directory               *
           ************************************************************
------------------------------------------------------------------------------
                             ORCA STARTUP CALCULATIONS
                           -- RI-GTO INTEGRALS CHOSEN --
------------------------------------------------------------------------------
------------------------------------------------------------------------------
                   ___                                                        
                  /   \      - P O W E R E D   B Y -                         
                 /     \                                                     
                 |  |  |   _    _      __       _____    __    __             
                 |  |  |  | |  | |    /  \     |  _  \  |  |  /  |          
                  \  \/   | |  | |   /    \    | | | |  |  | /  /          
                 / \  \   | |__| |  /  /\  \   | |_| |  |  |/  /          
                |  |  |   |  __  | /  /__\  \  |    /   |      \           
                |  |  |   | |  | | |   __   |  |    \   |  |\   \          
                \     /   | |  | | |  |  |  |  | |\  \  |  | \   \       
                 \___/    |_|  |_| |__|  |__|  |_| \__\ |__|  \__/        
                                                                              
                      - O R C A' S   B I G   F R I E N D -                    
                                      &                                       
                       - I N T E G R A L  F E E D E R -                       
                                                                              
 v1 FN, 2020, v2 2021, v3 2022-2024                                           
------------------------------------------------------------------------------


----------------------
SHARK INTEGRAL PACKAGE
----------------------

Number of atoms                             ...     25
Number of basis functions                   ...    750
Number of shells                            ...    268
Maximum angular momentum                    ...      3
Integral batch strategy                     ... SHARK/LIBINT Hybrid
RI-J (if used) integral strategy            ... SPLIT-RIJ (Revised 2003 algorithm where possible)
Printlevel                                  ...      1
Contraction scheme used                     ... SEGMENTED contraction
Prescreening option                         ... SCHWARTZ
   Thresh                                   ... 2.500e-11
   Tcut                                     ... 2.500e-12
   Tpresel                                  ... 2.500e-12 
Coulomb Range Separation                    ... NOT USED
Exchange Range Separation                   ... NOT USED
Multipole approximations                    ... NOT USED
Finite Nucleus Model                        ... NOT USED
CABS basis                                  ... NOT available
Auxiliary Coulomb fitting basis             ... AVAILABLE
   # of basis functions in Aux-J            ...   1187
   # of shells in Aux-J                     ...    365
   Maximum angular momentum in Aux-J        ...      4
Auxiliary J/K fitting basis                 ... NOT available
Auxiliary Correlation fitting basis         ... NOT available
Auxiliary 'external' fitting basis          ... NOT available

Checking pre-screening integrals            ... done (  0.0 sec) Dimension = 268
Check shell pair data                       ... done (  0.0 sec)
Shell pair information
Shell pair cut-off parameter TPreSel        ...   2.5e-12
Total number of shell pairs                 ...     36046
Shell pairs after pre-screening             ...     21958
Total number of primitive shell pairs       ...    118872
Primitive shell pairs kept                  ...     46600
          la=0 lb=0:   4192 shell pairs
          la=1 lb=0:   5994 shell pairs
          la=1 lb=1:   2074 shell pairs
          la=2 lb=0:   3260 shell pairs
          la=2 lb=1:   2381 shell pairs
          la=2 lb=2:    672 shell pairs
          la=3 lb=0:   1480 shell pairs
          la=3 lb=1:   1144 shell pairs
          la=3 lb=2:    613 shell pairs
          la=3 lb=3:    148 shell pairs

Calculating one electron integrals          ... done (  0.1 sec)
Calculating RI/J V-Matrix + Cholesky decomp.... done (  0.1 sec)
Calculating Nuclear repulsion               ... done (  0.0 sec) ENN=   2615.292713485126 Eh

Diagonalization of the overlap matrix:
Smallest eigenvalue                        ... 6.664e-05
Time for diagonalization                   ...    0.108 sec
Threshold for overlap eigenvalues          ... 1.000e-07
Number of eigenvalues below threshold      ... 0
Time for construction of square roots      ...    0.045 sec
Total time needed                          ...    0.158 sec

-------------------
DFT GRID GENERATION
-------------------

General Integration Accuracy     IntAcc      ... 4.388
Radial Grid Type                 RadialGrid  ... OptM3 with GC (2021)
Angular Grid (max. ang.)         AngularGrid ... 4 (Lebedev-302)
Angular grid pruning method      GridPruning ... 4 (adaptive)
Weight generation scheme         WeightScheme... mBecke (2022)
Basis function cutoff            BFCut       ... 1.0000e-11
Integration weight cutoff        WCut        ... 1.0000e-14
Partially contracted basis set               ... off
Rotationally invariant grid construction     ... off
Angular grids for H and He will be reduced by one unit

Total number of grid points                  ...   148750
Total number of batches                      ...     2335
Average number of points per batch           ...       63
Average number of grid points per atom       ...     5950

--------------------
COSX GRID GENERATION
--------------------

GRIDX 1
-------
General Integration Accuracy     IntAcc      ... 3.816
Radial Grid Type                 RadialGrid  ... OptM3 with GC (2021)
Angular Grid (max. ang.)         AngularGrid ... 1 (Lebedev-50)
Angular grid pruning method      GridPruning ... 4 (adaptive)
Weight generation scheme         WeightScheme... mBecke (2022)
Basis function cutoff            BFCut       ... 1.0000e-11
Integration weight cutoff        WCut        ... 1.0000e-14
Partially contracted basis set               ... on
Rotationally invariant grid construction     ... off
Angular grids for H and He will be reduced by one unit

Total number of grid points                  ...    18713
Total number of batches                      ...      158
Average number of points per batch           ...      118
Average number of grid points per atom       ...      749
UseSFitting                                  ... on

GRIDX 2
-------
General Integration Accuracy     IntAcc      ... 4.020
Radial Grid Type                 RadialGrid  ... OptM3 with GC (2021)
Angular Grid (max. ang.)         AngularGrid ... 2 (Lebedev-110)
Angular grid pruning method      GridPruning ... 4 (adaptive)
Weight generation scheme         WeightScheme... mBecke (2022)
Basis function cutoff            BFCut       ... 1.0000e-11
Integration weight cutoff        WCut        ... 1.0000e-14
Partially contracted basis set               ... on
Rotationally invariant grid construction     ... off
Angular grids for H and He will be reduced by one unit

Total number of grid points                  ...    44130
Total number of batches                      ...      359
Average number of points per batch           ...      122
Average number of grid points per atom       ...     1765
UseSFitting                                  ... on

GRIDX 3
-------
General Integration Accuracy     IntAcc      ... 4.338
Radial Grid Type                 RadialGrid  ... OptM3 with GC (2021)
Angular Grid (max. ang.)         AngularGrid ... 3 (Lebedev-194)
Angular grid pruning method      GridPruning ... 4 (adaptive)
Weight generation scheme         WeightScheme... mBecke (2022)
Basis function cutoff            BFCut       ... 1.0000e-11
Integration weight cutoff        WCut        ... 1.0000e-14
Partially contracted basis set               ... on
Rotationally invariant grid construction     ... off
Angular grids for H and He will be reduced by one unit

Total number of grid points                  ...    97707
Total number of batches                      ...      775
Average number of points per batch           ...      126
Average number of grid points per atom       ...     3908
UseSFitting                                  ... on
Initializing property integral containers    ... done (  0.0 sec)

SHARK setup successfully completed in   3.1 seconds

Maximum memory used throughout the entire STARTUP-calculation: 56.8 MB


           ************************************************************
           *        Program running with 20 parallel MPI-processes    *
           *              working on a common directory               *
           ************************************************************
-------------------------------------------------------------------------------
                                 ORCA GUESS
                   Start orbitals & Density for SCF / CASSCF
-------------------------------------------------------------------------------

------------
SCF SETTINGS
------------
Hamiltonian:
 Density Functional     Method          .... DFT(GTOs)
 Exchange Functional    Exchange        .... B88
   X-Alpha parameter    XAlpha          ....  0.666667
   Becke's b parameter  XBeta           ....  0.004200
 Correlation Functional Correlation     .... LYP
 LDA part of GGA corr.  LDAOpt          .... VWN-5
 Gradients option       PostSCFGGA      .... off
 Hybrid DFT is turned on
   Fraction HF Exchange ScalHFX         ....  0.200000
   Scaling of DF-GGA-X  ScalDFX         ....  0.720000
   Scaling of DF-GGA-C  ScalDFC         ....  0.810000
   Scaling of DF-LDA-C  ScalLDAC        ....  1.000000
   Perturbative correction              ....  0.000000
   NL short-range parameter             ....  4.800000
 RI-approximation to the Coulomb term is turned on
   Number of AuxJ basis functions       .... 1187
   RIJ-COSX (HFX calculated with COS-X)).... on


General Settings:
 Integral files         IntName         .... rf_mecn_opt_B3L_C6_P_B
 Hartree-Fock type      HFTyp           .... UHF
 Total Charge           Charge          ....    0
 Multiplicity           Mult            ....    2
 Number of Electrons    NEL             ....  191
 Basis Dimension        Dim             ....  750
 Nuclear Repulsion      ENuc            ....   2615.2927134851 Eh

Convergence Acceleration:
 AO-DIIS                CNVDIIS         .... on
   Start iteration      DIISMaxIt       ....     0
   Startup error        DIISStart       ....  0.200000
   # of expansion vecs  DIISMaxEq       ....     5
   Bias factor          DIISBfac        ....   1.050
   Max. coefficient     DIISMaxC        ....  10.000
 MO-DIIS                CNVKDIIS        .... off
 Trust-Rad. Augm. Hess. CNVTRAH         .... auto
   Auto Start mean grad. ratio tolernc. ....  1.125000
   Auto Start start iteration           ....    50
   Auto Start num. interpolation iter.  ....    10
   Max. Number of Micro iterations      ....    24
   Max. Number of Macro iterations      .... Maxiter - #DIIS iter
   Number of Davidson start vectors     ....     2
   Converg. threshold    (grad. norm)   ....   1.000e-05
   Grad. Scal. Fac. for Micro threshold ....   0.100
   Minimum threshold for Micro iter.    ....   1.000e-02
   NR start threshold (gradient norm)   ....   1.000e-04
   Initial trust radius                 ....   0.400
   Minimum AH scaling param. (alpha)    ....   1.000
   Maximum AH scaling param. (alpha)    .... 1000.000
   Quad. conv. algorithm                .... NR
   White noise on init. David. guess    .... on
   Maximum white noise                  ....   0.010
   Pseudo random numbers                .... off
   Inactive MOs                         .... canonical
   Orbital update algorithm             .... Taylor
   Preconditioner                       .... Diag
   Full preconditioner red. dimension   ....   250
 SOSCF                  CNVSOSCF        .... on
   Start iteration      SOSCFMaxIt      ....   150
   Startup grad/error   SOSCFStart      ....  0.001000
   Hessian update       SOSCFHessUp     .... L-BFGS
 Level Shifting         CNVShift        .... on
   Level shift para.    LevelShift      ....    0.2500
   Turn off err/grad.   ShiftErr        ....    0.0000
 Zerner damping         CNVZerner       .... off
 Static damping         CNVDamp         .... on
   Fraction old density DampFac         ....    0.8500
   Max. Damping (<1)    DampMax         ....    0.9800
   Min. Damping (>=0)   DampMin         ....    0.0000
   Turn off err/grad.   DampErr         ....    0.0300

SCF Procedure:
 Maximum # iterations   MaxIter         ....  1500
 SCF integral mode      SCFMode         .... Direct
   Integral package                     .... SHARK and LIBINT hybrid scheme
 Reset frequency        DirectResetFreq ....    20
 Integral Threshold     Thresh          ....  2.500e-11 Eh
 Primitive CutOff       TCut            ....  2.500e-12 Eh

Convergence Tolerance:
 Convergence Check Mode ConvCheckMode   .... Total+1el-Energy
 Convergence forced     ConvForced      .... 0
 Energy Change          TolE            ....  1.000e-08 Eh
 1-El. energy change                    ....  1.000e-05 Eh
 Orbital Gradient       TolG            ....  1.000e-05
 Orbital Rotation angle TolX            ....  1.000e-05
 DIIS Error             TolErr          ....  5.000e-07

------------------------------
INITIAL GUESS: MODEL POTENTIAL
------------------------------
Loading Hartree-Fock densities                     ... done
Calculating cut-offs                               ... done
Initializing the effective Hamiltonian             ... done
Setting up the integral package (SHARK)            ... done
Starting the Coulomb interaction                   ... done (   0.1 sec)
Making the grid                                    ... done (   0.4 sec)
Mapping shells                                     ... done
Starting the XC term evaluation                    ... done (   0.1 sec)
  promolecular density results
     # of electrons  =    190.999943354
     EX              =   -198.447452235
     EC              =     -7.161250069
     EX+EC           =   -205.608702304
Transforming the Hamiltonian                       ... done (   0.0 sec)
Diagonalizing the Hamiltonian                      ... done (   0.1 sec)
Back transforming the eigenvectors                 ... done (   0.0 sec)
Now organizing SCF variables                       ... done
                      ------------------
                      INITIAL GUESS DONE (   0.9 sec)
                      ------------------
             **** ENERGY FILE WAS UPDATED (rf_mecn_opt_B3L_C6_P_B.en.tmp) ****
Finished Guess after   1.6 sec
Maximum memory used throughout the entire GUESS-calculation: 45.9 MB


           ************************************************************
           *        Program running with 20 parallel MPI-processes    *
           *              working on a common directory               *
           ************************************************************

-------------------------------------------------------------------------------------------
                                      ORCA LEAN-SCF
                              memory conserving SCF solver
-------------------------------------------------------------------------------------------

--------------------
CPCM SOLVATION MODEL
--------------------
CPCM parameters:
  Epsilon                                         ...      35.6880
  Refrac                                          ...       1.3442
  Rsolv                                           ...       1.3000
  Surface type                                    ... GAUSSIAN VDW
  Discretization scheme                           ... Constant charge density
    Threshold for H atoms                         ...       5.0000 (charges/Ang^2)
    Threshold for non-H atoms                     ...       5.0000 (charges/Ang^2)
  Epsilon function type                           ...         CPCM
Solvent:                                          ... ACETONITRILE
SMD-CDS solvent descriptors:
  Soln                                            ...       1.3442
  Soln25                                          ...       1.3416
  Sola                                            ...       0.0700
  Solb                                            ...       0.3200
  Solg                                            ...      41.2500
  Solc                                            ...       0.0000
  Solh                                            ...       0.0000
Radii:
  Scheme                                          ... Element-dependent radii
  Radius for C  used is    3.4960 Bohr (=   1.8500 Ang.)
  Radius for O  used is    4.0969 Bohr (=   2.1680 Ang.)
  Radius for F  used is    3.2692 Bohr (=   1.7300 Ang.)
  Radius for H  used is    2.2677 Bohr (=   1.2000 Ang.)
Calculating surface                               ...        done! (  0.0s)
Cavity surface points                             ...         2173
Cavity Volume                                     ...    2134.2679
Cavity Surface-area                               ...    1120.4463
Calculating surface distance matrix               ...        done! (  0.0s)
Performing Cholesky decomposition & store         ...        done! (  0.1s)
Overall time for CPCM initialization              ...                 0.1s

----------------------------------------D-I-I-S--------------------------------------------
Iteration    Energy (Eh)           Delta-E    RMSDP     MaxDP     DIISErr   Damp  Time(sec)
-------------------------------------------------------------------------------------------
               ***  Starting incremental Fock matrix formation  ***
    1    -1853.0535776475012426     0.00e+00  2.17e-04  1.71e-02  1.57e-01  0.850   6.2
Warning: op=1 Small HOMO/LUMO gap (   0.047) - skipping pre-diagonalization
         Will do a full diagonalization
    2    -1853.2257714690872490    -1.72e-01  2.06e-04  1.66e-02  9.71e-02  0.850   4.2
                               ***Turning on AO-DIIS***
    3    -1853.3123060167886251    -8.65e-02  8.56e-05  4.85e-03  5.55e-02  0.850   3.6
    4    -1853.3634509467342468    -5.11e-02  4.81e-05  3.95e-03  4.00e-02  0.850   3.4
    5    -1853.3996840981794776    -3.62e-02  3.56e-05  4.30e-03  3.29e-02  0.850   4.1
    6    -1853.4285698936550943    -2.89e-02  3.11e-05  4.25e-03  2.98e-02  0.850   3.9
    7    -1853.4528543615338094    -2.43e-02  1.98e-04  2.72e-02  2.52e-02  0.000   3.9
    8    -1853.5807603602547715    -1.28e-01  5.60e-05  8.29e-03  1.45e-02  0.000   4.2
    9    -1853.5809319009408682    -1.72e-04  2.04e-05  2.82e-03  1.30e-02  0.000   3.7
   10    -1853.5819547406322272    -1.02e-03  8.47e-06  6.33e-04  3.36e-03  0.000   3.8
                              *** Initializing SOSCF ***
---------------------------------------S-O-S-C-F--------------------------------------
Iteration    Energy (Eh)           Delta-E    RMSDP     MaxDP     MaxGrad    Time(sec)
--------------------------------------------------------------------------------------
   11    -1853.5820401022588158    -8.54e-05  3.61e-06  3.45e-04  8.86e-04     3.9
               *** Restarting incremental Fock matrix formation ***
   12    -1853.5820643464771820    -2.42e-05  2.81e-06  1.81e-04  1.47e-04     7.1
   13    -1853.5820646714832947    -3.25e-07  1.49e-06  1.06e-04  2.37e-04     4.5
   14    -1853.5820659539690496    -1.28e-06  9.23e-07  1.07e-04  8.07e-05     4.3
   15    -1853.5820656798991877     2.74e-07  6.61e-07  6.69e-05  2.25e-04     4.1
   16    -1853.5820660251561094    -3.45e-07  3.36e-07  2.74e-05  2.08e-05     3.6
   17    -1853.5820660441363543    -1.90e-08  1.62e-07  1.24e-05  1.92e-05     3.8
   18    -1853.5820660374542967     6.68e-09  1.01e-07  1.12e-05  1.38e-06     3.3
                 **** Energy Check signals convergence ****

               *****************************************************
               *                     SUCCESS                       *
               *           SCF CONVERGED AFTER  18 CYCLES          *
               *****************************************************

Recomputing exchange energy using gridx3       ... done (    9.003 sec)
Old exchange energy                            :    -39.748742035 Eh
New exchange energy                            :    -39.748762341 Eh
Exchange energy change after final integration :     -0.000020306 Eh
Total energy after final integration           :  -1853.582086343 Eh

SMD CDS free energy correction energy :                 3.65543     Kcal/mol
Total Energy after SMD CDS correction =             -1853.576261053 Eh
             **** ENERGY FILE WAS UPDATED (rf_mecn_opt_B3L_C6_P_B.en.tmp) ****

----------------
TOTAL SCF ENERGY
----------------

Total Energy       :      -1853.57626105261807 Eh          -50438.37430 eV

Components:
Nuclear Repulsion  :       2615.29271348512566 Eh           71165.73273 eV
Electronic Energy  :      -4468.85645359043247 Eh         -121603.76632 eV
One Electron Energy:      -7782.14442027377845 Eh         -211762.91549 eV
Two Electron Energy:       3313.28796668334599 Eh           90159.14918 eV
CPCM Dielectric    :         -0.01832593214776 Eh              -0.49867 eV
SMD CDS (Gcds)     :          0.00582529051169 Eh               0.15851 eV

Virial components:
Potential Energy   :      -3699.66342855995663 Eh         -100672.96001 eV
Kinetic Energy     :       1846.08716750733834 Eh           50234.58570 eV
Virial Ratio       :          2.00405673885670

DFT components:
N(Alpha)           :       95.999982930406 electrons
N(Beta)            :       94.999979075212 electrons
N(Total)           :      190.999962005618 electrons
E(X)               :     -158.461021514151 Eh       
E(C)               :       -8.363572756786 Eh       
E(XC)              :     -166.824594270937 Eh       

CPCM Solvation Model Properties:
Surface-charge          :         -0.00944263174878
Corrected charge        :          0.00000000000000
Outlying charge corr.   :          0.00000484764438 Eh               0.00013 eV
Free-energy (cav+disp)  :          0.00582529051169 Eh               0.15851 eV

---------------
SCF CONVERGENCE
---------------

  Last Energy change         ...   -6.6821e-09  Tolerance :   1.0000e-08
  Last MAX-Density change    ...    1.1210e-05  Tolerance :   1.0000e-07
  Last RMS-Density change    ...    1.0134e-07  Tolerance :   5.0000e-09
  Last DIIS Error            ...    8.8608e-04  Tolerance :   5.0000e-07
  Last Orbital Gradient      ...    1.3808e-06  Tolerance :   1.0000e-05
  Last Orbital Rotation      ...    5.1879e-06  Tolerance :   1.0000e-05


----------------------
UHF SPIN CONTAMINATION
----------------------

Warning: in a DFT calculation there is little theoretical justification to 
         calculate <S**2> as in Hartree-Fock theory. We will do it anyways
         but you should keep in mind that the values have only limited relevance

Expectation value of <S**2>     :     0.753062
Ideal value S*(S+1) for S=0.5   :     0.750000
Deviation                       :     0.003062

----------------
ORBITAL ENERGIES
----------------
                 SPIN UP ORBITALS
  NO   OCC          E(Eh)            E(eV) 
   0   1.0000     -24.751023      -673.5096 
   1   1.0000     -24.744395      -673.3292 
   2   1.0000     -24.743351      -673.3008 
   3   1.0000     -24.742696      -673.2830 
   4   1.0000     -24.741814      -673.2590 
   5   1.0000     -24.741794      -673.2584 
   6   1.0000     -24.741723      -673.2565 
   7   1.0000     -24.741206      -673.2424 
   8   1.0000     -24.740463      -673.2222 
   9   1.0000     -24.739965      -673.2087 
  10   1.0000     -24.738173      -673.1599 
  11   1.0000     -24.737281      -673.1356 
  12   1.0000     -24.732756      -673.0125 
  13   1.0000     -24.732678      -673.0104 
  14   1.0000     -19.204472      -522.5802 
  15   1.0000     -19.172700      -521.7157 
  16   1.0000     -10.460248      -284.6378 
  17   1.0000     -10.409710      -283.2626 
  18   1.0000     -10.409380      -283.2536 
  19   1.0000     -10.407563      -283.2042 
  20   1.0000     -10.407039      -283.1899 
  21   1.0000     -10.406768      -283.1825 
  22   1.0000     -10.406668      -283.1798 
  23   1.0000     -10.345117      -281.5049 
  24   1.0000      -1.349311       -36.7166 
  25   1.0000      -1.326343       -36.0916 
  26   1.0000      -1.311880       -35.6981 
  27   1.0000      -1.304640       -35.5010 
  28   1.0000      -1.300925       -35.4000 
  29   1.0000      -1.285707       -34.9859 
  30   1.0000      -1.283771       -34.9332 
  31   1.0000      -1.261766       -34.3344 
  32   1.0000      -1.259242       -34.2657 
  33   1.0000      -1.258202       -34.2374 
  34   1.0000      -1.250309       -34.0226 
  35   1.0000      -1.248275       -33.9673 
  36   1.0000      -1.246025       -33.9061 
  37   1.0000      -1.232435       -33.5363 
  38   1.0000      -1.090494       -29.6739 
  39   1.0000      -1.003864       -27.3165 
  40   1.0000      -0.850483       -23.1428 
  41   1.0000      -0.835082       -22.7237 
  42   1.0000      -0.806739       -21.9525 
  43   1.0000      -0.775345       -21.0982 
  44   1.0000      -0.741042       -20.1648 
  45   1.0000      -0.709437       -19.3048 
  46   1.0000      -0.684982       -18.6393 
  47   1.0000      -0.674931       -18.3658 
  48   1.0000      -0.643684       -17.5155 
  49   1.0000      -0.639203       -17.3936 
  50   1.0000      -0.633924       -17.2500 
  51   1.0000      -0.631982       -17.1971 
  52   1.0000      -0.628812       -17.1108 
  53   1.0000      -0.625520       -17.0213 
  54   1.0000      -0.610362       -16.6088 
  55   1.0000      -0.604336       -16.4448 
  56   1.0000      -0.600515       -16.3409 
  57   1.0000      -0.596868       -16.2416 
  58   1.0000      -0.588545       -16.0151 
  59   1.0000      -0.584238       -15.8979 
  60   1.0000      -0.579682       -15.7740 
  61   1.0000      -0.572199       -15.5703 
  62   1.0000      -0.529032       -14.3957 
  63   1.0000      -0.513688       -13.9782 
  64   1.0000      -0.511236       -13.9115 
  65   1.0000      -0.504609       -13.7311 
  66   1.0000      -0.502469       -13.6729 
  67   1.0000      -0.501563       -13.6482 
  68   1.0000      -0.499556       -13.5936 
  69   1.0000      -0.495751       -13.4901 
  70   1.0000      -0.489263       -13.3135 
  71   1.0000      -0.485594       -13.2137 
  72   1.0000      -0.482238       -13.1224 
  73   1.0000      -0.477581       -12.9956 
  74   1.0000      -0.474400       -12.9091 
  75   1.0000      -0.469197       -12.7675 
  76   1.0000      -0.466123       -12.6839 
  77   1.0000      -0.464118       -12.6293 
  78   1.0000      -0.460602       -12.5336 
  79   1.0000      -0.458084       -12.4651 
  80   1.0000      -0.453672       -12.3450 
  81   1.0000      -0.449132       -12.2215 
  82   1.0000      -0.448458       -12.2032 
  83   1.0000      -0.446092       -12.1388 
  84   1.0000      -0.442819       -12.0497 
  85   1.0000      -0.440710       -11.9923 
  86   1.0000      -0.438702       -11.9377 
  87   1.0000      -0.436926       -11.8894 
  88   1.0000      -0.432694       -11.7742 
  89   1.0000      -0.419779       -11.4228 
  90   1.0000      -0.391744       -10.6599 
  91   1.0000      -0.368281       -10.0214 
  92   1.0000      -0.352483        -9.5916 
  93   1.0000      -0.344966        -9.3870 
  94   1.0000      -0.319811        -8.7025 
  95   1.0000      -0.307480        -8.3669 
  96   0.0000      -0.099500        -2.7075 
  97   0.0000      -0.021061        -0.5731 
  98   0.0000      -0.007225        -0.1966 
  99   0.0000       0.015448         0.4204 
 100   0.0000       0.026295         0.7155 
 101   0.0000       0.049783         1.3547 
 102   0.0000       0.073187         1.9915 
 103   0.0000       0.082489         2.2446 
 104   0.0000       0.094377         2.5681 
 105   0.0000       0.100387         2.7317 
 106   0.0000       0.103881         2.8267 

                 SPIN DOWN ORBITALS
  NO   OCC          E(Eh)            E(eV) 
   0   1.0000     -24.746749      -673.3933 
   1   1.0000     -24.744321      -673.3272 
   2   1.0000     -24.743348      -673.3007 
   3   1.0000     -24.742716      -673.2835 
   4   1.0000     -24.741683      -673.2554 
   5   1.0000     -24.741167      -673.2414 
   6   1.0000     -24.740774      -673.2307 
   7   1.0000     -24.740462      -673.2222 
   8   1.0000     -24.740460      -673.2221 
   9   1.0000     -24.739908      -673.2071 
  10   1.0000     -24.738171      -673.1598 
  11   1.0000     -24.737203      -673.1335 
  12   1.0000     -24.732755      -673.0125 
  13   1.0000     -24.732678      -673.0104 
  14   1.0000     -19.204472      -522.5802 
  15   1.0000     -19.172700      -521.7157 
  16   1.0000     -10.460293      -284.6390 
  17   1.0000     -10.409711      -283.2626 
  18   1.0000     -10.409178      -283.2481 
  19   1.0000     -10.407574      -283.2045 
  20   1.0000     -10.406866      -283.1852 
  21   1.0000     -10.406721      -283.1813 
  22   1.0000     -10.406669      -283.1799 
  23   1.0000     -10.329548      -281.0813 
  24   1.0000      -1.349150       -36.7122 
  25   1.0000      -1.325718       -36.0746 
  26   1.0000      -1.310452       -35.6592 
  27   1.0000      -1.303769       -35.4774 
  28   1.0000      -1.300438       -35.3867 
  29   1.0000      -1.285692       -34.9855 
  30   1.0000      -1.275463       -34.7071 
  31   1.0000      -1.261378       -34.3238 
  32   1.0000      -1.258798       -34.2536 
  33   1.0000      -1.257794       -34.2263 
  34   1.0000      -1.249374       -33.9972 
  35   1.0000      -1.247246       -33.9393 
  36   1.0000      -1.245673       -33.8965 
  37   1.0000      -1.232434       -33.5362 
  38   1.0000      -1.090494       -29.6739 
  39   1.0000      -1.003863       -27.3165 
  40   1.0000      -0.845726       -23.0134 
  41   1.0000      -0.828041       -22.5321 
  42   1.0000      -0.805958       -21.9312 
  43   1.0000      -0.770679       -20.9713 
  44   1.0000      -0.738075       -20.0840 
  45   1.0000      -0.708398       -19.2765 
  46   1.0000      -0.682830       -18.5807 
  47   1.0000      -0.672574       -18.3017 
  48   1.0000      -0.640677       -17.4337 
  49   1.0000      -0.638359       -17.3706 
  50   1.0000      -0.633138       -17.2286 
  51   1.0000      -0.630991       -17.1701 
  52   1.0000      -0.628325       -17.0976 
  53   1.0000      -0.624502       -16.9936 
  54   1.0000      -0.609004       -16.5718 
  55   1.0000      -0.602825       -16.4037 
  56   1.0000      -0.599076       -16.3017 
  57   1.0000      -0.594346       -16.1730 
  58   1.0000      -0.587116       -15.9763 
  59   1.0000      -0.579620       -15.7723 
  60   1.0000      -0.577554       -15.7160 
  61   1.0000      -0.571838       -15.5605 
  62   1.0000      -0.513074       -13.9614 
  63   1.0000      -0.511931       -13.9303 
  64   1.0000      -0.508758       -13.8440 
  65   1.0000      -0.503207       -13.6930 
  66   1.0000      -0.502155       -13.6643 
  67   1.0000      -0.499534       -13.5930 
  68   1.0000      -0.495999       -13.4968 
  69   1.0000      -0.494281       -13.4501 
  70   1.0000      -0.488821       -13.3015 
  71   1.0000      -0.481922       -13.1138 
  72   1.0000      -0.480489       -13.0748 
  73   1.0000      -0.476852       -12.9758 
  74   1.0000      -0.472038       -12.8448 
  75   1.0000      -0.468793       -12.7565 
  76   1.0000      -0.463453       -12.6112 
  77   1.0000      -0.462727       -12.5914 
  78   1.0000      -0.457614       -12.4523 
  79   1.0000      -0.456472       -12.4212 
  80   1.0000      -0.452817       -12.3218 
  81   1.0000      -0.448440       -12.2027 
  82   1.0000      -0.447970       -12.1899 
  83   1.0000      -0.445688       -12.1278 
  84   1.0000      -0.442475       -12.0404 
  85   1.0000      -0.440574       -11.9886 
  86   1.0000      -0.438172       -11.9233 
  87   1.0000      -0.436527       -11.8785 
  88   1.0000      -0.431433       -11.7399 
  89   1.0000      -0.418311       -11.3828 
  90   1.0000      -0.389845       -10.6082 
  91   1.0000      -0.366868        -9.9830 
  92   1.0000      -0.350358        -9.5337 
  93   1.0000      -0.344963        -9.3869 
  94   1.0000      -0.319768        -8.7013 
  95   0.0000      -0.147305        -4.0084 
  96   0.0000      -0.099445        -2.7060 
  97   0.0000      -0.020150        -0.5483 
  98   0.0000      -0.004408        -0.1199 
  99   0.0000       0.018469         0.5026 
 100   0.0000       0.029343         0.7985 
 101   0.0000       0.055586         1.5126 
 102   0.0000       0.075737         2.0609 
 103   0.0000       0.084271         2.2931 
 104   0.0000       0.095732         2.6050 
 105   0.0000       0.102337         2.7847 
*Only the first 10 virtual orbitals were printed.

                    ********************************
                    * MULLIKEN POPULATION ANALYSIS *
                    ********************************

--------------------------------------------
MULLIKEN ATOMIC CHARGES AND SPIN POPULATIONS
--------------------------------------------
   0 C :    0.388319   -0.000017
   1 O :   -0.452030    0.000011
   2 O :   -0.388968    0.000022
   3 C :    0.375964   -0.000015
   4 C :    0.342578    0.000313
   5 C :    0.343949    0.000682
   6 C :    0.389090    0.001349
   7 C :    0.088183    0.848856
   8 C :    0.354602    0.013351
   9 C :    0.478534   -0.004093
  10 F :   -0.182128    0.000005
  11 F :   -0.184160   -0.000002
  12 F :   -0.172572   -0.000026
  13 F :   -0.176884    0.000013
  14 F :   -0.172491    0.000830
  15 F :   -0.175421    0.000810
  16 F :   -0.175530    0.001895
  17 F :   -0.168930    0.022530
  18 F :   -0.155681    0.083940
  19 F :   -0.166771    0.027275
  20 F :   -0.171340    0.001505
  21 F :   -0.158933    0.000953
  22 F :   -0.155588   -0.000382
  23 F :   -0.156551    0.000196
  24 H :    0.452761   -0.000000
Sum of atomic charges         :   -0.0000000
Sum of atomic spin populations:    1.0000000

-----------------------------------------------------
MULLIKEN REDUCED ORBITAL CHARGES AND SPIN POPULATIONS
-----------------------------------------------------
CHARGE
  0 C s       :     3.160558  s :     3.160558
      pz      :     0.776384  p :     2.229586
      px      :     0.788678
      py      :     0.664524
      dz2     :     0.015367  d :     0.203426
      dxz     :     0.014700
      dyz     :     0.057126
      dx2y2   :     0.050608
      dxy     :     0.065625
      f0      :     0.001742  f :     0.018111
      f+1     :     0.001068
      f-1     :     0.002349
      f+2     :     0.002580
      f-2     :     0.001943
      f+3     :     0.003922
      f-3     :     0.004507

  1 O s       :     3.664323  s :     3.664323
      pz      :     1.725631  p :     4.771152
      px      :     1.690539
      py      :     1.354983
      dz2     :     0.001631  d :     0.013735
      dxz     :     0.001147
      dyz     :     0.002996
      dx2y2   :     0.003091
      dxy     :     0.004870
      f0      :     0.000275  f :     0.002819
      f+1     :     0.000129
      f-1     :     0.000378
      f+2     :     0.000241
      f-2     :     0.000433
      f+3     :     0.000923
      f-3     :     0.000441

  2 O s       :     3.878646  s :     3.878646
      pz      :     1.540519  p :     4.484279
      px      :     1.696687
      py      :     1.247073
      dz2     :     0.003270  d :     0.024762
      dxz     :     0.000321
      dyz     :     0.006525
      dx2y2   :     0.009200
      dxy     :     0.005446
      f0      :     0.000116  f :     0.001281
      f+1     :     0.000012
      f-1     :     0.000222
      f+2     :     0.000222
      f-2     :     0.000029
      f+3     :     0.000288
      f-3     :     0.000392

  3 C s       :     3.120102  s :     3.120102
      pz      :     0.677773  p :     2.221814
      px      :     0.904454
      py      :     0.639587
      dz2     :     0.045384  d :     0.256897
      dxz     :     0.051466
      dyz     :     0.063984
      dx2y2   :     0.044025
      dxy     :     0.052038
      f0      :     0.005341  f :     0.025224
      f+1     :     0.003580
      f-1     :     0.003903
      f+2     :     0.003597
      f-2     :     0.002022
      f+3     :     0.003718
      f-3     :     0.003062

  4 C s       :     3.131255  s :     3.131255
      pz      :     0.607983  p :     2.221496
      px      :     0.918281
      py      :     0.695232
      dz2     :     0.059661  d :     0.277287
      dxz     :     0.058249
      dyz     :     0.066921
      dx2y2   :     0.034203
      dxy     :     0.058253
      f0      :     0.003795  f :     0.027384
      f+1     :     0.004828
      f-1     :     0.007874
      f+2     :     0.002233
      f-2     :     0.002623
      f+3     :     0.003467
      f-3     :     0.002563

  5 C s       :     3.152608  s :     3.152608
      pz      :     0.584094  p :     2.193024
      px      :     0.901084
      py      :     0.707846
      dz2     :     0.072753  d :     0.282829
      dxz     :     0.060395
      dyz     :     0.057728
      dx2y2   :     0.033992
      dxy     :     0.057960
      f0      :     0.004937  f :     0.027590
      f+1     :     0.004296
      f-1     :     0.006204
      f+2     :     0.003164
      f-2     :     0.004278
      f+3     :     0.002510
      f-3     :     0.002201

  6 C s       :     3.120301  s :     3.120301
      pz      :     0.575089  p :     2.174300
      px      :     0.901704
      py      :     0.697507
      dz2     :     0.076333  d :     0.288580
      dxz     :     0.062004
      dyz     :     0.052367
      dx2y2   :     0.036957
      dxy     :     0.060918
      f0      :     0.005987  f :     0.027730
      f+1     :     0.003825
      f-1     :     0.004596
      f+2     :     0.004067
      f-2     :     0.005163
      f+3     :     0.002143
      f-3     :     0.001950

  7 C s       :     3.346059  s :     3.346059
      pz      :     0.663785  p :     2.410371
      px      :     0.904745
      py      :     0.841842
      dz2     :     0.034055  d :     0.140030
      dxz     :     0.036577
      dyz     :     0.029398
      dx2y2   :     0.015620
      dxy     :     0.024379
      f0      :     0.003530  f :     0.015357
      f+1     :     0.004018
      f-1     :     0.002784
      f+2     :     0.001154
      f-2     :     0.001522
      f+3     :     0.001183
      f-3     :     0.001165

  8 C s       :     3.116340  s :     3.116340
      pz      :     0.617913  p :     2.222672
      px      :     0.921748
      py      :     0.683011
      dz2     :     0.057085  d :     0.278669
      dxz     :     0.059082
      dyz     :     0.067249
      dx2y2   :     0.036328
      dxy     :     0.058925
      f0      :     0.003852  f :     0.027718
      f+1     :     0.004885
      f-1     :     0.008041
      f+2     :     0.002365
      f-2     :     0.002309
      f+3     :     0.003746
      f-3     :     0.002520

  9 C s       :     3.027565  s :     3.027565
      pz      :     0.650838  p :     2.114274
      px      :     0.801011
      py      :     0.662425
      dz2     :     0.064244  d :     0.339810
      dxz     :     0.066773
      dyz     :     0.082200
      dx2y2   :     0.061441
      dxy     :     0.065151
      f0      :     0.004874  f :     0.039817
      f+1     :     0.007774
      f-1     :     0.008718
      f+2     :     0.004350
      f-2     :     0.003075
      f+3     :     0.007287
      f-3     :     0.003739

 10 F s       :     3.919972  s :     3.919972
      pz      :     1.897038  p :     5.246459
      px      :     1.887486
      py      :     1.461935
      dz2     :     0.002162  d :     0.015066
      dxz     :     0.000294
      dyz     :     0.002839
      dx2y2   :     0.005779
      dxy     :     0.003992
      f0      :     0.000049  f :     0.000631
      f+1     :     0.000015
      f-1     :     0.000128
      f+2     :     0.000070
      f-2     :     0.000018
      f+3     :     0.000168
      f-3     :     0.000182

 11 F s       :     3.919867  s :     3.919867
      pz      :     1.477267  p :     5.249093
      px      :     1.902223
      py      :     1.869602
      dz2     :     0.006663  d :     0.014579
      dxz     :     0.003382
      dyz     :     0.003667
      dx2y2   :     0.000431
      dxy     :     0.000436
      f0      :     0.000224  f :     0.000621
      f+1     :     0.000136
      f-1     :     0.000181
      f+2     :     0.000037
      f-2     :     0.000037
      f+3     :     0.000003
      f-3     :     0.000002

 12 F s       :     3.916910  s :     3.916910
      pz      :     1.812097  p :     5.238782
      px      :     1.906638
      py      :     1.520048
      dz2     :     0.002036  d :     0.016185
      dxz     :     0.000779
      dyz     :     0.005282
      dx2y2   :     0.004841
      dxy     :     0.003247
      f0      :     0.000079  f :     0.000695
      f+1     :     0.000003
      f-1     :     0.000120
      f+2     :     0.000187
      f-2     :     0.000063
      f+3     :     0.000107
      f-3     :     0.000135

 13 F s       :     3.919412  s :     3.919412
      pz      :     1.449450  p :     5.240745
      px      :     1.908557
      py      :     1.882738
      dz2     :     0.008376  d :     0.016042
      dxz     :     0.003659
      dyz     :     0.003461
      dx2y2   :     0.000267
      dxy     :     0.000279
      f0      :     0.000343  f :     0.000685
      f+1     :     0.000152
      f-1     :     0.000161
      f+2     :     0.000011
      f-2     :     0.000017
      f+3     :     0.000001
      f-3     :     0.000001

 14 F s       :     3.916970  s :     3.916970
      pz      :     1.708704  p :     5.238549
      px      :     1.905480
      py      :     1.624364
      dz2     :     0.002617  d :     0.016274
      dxz     :     0.001577
      dyz     :     0.006505
      dx2y2   :     0.003080
      dxy     :     0.002496
      f0      :     0.000078  f :     0.000698
      f+1     :     0.000013
      f-1     :     0.000187
      f+2     :     0.000196
      f-2     :     0.000103
      f+3     :     0.000059
      f-3     :     0.000062

 15 F s       :     3.916927  s :     3.916927
      pz      :     1.504164  p :     5.241574
      px      :     1.909443
      py      :     1.827967
      dz2     :     0.006721  d :     0.016224
      dxz     :     0.003232
      dyz     :     0.004880
      dx2y2   :     0.000614
      dxy     :     0.000777
      f0      :     0.000231  f :     0.000696
      f+1     :     0.000106
      f-1     :     0.000241
      f+2     :     0.000051
      f-2     :     0.000059
      f+3     :     0.000005
      f-3     :     0.000003

 16 F s       :     3.917226  s :     3.917226
      pz      :     1.594773  p :     5.241356
      px      :     1.905449
      py      :     1.741133
      dz2     :     0.004441  d :     0.016251
      dxz     :     0.002558
      dyz     :     0.006222
      dx2y2   :     0.001500
      dxy     :     0.001530
      f0      :     0.000116  f :     0.000697
      f+1     :     0.000055
      f-1     :     0.000263
      f+2     :     0.000125
      f-2     :     0.000100
      f+3     :     0.000021
      f-3     :     0.000018

 17 F s       :     3.916901  s :     3.916901
      pz      :     1.607781  p :     5.235092
      px      :     1.903537
      py      :     1.723773
      dz2     :     0.004196  d :     0.016241
      dxz     :     0.002440
      dyz     :     0.006334
      dx2y2   :     0.001641
      dxy     :     0.001629
      f0      :     0.000109  f :     0.000696
      f+1     :     0.000048
      f-1     :     0.000256
      f+2     :     0.000135
      f-2     :     0.000102
      f+3     :     0.000024
      f-3     :     0.000021

 18 F s       :     3.922183  s :     3.922183
      pz      :     1.493055  p :     5.216142
      px      :     1.911132
      py      :     1.811956
      dz2     :     0.007023  d :     0.016675
      dxz     :     0.003210
      dyz     :     0.005111
      dx2y2   :     0.000673
      dxy     :     0.000657
      f0      :     0.000240  f :     0.000681
      f+1     :     0.000106
      f-1     :     0.000222
      f+2     :     0.000055
      f-2     :     0.000050
      f+3     :     0.000004
      f-3     :     0.000003

 19 F s       :     3.916046  s :     3.916046
      pz      :     1.823116  p :     5.233923
      px      :     1.898851
      py      :     1.511956
      dz2     :     0.002044  d :     0.016111
      dxz     :     0.000635
      dyz     :     0.005048
      dx2y2   :     0.004992
      dxy     :     0.003393
      f0      :     0.000078  f :     0.000691
      f+1     :     0.000004
      f-1     :     0.000118
      f+2     :     0.000180
      f-2     :     0.000054
      f+3     :     0.000113
      f-3     :     0.000144

 20 F s       :     3.914257  s :     3.914257
      pz      :     1.447572  p :     5.240122
      px      :     1.904896
      py      :     1.887654
      dz2     :     0.008667  d :     0.016253
      dxz     :     0.003818
      dyz     :     0.003378
      dx2y2   :     0.000179
      dxy     :     0.000211
      f0      :     0.000365  f :     0.000708
      f+1     :     0.000165
      f-1     :     0.000155
[...]
      pz      :    -0.000393  p :     0.000589
      px      :     0.000057
      py      :     0.000925
      dz2     :     0.000026  d :     0.000191
      dxz     :     0.000017
      dyz     :     0.000065
      dx2y2   :     0.000084
      dxy     :    -0.000001
      f0      :     0.000001  f :     0.000011
      f+1     :     0.000003
      f-1     :     0.000003
      f+2     :     0.000004
      f-2     :    -0.000000
      f+3     :     0.000000
      f-3     :     0.000000

 16 F s       :     0.000700  s :     0.000700
      pz      :     0.005670  p :     0.006132
      px      :     0.000148
      py      :     0.000314
      dz2     :    -0.000036  d :    -0.000183
      dxz     :    -0.000037
      dyz     :     0.000026
      dx2y2   :    -0.000014
      dxy     :    -0.000122
      f0      :    -0.000001  f :    -0.000010
      f+1     :     0.000001
      f-1     :    -0.000001
      f+2     :    -0.000001
      f-2     :    -0.000005
      f+3     :    -0.000003
      f-3     :    -0.000000

 17 F s       :     0.001213  s :     0.001213
      pz      :     0.007476  p :     0.013278
      px      :     0.005443
      py      :     0.000359
      dz2     :    -0.000051  d :    -0.000097
      dxz     :    -0.000054
      dyz     :     0.000015
      dx2y2   :     0.000029
      dxy     :    -0.000036
      f0      :    -0.000004  f :    -0.000006
      f+1     :    -0.000001
      f-1     :     0.000001
      f+2     :    -0.000001
      f-2     :    -0.000002
      f+3     :     0.000001
      f-3     :    -0.000000

 18 F s       :     0.002125  s :     0.002125
      pz      :     0.014620  p :     0.101515
      px      :     0.008758
      py      :     0.078137
      dz2     :     0.004110  d :     0.010344
      dxz     :     0.001089
      dyz     :     0.002864
      dx2y2   :     0.002192
      dxy     :     0.000090
      f0      :     0.000254  f :     0.000553
      f+1     :     0.000081
      f-1     :     0.000005
      f+2     :     0.000177
      f-2     :     0.000004
      f+3     :     0.000010
      f-3     :     0.000025

 19 F s       :     0.002303  s :     0.002303
      pz      :     0.008132  p :     0.031984
      px      :     0.012019
      py      :     0.011834
      dz2     :     0.000036  d :     0.000145
      dxz     :     0.000093
      dyz     :     0.000019
      dx2y2   :    -0.000043
      dxy     :     0.000039
      f0      :     0.000001  f :     0.000004
      f+1     :    -0.000000
      f-1     :     0.000002
      f+2     :    -0.000000
      f-2     :     0.000001
      f+3     :     0.000003
      f-3     :    -0.000004

 20 F s       :     0.000665  s :     0.000665
      pz      :     0.007814  p :     0.014210
      px      :     0.001418
      py      :     0.004978
      dz2     :    -0.000049  d :    -0.000023
      dxz     :    -0.000049
      dyz     :     0.000083
      dx2y2   :    -0.000011
      dxy     :     0.000002
      f0      :    -0.000003  f :    -0.000005
      f+1     :    -0.000003
      f-1     :     0.000003
      f+2     :    -0.000001
      f-2     :    -0.000001
      f+3     :    -0.000000
      f-3     :     0.000000

 21 F s       :     0.000109  s :     0.000109
      pz      :    -0.000027  p :     0.000988
      px      :     0.000934
      py      :     0.000081
      dz2     :     0.000009  d :     0.000032
      dxz     :    -0.000001
      dyz     :     0.000001
      dx2y2   :     0.000022
      dxy     :     0.000001
      f0      :     0.000000  f :     0.000001
      f+1     :     0.000000
      f-1     :    -0.000000
      f+2     :    -0.000000
      f-2     :    -0.000000
      f+3     :    -0.000000
      f-3     :     0.000001

 22 F s       :     0.000021  s :     0.000021
      pz      :    -0.000005  p :     0.000456
      px      :     0.000070
      py      :     0.000392
      dz2     :     0.000001  d :     0.000020
      dxz     :     0.000005
      dyz     :     0.000012
      dx2y2   :     0.000001
      dxy     :     0.000001
      f0      :     0.000000  f :     0.000001
      f+1     :     0.000000
      f-1     :     0.000000
      f+2     :     0.000000
      f-2     :     0.000000
      f+3     :    -0.000000
      f-3     :    -0.000000

 23 F s       :     0.000060  s :     0.000060
      pz      :     0.000064  p :     0.001360
      px      :     0.000592
      py      :     0.000704
      dz2     :     0.000003  d :     0.000049
      dxz     :     0.000019
      dyz     :     0.000015
      dx2y2   :     0.000007
      dxy     :     0.000004
      f0      :     0.000000  f :     0.000002
      f+1     :     0.000000
      f-1     :     0.000001
      f+2     :     0.000001
      f-2     :     0.000001
      f+3     :     0.000000
      f-3     :     0.000000

 24 H s       :     0.000026  s :     0.000026
      pz      :     0.000004  p :     0.000002
      px      :    -0.000001
      py      :    -0.000001



                      *****************************
                      * MAYER POPULATION ANALYSIS *
                      *****************************

  NA   - Mulliken gross atomic population
  ZA   - Total nuclear charge
  QA   - Mulliken gross atomic charge
  VA   - Mayer's total valence
  BVA  - Mayer's bonded valence
  FA   - Mayer's free valence

  ATOM       NA         ZA         QA         VA         BVA        FA
  0 C      5.7724     6.0000     0.2276     4.3940     4.3940     0.0000
  1 O      8.3475     8.0000    -0.3475     2.1762     2.1762     0.0000
  2 O      8.2850     8.0000    -0.2850     2.2063     2.2063     0.0000
  3 C      5.5882     6.0000     0.4118     4.1095     4.1095     0.0000
  4 C      5.6940     6.0000     0.3060     4.1098     4.1098     0.0000
  5 C      5.6832     6.0000     0.3168     4.1107     4.1099     0.0008
  6 C      5.6091     6.0000     0.3909     4.2172     4.2144     0.0028
  7 C      5.8782     6.0000     0.1218     3.8409     3.2689     0.5721
  8 C      5.6542     6.0000     0.3458     4.1925     4.1896     0.0028
  9 C      5.5218     6.0000     0.4782     4.4925     4.4925     0.0000
 10 F      9.1774     9.0000    -0.1774     1.1347     1.1347     0.0000
 11 F      9.1727     9.0000    -0.1727     1.1433     1.1433     0.0000
 12 F      9.1715     9.0000    -0.1715     1.1489     1.1489     0.0000
 13 F      9.1737     9.0000    -0.1737     1.1450     1.1450     0.0000
 14 F      9.1740     9.0000    -0.1740     1.1447     1.1447     0.0000
 15 F      9.1731     9.0000    -0.1731     1.1490     1.1490     0.0000
 16 F      9.1710     9.0000    -0.1710     1.1413     1.1413     0.0001
 17 F      9.1740     9.0000    -0.1740     1.1389     1.1387     0.0002
 18 F      9.1392     9.0000    -0.1392     1.2033     1.1911     0.0122
 19 F      9.1780     9.0000    -0.1780     1.1248     1.1236     0.0011
 20 F      9.1734     9.0000    -0.1734     1.1317     1.1315     0.0002
 21 F      9.1588     9.0000    -0.1588     1.1580     1.1580     0.0000
 22 F      9.1539     9.0000    -0.1539     1.1668     1.1668     0.0000
 23 F      9.1562     9.0000    -0.1562     1.1596     1.1596     0.0000
 24 H      0.6195     1.0000     0.3805     0.8799     0.8799     0.0000

  Mayer bond orders larger than 0.100000
B(  0-C ,  1-O ) :   1.3076 B(  0-C ,  2-O ) :   2.0842 B(  0-C ,  3-C ) :   0.9003 
B(  1-O , 24-H ) :   0.8218 B(  3-C ,  4-C ) :   0.9394 B(  3-C , 10-F ) :   1.0888 
B(  3-C , 11-F ) :   1.1052 B(  4-C ,  5-C ) :   0.9242 B(  4-C , 12-F ) :   1.0813 
B(  4-C , 13-F ) :   1.0756 B(  5-C ,  6-C ) :   0.9235 B(  5-C , 14-F ) :   1.0745 
B(  5-C , 15-F ) :   1.0815 B(  6-C ,  7-C ) :   1.0271 B(  6-C , 16-F ) :   1.0914 
B(  6-C , 17-F ) :   1.0752 B(  7-C ,  8-C ) :   1.0150 B(  7-C , 18-F ) :   1.1342 
B(  8-C ,  9-C ) :   0.9652 B(  8-C , 19-F ) :   1.0772 B(  8-C , 20-F ) :   1.0720 
B(  9-C , 21-F ) :   1.1456 B(  9-C , 22-F ) :   1.1499 B(  9-C , 23-F ) :   1.1456 


-------
TIMINGS
-------

Total SCF time: 0 days 0 hours 0 min 41 sec 

Total time                  ....      41.225 sec
Sum of individual times     ....      40.551 sec  ( 98.4%)

SCF preparation             ....       1.293 sec  (  3.1%)
Fock matrix formation       ....      32.446 sec  ( 78.7%)
  Startup                   ....       0.169 sec  (  0.5% of F)
  Split-RI-J                ....       2.401 sec  (  7.4% of F)
  Chain of spheres X        ....      21.437 sec  ( 66.1% of F)
  XC integration            ....       6.028 sec  ( 18.6% of F)
    XC Preparation          ....       0.000 sec  (  0.0% of XC)
    Basis function eval.    ....       0.531 sec  (  8.8% of XC)
    Density eval.           ....       1.207 sec  ( 20.0% of XC)
    XC-Functional eval.     ....       0.049 sec  (  0.8% of XC)
    XC-Potential eval.      ....       1.243 sec  ( 20.6% of XC)
  CPCM terms                ....       1.928 sec  (  5.9% of F)
Diagonalization             ....       0.000 sec  (  0.0%)
Density matrix formation    ....       0.566 sec  (  1.4%)
Total Energy calculation    ....       0.346 sec  (  0.8%)
Population analysis         ....       0.582 sec  (  1.4%)
Orbital Transformation      ....       0.833 sec  (  2.0%)
Orbital Orthonormalization  ....       0.000 sec  (  0.0%)
DIIS solution               ....       3.165 sec  (  7.7%)
SOSCF solution              ....       1.320 sec  (  3.2%)
Finished LeanSCF after  41.8 sec

Maximum memory used throughout the entire LEANSCF-calculation: 111.5 MB


-------------------------------------------------------------------------------
                          DFT DISPERSION CORRECTION                            
                                                                               
                              DFTD3 V3.1  Rev 1                                
                          USING Becke-Johnson damping                          
-------------------------------------------------------------------------------
The B3LYP functional is recognized
Active option DFTDOPT                   ...         4   

molecular C6(AA) [au] = 6514.569523 


            DFT-D V3
 parameters
 s6 scaling factor         :     1.0000 
 a1 scaling factor         :     0.3981 
 s8 scaling factor         :     1.9889 
 a2 scaling factor         :     4.4211 
 ad hoc parameters k1-k3   :    16.0000     1.3333    -4.0000 

 Edisp/kcal,au: -26.920360730186  -0.042900320985 
 E6   /kcal   : -12.808259271 
 E8   /kcal   : -14.112101460 
 % E8         :  52.421665523 

-------------------------   ----------------
Dispersion correction           -0.042900321
-------------------------   ----------------


-------------------------   --------------------
FINAL SINGLE POINT ENERGY     -1853.736727861300
-------------------------   --------------------

                                *** OPTIMIZATION RUN DONE ***



           ************************************************************
           *        Program running with 20 parallel MPI-processes    *
           *              working on a common directory               *
           ************************************************************

------------------------------------------------------------------------------
                              ORCA PROPERTY CALCULATIONS
------------------------------------------------------------------------------

GBWName                                 ... rf_mecn_opt_B3L_C6_P_B.gbw
Number of atoms                         ...     25
Number of basis functions               ...    750
Max core memory                         ...   8000 MB

Electric properties:
Dipole moment                           ... YES
Quadrupole moment                       ...  NO
Static polarizability (Dipole/Dipole)   ...  NO
Static polarizability (Dipole/Quad.)    ...  NO
Static polarizability (Quad./Quad.)     ...  NO
Static polarizability (Velocity)        ...  NO

Atomic electric properties:
Dipole moment                           ...  NO
Quadrupole moment                       ...  NO
Static polarizability                   ...  NO

Choice of electric origin               ... Center of mass
Position of electric origin             ...     0.067185     0.002757    -0.078739

General magnetic properties:
Magnetizability                         ...  NO

EPR properties:
g-Tensor (aka g-matrix)                 ...  NO
Zero-Field splitting spin-orbit         ...  NO
Zero-field splitting spin-spin          ...  NO
Hyperfine couplings                     ...  NO (   0 nuclei)
Quadrupole couplings                    ...  NO (   0 nuclei)
Contact density                         ...  NO (   0 nuclei)

NMR properties:
Chemical shifts                         ...  NO (   0 nuclei)
Spin-rotation constants                 ...  NO (   0 nuclei)
Spin-spin couplings                     ...  NO (   0 nuclei,    0 pairs)

Choice of magnetic origin               ... GIAO
Position of magnetic origin             ...     0.000000     0.000000     0.000000

Properties with geometric perturbations:
SCF Hessian                             ...  NO
IR spectrum                             ...  NO
VCD spectrum                            ...  NO
X-ray spectroscopy properties:
SCF XES/XAS/RIXS spectra                ...  NO


-------------
DIPOLE MOMENT
-------------

Method             : SCF
Type of density    : Electron Density
Multiplicity       :   2
Irrep              :   0
Energy             : -1853.6938275403151692 Eh
Relativity type    : 
Basis              : AO
                                X                 Y                 Z
Electronic contribution:    -14.197297200       0.597413752       0.388023589
Nuclear contribution   :     14.925318091      -1.246925461      -1.317040235
                        -----------------------------------------
Total Dipole Moment    :      0.728020891      -0.649511709      -0.929016645
                        -----------------------------------------
Magnitude (a.u.)       :      1.347201472
Magnitude (Debye)      :      3.424314006



--------------------
Rotational spectrum 
--------------------
 
Rotational constants in cm-1:             0.020089             0.004066             0.004020 
Rotational constants in MHz :           602.250168           121.908128           120.524264 

Dipole components along the rotational axes: 
x,y,z [a.u.] :     0.751006    -0.055991    -1.117053 
x,y,z [Debye]:     1.908906    -0.142319    -2.839322 

 

Dipole moment calculation done in   0.1 sec 

Maximum memory used throughout the entire PROP-calculation: 59.6 MB

--------------------------------
SUGGESTED CITATIONS FOR THIS RUN
--------------------------------

Below you find a list of papers that are relevant to this ORCA run
We neither can nor want to force you to cite these papers, but we appreciate if you do
You receive ORCA, which is the product of decades of hard work by many enthusiastic individuals, for free
The only thing we kindly ask in return is that you cite our papers,
We deeply appreciate it, if you show your appreciation for ORCA by not just citing the generic ORCA reference.

Please note that relegating all ORCA citations to the supporting information does *not* help us.
SI sections are not indexed - citations you put there will not count into any citation statistics
But we need these citations in order to attract the funding resources that allow us to do what we are doing

Therefore, if you are a happy ORCA user, please consider citing a few of the papers listed below in the main body of your paper

In addition to the list printed below, the program has created the file rf_mecn_opt_B3L_C6_P_B.bibtex that contains the list in bibtex format
You can import this file easily into all common literature databanks and citation aid programs


List of essential papers. We consider these as the minimum necessary citations

  1. Neese,F.
     Software update: the ORCA program system, version 5.0
     WIRES Comput. Molec. Sci., 2022 12(1)e1606
     doi.org/10.1002/wcms.1606

List of papers to cite with high priority. The work reported in these papers was absolutely
necessary for this run to complete.
Our perspective: the developers of density functionals and basis sets usually get cited in chemistry papers
Good! But without the algorithms to do something with them, the functionals or basis sets would not do anything.
Hence, in our opinion, the algorithm design and method developments papers are equally worthy of getting cited

  1. Neese,F.
     An improvement of the resolution of the identity approximation for the formation of the Coulomb matrix
     J. Comp. Chem., 2003 24(14)1740-1747
     doi.org/10.1002/jcc.10318
  2. Neese,F.; Wennmohs,F.; Hansen,A.; Becker,U.
     Efficient, approximate and parallel Hartree-Fock and hybrid DFT calculations. A 'chain-of-spheres' algorithm for the Hartree-Fock exchange
     Chem. Phys., 2009 356(1-3)98-109
     doi.org/10.1016/j.chemphys.2008.10.036
  3. Garcia-Rates,M.; Neese,F.
     Effect of the Solute Cavity on the Solvation Energy and its Derivatives within the Framework of the Gaussian Charge Scheme
     J. Comput. Chem., 2020 41 922-939
     doi.org/10.1002/jcc.26139
  4. Helmich-Paris,B.; de Souza,B.; Neese,F.; Izsák,R.
     An improved chain of spheres for exchange algorithm
     J. Chem. Phys., 2021 155 104109
     doi.org/doi: 10.1063/5.0058766.
  5. Neese,F.
     The SHARK Integral Generation and Digestion System
     J. Comp. Chem., 2022  1-16
     doi.org/10.1002/jcc.26942
  6. Grimme,S.; Antony,J.; Ehrlich,S.; Krieg,H.
     A consistent and accurate ab initio parametrization of density functional dispersion correction (DFT-D) for the 94 elements H-Pu
     J. Chem. Phys., 2010 132 154104
     doi.org/10.1063/1.3382344
  7. Grimme,S.; Ehrlich,S.; Goerigk,L.
     Effect of the damping function in dispersion corrected density functional theory
     J. Comput. Chem., 2011 32(7)1456-1465
     doi.org/10.1002/jcc.21759

List of suggested additional citations. These are papers that are important in the 'surrounding' of 
of this run, or papers that preceded the highly important papers. If you like your results we are grateful for a citation.

  1. Izsak,R.; Neese,F.
     An overlap fitted chain of spheres exchange method
     J. Chem. Phys., 2011 135 144105
     doi.org/10.1063/1.3646921
  2. Izsak,R.; Hansen,A.; Neese,F.
     The resolution of identity and chain of spheres approximations for the LPNO-CCSD singles Fock term
     Molec. Phys., 2012 110 2413-2417
     doi.org/10.1080/00268976.2012.687466
  3. Neese,F.
     The ORCA program system
     WIRES Comput. Molec. Sci., 2012 2(1)73-78
     doi.org/10.1002/wcms.81
  4. Izsak,R.; Neese,F.; Klopper,W.
     Robust fitting techniques in the chain of spheres approximation to the Fock exchange: The role of the complementary space
     J. Chem. Phys., 2013 139 
     doi.org/10.1063/1.4819264
  5. Neese,F.
     Software update: the ORCA program system, version 4.0
     WIRES Comput. Molec. Sci., 2018 8(1)1-6
     doi.org/10.1002/wcms.1327
  6. Neese,F.; Wennmohs,F.; Becker,U.; Riplinger,C.
     The ORCA quantum chemistry program package
     J. Chem. Phys., 2020 152 Art. No. L224108
     doi.org/10.1063/5.0004608

List of optional additional citations

  1. Neese,F.
     Approximate second-order SCF convergence for spin unrestricted wavefunctions
     Chem. Phys. Lett., 2000 325(1-3)93-98
     doi.org/10.1016/s0009-2614(00)00662-x

Timings for individual modules:

Sum of individual times          ...     5125.843 sec (=  85.431 min)
Startup calculation              ...      252.669 sec (=   4.211 min)   4.9 %
SCF iterations                   ...     3535.027 sec (=  58.917 min)  69.0 %
Property calculations            ...        0.883 sec (=   0.015 min)   0.0 %
SCF Gradient evaluation          ...     1335.991 sec (=  22.267 min)  26.1 %
Geometry relaxation              ...        1.273 sec (=   0.021 min)   0.0 %
                             ****ORCA TERMINATED NORMALLY****
TOTAL RUN TIME: 0 days 1 hours 26 minutes 8 seconds 393 msec
