
                                 *****************
                                 * O   R   C   A *
                                 *****************

                                            #,                                       
                                            ###                                      
                                            ####                                     
                                            #####                                    
                                            ######                                   
                                           ########,                                 
                                     ,,################,,,,,                         
                               ,,#################################,,                 
                          ,,##########################################,,             
                       ,#########################################, ''#####,          
                    ,#############################################,,   '####,        
                  ,##################################################,,,,####,       
                ,###########''''           ''''###############################       
              ,#####''   ,,,,##########,,,,          '''####'''          '####       
            ,##' ,,,,###########################,,,                        '##       
           ' ,,###''''                  '''############,,,                           
         ,,##''                                '''############,,,,        ,,,,,,###''
      ,#''                                            '''#######################'''  
     '                                                          ''''####''''         
             ,#######,   #######,   ,#######,      ##                                
            ,#'     '#,  ##    ##  ,#'     '#,    #''#        ,####,   ,####,        
            ##       ##  ##   ,#'  ##            #'  '#       #'       #'  '#        
            ##       ##  #######   ##           ,######,      #####,   #    #        
            '#,     ,#'  ##    ##  '#,     ,#' ,#      #,     #,   #   #,  ,#        
             '#######'   ##     ##  '#######'  #'      '#     '####' # '####'        



                #########################################################
                #                        -***-                          #
                #          Department of theory and spectroscopy        #
                #                                                       #
                #                      Frank Neese                      #
                #                                                       #
                #     Directorship, Architecture, Infrastructure        #
                #                    SHARK, DRIVERS                     #
                #        Core code/Algorithms in most modules           #
                #                                                       #
                #        Max Planck Institute fuer Kohlenforschung      #
                #                Kaiser Wilhelm Platz 1                 #
                #                 D-45470 Muelheim/Ruhr                 #
                #                      Germany                          #
                #                                                       #
                #                  All rights reserved                  #
                #                        -***-                          #
                #########################################################


                         Program Version 6.0.1  -  RELEASE   -


 With contributions from (in alphabetic order):
[Max-Planck-Institut fuer Kohlenforschung]                               
  Daniel Aravena         : Magnetic Suceptibility                        
  Michael Atanasov       : Ab Initio Ligand Field Theory (pilot matlab implementation)
  Alexander A. Auer      : GIAO ZORA, VPT2 properties, NMR spectrum      
  Ute Becker             : All parallelization in ORCA, NUMFREQ, NUMCALC 
  Giovanni Bistoni       : ED, misc. LED, open-shell LED, HFLD           
  Martin Brehm           : Molecular dynamics                            
  Dmytro Bykov           : pre 5.0 version of the SCF Hessian            
  Marcos Casanova-Páez   : Triplet and SCS-CIS(D). UHF-(DLPNO)-IP/EA/STEOM-CCSD. UHF-CVS-IP/STEOM-CCSD   
  Vijay G. Chilkuri      : MRCI spin determinant printing, contributions to CSF-ICE 
  Pauline Colinet        : FMM embedding                                 
  Dipayan Datta          : RHF DLPNO-CCSD density                        
  Achintya Kumar Dutta   : EOM-CC, STEOM-CC                              
  Nicolas Foglia         : Exact transition moments, OPA infrastructure, MCD improvements    
  Dmitry Ganyushin       : Spin-Orbit,Spin-Spin,Magnetic field MRCI      
  Miquel Garcia-Rates    : C-PCM and meta-GGA Hessian, CCSD/C-PCM, Gaussian charge scheme 
  Tiago L. C. Gouveia    : GS-ROHF, GS-ROCIS                             
  Yang Guo               : DLPNO-NEVPT2, F12-NEVPT2, CIM, IAO-localization        
  Andreas Hansen         : Spin unrestricted coupled pair/coupled cluster methods 
  Ingolf Harden          : AUTO-CI MPn and infrastructure                
  Benjamin Helmich-Paris : MC-RPA, TRAH-(SCF,CASSCF), AVAS, COSX integrals, SCF dyn. polar. 
  Lee Huntington         : MR-EOM, pCC                                   
  Robert Izsak           : Overlap fitted RIJCOSX, COSX-SCS-MP3, EOM     
  Riya Kayal             : Wick's Theorem for AUTO-CI, AUTO-CI UHF-CCSDT 
  Emily Kempfer          : AUTO-CI, RHF CISDT and CCSDT                  
  Christian Kollmar      : KDIIS, OOCD, Brueckner-CCSD(T), CCSD density, CASPT2, CASPT2-K, improved NEVPT2 
  Axel Koslowski         : Symmetry handling                             
  Simone Kossmann        : meta-GGA functionals, TD-DFT gradient, OOMP2, (MP2 Hessian; deprecated post 5.0) 
  Lucas Lang             : DCDCAS                                        
  Marvin Lechner         : AUTO-CI (C++ implementation), FIC-MRCC        
  Spencer Leger          : CASSCF response                               
  Dagmar Lenk            : GEPOL surface, SMD, ORCA-2-JSON               
  Dimitrios Liakos       : Extrapolation schemes; Compound Job, initial MDCI parallelization 
  Dimitrios Manganas     : Further ROCIS development; embedding schemes. LFT, Crystal Embedding 
  Dimitrios Pantazis     : SARC Basis sets                               
  Anastasios Papadopoulos: AUTO-CI, single reference methods and gradients 
  Taras Petrenko         : pre 6.0 DFT Hessian and TD-DFT gradient, (ASA, deprecated), ECA, 1-Electron XAS/XES, NRVS 
  Peter Pinski           : DLPNO-MP2, DLPNO-MP2 Gradient                 
  Christoph Reimann      : Effective Core Potentials                     
  Marius Retegan         : Local ZFS, SOC                                
  Christoph Riplinger    : Optimizer, TS searches, QM/MM, DLPNO-CCSD(T), (RO)-DLPNO pert. Triples 
  Michael Roemelt        : Original ROCIS implementation                 
  Masaaki Saitow         : Open-shell DLPNO-CCSD energy and density      
  Barbara Sandhoefer     : DKH picture change effects                    
  Kantharuban Sivalingam : CASSCF convergence/infrastructure, NEVPT2 and variants, FIC-MRCI 
  Bernardo de Souza      : ESD, SOC TD-DFT                               
  Georgi L. Stoychev     : AutoAux, RI-MP2 NMR, DLPNO-MP2 response, X2C  
  Van Anh Tran           : RI-MP2 g-tensors                              
  Willem Van den Heuvel  : Paramagnetic NMR                              
  Zikuan Wang            : NOTCH, Electric field optimization            
  Frank Wennmohs         : Technical directorship and infrastructure     
  Hang Xu                : AUTO-CI-Response properties                   
                                                                         
[FACCTs GmbH]                                                            
  Markus Bursch, Miquel Garcia-Rates, Christoph Riplinger, Bernardo de Souza, Georgi L. Stoychev 
                                                                 
  APM, Basis sets (HGBS, AHGBS, def-TZVP (Ac-Lr), def2-XVPD (La-Lu)), CI-OPT, improved COSX, DLPNO-Multilevel,           
  DOCKER, DRACO, updates on ESD, GOAT, IRC, LR-CPCM, MBIS, meta-GGA TD-DFT gradient, ML-optimized integration grids, 
  MM, NACMEs, nearIR, NEB, NEB-TS, NL-DFT gradient (VV10), 2- and 3-layer-ONIOM, interface openCOSMO-RS, QMMM,   
  Crystal-QMMM, SF, symmetry and pop. for TD-DFT, r2SCAN hybrids, SOLVATOR                                   
                                                                         
[Other institutions]                                                     
  V. Asgeirsson          : NEB                                           
  Christoph Bannwarth    : sTDA-DFT, sTD-DFT, PBEh-3c, B97-3c, D3        
  Sebastian Ehlert       : rSCAN, r2SCAN, r2SCAN-3c, D4, dhf basis sets  
  Marvin Friede          : D4 for Fr, Ra, Ac-Lr                          
  Lars Goerigk           : TD-DFT with DH, B97 family of functionals     
  Stefan Grimme          : VdW corrections, initial TS optimization, DFT functionals, gCP, sTDA/sTD-DF 
  Waldemar Hujo          : DFT-NL                                        
  H. Jonsson             : NEB                                           
  Holger Kruse           : gCP                                           
  Marcel Mueller         : wB97X-3c, vDZP basis set                      
  Hagen Neugebauer       : wr2SCAN                                       
  Tobias Risthaus        : range-separated hybrid DFT                    
  Lukas Wittmann         : regularized MP2, r2SCAN double-hybrids, wr2SCAN        
                                                                         
We gratefully acknowledge several colleagues who have allowed us to      
interface, adapt or use parts of their codes:                            
  Ed Valeev, F. Pavosevic, A. Kumar             : LibInt (2-el integral package), F12 methods 
  Garnet Chan, S. Sharma, J. Yang, R. Olivares  : DMRG                   
  Ulf Ekstrom                                   : XCFun DFT Library      
  Mihaly Kallay                                 : mrcc  (arbitrary order and MRCC methods)
  Frank Weinhold                                : gennbo (NPA and NBO analysis)           
  Simon Mueller                                 : openCOSMO-RS                            
  Christopher J. Cramer and Donald G. Truhlar   : smd solvation model                     
  S Lehtola, MJT Oliveira, MAL Marques          : LibXC Library                           
  Liviu Ungur et al                             : ANISO software                          


 Your calculation uses the libint2 library for the computation of 2-el integrals
 For citations please refer to: http://libint.valeyev.net

 Your ORCA version has been built with support for libXC version: 6.2.2
 For citations please refer to: https://libxc.gitlab.io

 This ORCA versions uses:
   CBLAS   interface :  Fast vector & matrix operations
   LAPACKE interface :  Fast linear algebra routines
   SCALAPACK package :  Parallel linear algebra routines
   Shared memory     :  Shared parallel matrices
   BLAS/LAPACK       :  OpenBLAS 0.3.27  USE64BITINT DYNAMIC_ARCH NO_AFFINITY SkylakeX SINGLE_THREADED
        Core in use  :  SkylakeX
   Copyright (c) 2011-2014, The OpenBLAS Project


NOTE: MaxCore=8000 MB was set to SCF,MP2,MDCI,CIPSI,MRCI and CIS
      => If you want to overwrite this, your respective input block should be placed after the MaxCore statement
Your calculation utilizes the atom-pairwise dispersion correction
with the Becke-Johnson damping scheme (D3BJ)


Your calculation utilizes the SMD solvation module
Please cite in your paper:
A.V. Marenich, C.J. Cramer, D.G. Truhlar J. Phys. Chem. B, 113, (2009), 6378 

Warning: RI is on but no J-basis has been assigned. Assigning Def2/J (nothing to worry about!)
================================================================================

----- Orbital basis set information -----
Your calculation utilizes the basis: def2-TZVP
   F. Weigend and R. Ahlrichs, Phys. Chem. Chem. Phys. 7, 3297 (2005).

----- AuxJ basis set information -----
Your calculation utilizes the auxiliary basis: def2/J
   F. Weigend, Phys. Chem. Chem. Phys. 8, 1057 (2006).

================================================================================
                                        WARNINGS
                       Please study these warnings very carefully!
================================================================================


WARNING: your system is open-shell and RHF/RKS was chosen
  ===> : WILL SWITCH to UHF/UKS


WARNING: Geometry Optimization
  ===> : Switching off AutoStart
         For restart on a previous wavefunction, please use MOREAD

================================================================================
                                       INPUT FILE
================================================================================
NAME = rf_mecn_opt_TP_C7_P_B.inp
|  1> !TPSSh def2-TZVP opt d3 TightSCF SlowConv defgrid2
|  2>  
|  3> %pal
|  4> nprocs 20
|  5> end
|  6>  
|  7> %scf
|  8> MaxIter 1500
|  9> end
| 10>  
| 11> %maxcore 8000
| 12>  
| 13> !CPCM
| 14> %cpcm smd true
| 15> SMDsolvent "ACETONITRILE"
| 16> end
| 17>  
| 18> * xyz 0 2
| 19> 6        4.790427000     -0.033865800     -0.529943200
| 20> 8        5.449345000     -1.206924000     -0.894594600
| 21> 8        4.978223000      1.323071000     -0.737377200
| 22> 6        3.506687600     -0.338741600      0.376153800
| 23> 6        2.222300000      0.400524800     -0.110681600
| 24> 6        0.900506800     -0.386389800      0.175703000
| 25> 6       -0.395261200      0.487294000      0.065549000
| 26> 6       -1.705693600     -0.364773800     -0.068373600
| 27> 6       -3.005136200      0.445344800      0.258164000
| 28> 6       -4.319880200     -0.214526000     -0.270540800
| 29> 9        3.211587400     -1.692050400      0.412735200
| 30> 9        3.741061800      0.055285800      1.689948800
| 31> 9        2.125696800      1.616867800      0.483236600
| 32> 9        2.314152400      0.589704000     -1.455769200
| 33> 9        0.794028800     -1.413561400     -0.700839000
| 34> 9        0.958350600     -0.884509000      1.435093400
| 35> 9       -0.498373400      1.260265600      1.173340200
| 36> 9       -0.299075000      1.289512600     -1.020910800
| 37> 9       -1.641790400     -1.418189000      0.779523800
| 38> 9       -1.792381400     -0.831391600     -1.336863600
| 39> 9       -3.119771000      0.573779800      1.598579800
| 40> 9       -4.383115600     -1.504377600      0.089127600
| 41> 9       -5.365669800      0.430528600      0.260394200
| 42> 9       -4.396020400     -0.128550600     -1.602941800
| 43> 1        5.903122371     -2.014774547     -1.145719253
| 44> *
| 45> 
| 46>                          ****END OF INPUT****
================================================================================

                       *****************************
                       * Geometry Optimization Run *
                       *****************************

Geometry optimization settings:
Update method            Update   .... BFGS
Choice of coordinates    CoordSys .... (2022) Redundant Internals
Initial Hessian          InHess   .... Almloef's Model
Max. no of cycles        MaxIter  .... 75

Convergence Tolerances:
Energy Change            TolE     ....  5.0000e-06 Eh
Max. Gradient            TolMAXG  ....  3.0000e-04 Eh/bohr
RMS Gradient             TolRMSG  ....  1.0000e-04 Eh/bohr
Max. Displacement        TolMAXD  ....  4.0000e-03 bohr
RMS Displacement         TolRMSD  ....  2.0000e-03 bohr
Strict Convergence                .... False

------------------------------------------------------------------------------
                        ORCA OPTIMIZATION COORDINATE SETUP
------------------------------------------------------------------------------

The optimization will be done in redundant internal coordinates (2022)
Making redundant internal coordinates   ...  (2022 redundants) done
Evaluating the initial hessian          ...  (Almloef) done
Evaluating the coordinates              ...  done
Calculating the B-matrix                .... done
Calculating the G-matrix                .... done
Diagonalizing the G-matrix              .... done
Small eigenvalue found = 4.821e-03
Small eigenvalue found = 1.275e-02
The first mode is                       ....   39
The number of degrees of freedom        ....   69

    -----------------------------------------------------------------
                    Redundant Internal Coordinates


    -----------------------------------------------------------------
         Definition                    Initial Value    Approx d2E/dq
    -----------------------------------------------------------------
      1. B(O   1,C   0)                  1.3940         0.551454   
      2. B(O   2,C   0)                  1.3855         0.568952   
      3. B(C   3,C   0)                  1.6006         0.288221   
      4. B(C   4,C   3)                  1.5599         0.334759   
      5. B(C   5,C   4)                  1.5647         0.328824   
      6. B(C   6,C   5)                  1.5667         0.326486   
      7. B(C   7,C   6)                  1.5688         0.323927   
      8. B(C   8,C   7)                  1.5657         0.327637   
      9. B(C   9,C   8)                  1.5632         0.330714   
     10. B(F  10,C   3)                  1.3856         0.528443   
     11. B(F  11,C   3)                  1.3915         0.517117   
     12. B(F  12,C   4)                  1.3570         0.586881   
     13. B(F  13,C   4)                  1.3614         0.577499   
     14. B(F  14,C   5)                  1.3545         0.592326   
     15. B(F  15,C   5)                  1.3556         0.590092   
     16. B(F  16,C   6)                  1.3547         0.591865   
     17. B(F  17,C   6)                  1.3540         0.593567   
     18. B(F  18,C   7)                  1.3538         0.593973   
     19. B(F  19,C   7)                  1.3544         0.592672   
     20. B(F  20,C   8)                  1.3514         0.599114   
     21. B(F  21,C   9)                  1.3406         0.623533   
     22. B(F  22,C   9)                  1.3385         0.628179   
     23. B(F  23,C   9)                  1.3373         0.630929   
     24. B(H  24,O   1)                  0.9600         0.519956   
     25. A(O   1,C   0,O   2)          136.1318         0.413163   
     26. A(O   2,C   0,C   3)          112.3347         0.371210   
     27. A(O   1,C   0,C   3)          111.5249         0.369222   
     28. L(C   0,O   1,H  24,C   3, 1) 180.0000         0.362759   
     29. L(C   0,O   1,H  24,C   3, 2) 180.0000         0.362759   
     30. A(C   4,C   3,F  11)          107.4072         0.373095   
     31. A(C   0,C   3,F  11)          110.2099         0.363632   
     32. A(F  10,C   3,F  11)          106.7094         0.399684   
     33. A(C   4,C   3,F  10)          107.2033         0.374492   
     34. A(C   0,C   3,F  10)          111.8265         0.364982   
     35. A(C   0,C   3,C   4)          113.1687         0.341363   
     36. A(C   3,C   4,F  12)          110.2926         0.381351   
     37. A(F  12,C   4,F  13)          108.2194         0.415201   
     38. A(C   3,C   4,C   5)          113.5839         0.349005   
     39. A(C   5,C   4,F  13)          107.9208         0.379109   
     40. A(C   3,C   4,F  13)          108.5818         0.380286   
     41. A(C   5,C   4,F  12)          108.0911         0.380169   
     42. A(F  14,C   5,F  15)          109.0206         0.417483   
     43. A(C   4,C   5,C   6)          113.9128         0.347536   
     44. A(C   6,C   5,F  15)          107.7906         0.380059   
     45. A(C   4,C   5,F  15)          108.5900         0.380529   
     46. A(C   6,C   5,F  14)          108.2026         0.380308   
     47. A(C   4,C   5,F  14)          109.2282         0.380779   
     48. A(C   5,C   6,C   7)          113.2023         0.346660   
     49. A(F  16,C   6,F  17)          108.8752         0.417862   
     50. A(C   7,C   6,F  17)          108.2186         0.379927   
     51. A(C   5,C   6,F  17)          109.1523         0.380446   
     52. A(C   7,C   6,F  16)          108.4284         0.379738   
     53. A(C   5,C   6,F  16)          108.8835         0.380256   
     54. A(C   8,C   7,F  18)          108.1296         0.380723   
     55. A(C   6,C   7,F  18)          109.2524         0.379972   
     56. A(F  18,C   7,F  19)          108.7561         0.418014   
     57. A(C   6,C   7,C   8)          113.2298         0.346865   
     58. A(C   8,C   7,F  19)          108.6915         0.380579   
     59. A(C   6,C   7,F  19)          108.6955         0.379828   
     60. A(C   9,C   8,F  20)          107.7127         0.381912   
     61. A(C   7,C   8,C   9)          114.1471         0.348078   
     62. A(C   7,C   8,F  20)          109.0521         0.381293   
     63. A(F  22,C   9,F  23)          108.6464         0.426961   
     64. A(F  21,C   9,F  23)          109.0552         0.426394   
     65. A(C   8,C   9,F  23)          110.9604         0.385362   
     66. A(F  21,C   9,F  22)          108.6877         0.426061   
     67. A(C   8,C   9,F  22)          108.6349         0.385069   
     68. A(C   8,C   9,F  21)          110.7995         0.384572   
     69. D(F  11,C   3,C   0,O   1)    108.6317         0.006601   
     70. D(F  10,C   3,C   0,O   2)    171.0025         0.006601   
     71. D(F  11,C   3,C   0,O   2)    -70.4768         0.006601   
     72. D(C   4,C   3,C   0,O   1)   -131.0839         0.006601   
     73. D(C   4,C   3,C   0,O   2)     49.8076         0.006601   
     74. D(F  10,C   3,C   0,O   1)     -9.8890         0.006601   
     75. D(C   5,C   4,C   3,C   0)    148.6429         0.009100   
     76. D(F  12,C   4,C   3,C   0)    -89.8453         0.009100   
     77. D(F  12,C   4,C   3,F  11)     32.0233         0.009100   
     78. D(F  12,C   4,C   3,F  10)    146.3851         0.009100   
     79. D(C   5,C   4,C   3,F  10)     24.8733         0.009100   
     80. D(C   5,C   4,C   3,F  11)    -89.4885         0.009100   
     81. D(C   6,C   5,C   4,F  12)     41.2001         0.008811   
     82. D(C   6,C   5,C   4,F  13)    -75.6292         0.008811   
     83. D(C   6,C   5,C   4,C   3)    163.9326         0.008811   
     84. D(F  14,C   5,C   4,F  13)     45.4721         0.008811   
     85. D(F  14,C   5,C   4,F  12)    162.3014         0.008811   
     86. D(F  14,C   5,C   4,C   3)    -74.9661         0.008811   
     87. D(F  16,C   6,C   5,F  15)     44.2190         0.008700   
     88. D(F  16,C   6,C   5,F  14)    161.9826         0.008700   
     89. D(F  16,C   6,C   5,C   4)    -76.3465         0.008700   
     90. D(C   7,C   6,C   5,F  15)    -76.4529         0.008700   
     91. D(C   7,C   6,C   5,F  14)     41.3107         0.008700   
     92. D(C   7,C   6,C   5,C   4)    162.9815         0.008700   
     93. D(F  18,C   7,C   6,F  17)    162.9167         0.008578   
     94. D(F  18,C   7,C   6,F  16)    -79.1358         0.008578   
     95. D(F  18,C   7,C   6,C   5)     41.7939         0.008578   
     96. D(C   8,C   7,C   6,F  17)    -76.5134         0.008578   
     97. D(C   8,C   7,C   6,F  16)     41.4341         0.008578   
     98. D(C   8,C   7,C   6,C   5)    162.3638         0.008578   
     99. D(C   9,C   8,C   7,C   6)    162.4166         0.008223   
    100. D(F  20,C   8,C   7,F  18)     44.1231         0.008223   
    101. D(F  20,C   8,C   7,C   6)    -77.0818         0.008223   
    102. D(C   9,C   8,C   7,F  19)     41.5227         0.008223   
    103. D(C   9,C   8,C   7,F  18)    -76.3785         0.008223   
    104. D(F  23,C   9,C   8,C   7)    -71.2711         0.008360   
    105. D(F  22,C   9,C   8,F  20)     48.1091         0.008360   
    106. D(F  22,C   9,C   8,C   7)    169.3552         0.008360   
    107. D(F  21,C   9,C   8,F  20)    -71.2185         0.008360   
    108. D(F  21,C   9,C   8,C   7)     50.0276         0.008360   
    -----------------------------------------------------------------

Number of atoms                         .... 25
Number of degrees of freedom            .... 108


         *************************************************************
         *                GEOMETRY OPTIMIZATION CYCLE   1            *
         *************************************************************
---------------------------------
CARTESIAN COORDINATES (ANGSTROEM)
---------------------------------
  C      4.790427   -0.033866   -0.529943
  O      5.449345   -1.206924   -0.894595
  O      4.978223    1.323071   -0.737377
  C      3.506688   -0.338742    0.376154
  C      2.222300    0.400525   -0.110682
  C      0.900507   -0.386390    0.175703
  C     -0.395261    0.487294    0.065549
  C     -1.705694   -0.364774   -0.068374
  C     -3.005136    0.445345    0.258164
  C     -4.319880   -0.214526   -0.270541
  F      3.211587   -1.692050    0.412735
  F      3.741062    0.055286    1.689949
  F      2.125697    1.616868    0.483237
  F      2.314152    0.589704   -1.455769
  F      0.794029   -1.413561   -0.700839
  F      0.958351   -0.884509    1.435093
  F     -0.498373    1.260266    1.173340
  F     -0.299075    1.289513   -1.020911
  F     -1.641790   -1.418189    0.779524
  F     -1.792381   -0.831392   -1.336864
  F     -3.119771    0.573780    1.598580
  F     -4.383116   -1.504378    0.089128
  F     -5.365670    0.430529    0.260394
  F     -4.396020   -0.128551   -1.602942
  H      5.903122   -2.014775   -1.145719

----------------------------
CARTESIAN COORDINATES (A.U.)
----------------------------
  NO LB      ZA    FRAG     MASS         X           Y           Z
   0 C     6.0000    0    12.011    9.052595   -0.063997   -1.001448
   1 O     8.0000    0    15.999   10.297770   -2.280756   -1.690539
   2 O     8.0000    0    15.999    9.407478    2.500242   -1.393441
   3 C     6.0000    0    12.011    6.626679   -0.640129    0.710828
   4 C     6.0000    0    12.011    4.199538    0.756882   -0.209158
   5 C     6.0000    0    12.011    1.701711   -0.730171    0.332031
   6 C     6.0000    0    12.011   -0.746935    0.920852    0.123870
   7 C     6.0000    0    12.011   -3.223294   -0.689323   -0.129207
   8 C     6.0000    0    12.011   -5.678884    0.841580    0.487859
   9 C     6.0000    0    12.011   -8.163391   -0.405395   -0.511248
  10 F     9.0000    0    18.998    6.069021   -3.197512    0.779956
  11 F     9.0000    0    18.998    7.069582    0.104475    3.193540
  12 F     9.0000    0    18.998    4.016985    3.055437    0.913185
  13 F     9.0000    0    18.998    4.373114    1.114379   -2.751005
  14 F     9.0000    0    18.998    1.500497   -2.671244   -1.324394
  15 F     9.0000    0    18.998    1.811020   -1.671480    2.711934
  16 F     9.0000    0    18.998   -0.941789    2.381557    2.217292
  17 F     9.0000    0    18.998   -0.565170    2.436826   -1.929242
  18 F     9.0000    0    18.998   -3.102534   -2.679989    1.473086
  19 F     9.0000    0    18.998   -3.387110   -1.571102   -2.526306
  20 F     9.0000    0    18.998   -5.895513    1.084287    3.020878
  21 F     9.0000    0    18.998   -8.282888   -2.842862    0.168427
  22 F     9.0000    0    18.998  -10.139646    0.813581    0.492074
  23 F     9.0000    0    18.998   -8.307275   -0.242925   -3.029121
  24 H     1.0000    0     1.008   11.155285   -3.807372   -2.165096

--------------------------------
INTERNAL COORDINATES (ANGSTROEM)
--------------------------------
 C      0   0   0     0.000000000000     0.00000000     0.00000000
 O      1   0   0     1.393990356793     0.00000000     0.00000000
 O      1   2   0     1.385486802956   136.13177198     0.00000000
 C      1   2   3     1.600608594862   111.52489317   181.18992567
 C      4   1   2     1.559863783763   113.16872737   228.91614990
 C      5   4   1     1.564732561934   113.58394786   148.64287440
 C      6   5   4     1.566675459667   113.91280616   163.93256239
 C      7   6   5     1.568817348692   113.20226571   162.98152714
 C      8   7   6     1.565717094808   113.22984595   162.36375422
 C      9   8   7     1.563173062643   114.14707705   162.41661495
 F      4   1   2     1.385592665621   111.82651119   350.11101305
 F      4   1   2     1.391490625050   110.20991618   108.63170802
 F      5   4   1     1.357041377479   110.29260564   270.15468021
 F      5   4   1     1.361428031433   108.58179722    28.57841973
 F      6   5   4     1.354527570075   109.22822656   285.03385927
 F      6   5   4     1.355556277776   108.59004089    43.81583148
 F      7   6   5     1.354739297058   108.88346185   283.65347401
 F      7   6   5     1.353957667090   109.15230848    42.38718856
 F      8   7   6     1.353771473879   109.25240264    41.79387651
 F      8   7   6     1.354368423305   108.69554158   283.25540020
 F      9   8   7     1.351425618925   109.05210362   282.91820052
 F     10   9   8     1.340551089588   110.79953142    50.02756898
 F     10   9   8     1.338530275591   108.63493714   169.35523750
 F     10   9   8     1.337341214598   110.96044107   288.72891896
 H      2   1   3     0.960000000033   180.00000000     0.00000000

---------------------------
INTERNAL COORDINATES (A.U.)
---------------------------
 C      0   0   0     0.000000000000     0.00000000     0.00000000
 O      1   0   0     2.634260007667     0.00000000     0.00000000
 O      1   2   0     2.618190619750   136.13177198     0.00000000
 C      1   2   3     3.024711891890   111.52489317   181.18992567
 C      4   1   2     2.947715357535   113.16872737   228.91614990
 C      5   4   1     2.956916014884   113.58394786   148.64287440
 C      6   5   4     2.960587559506   113.91280616   163.93256239
 C      7   6   5     2.964635143173   113.20226571   162.98152714
 C      8   7   6     2.958776512386   113.22984595   162.36375422
 C      9   8   7     2.953968988318   114.14707705   162.41661495
 F      4   1   2     2.618390671194   111.82651119   350.11101305
 F      4   1   2     2.629536199263   110.20991618   108.63170802
 F      5   4   1     2.564436555835   110.29260564   270.15468021
 F      5   4   1     2.572726130452   108.58179722    28.57841973
 F      6   5   4     2.559686148288   109.22822656   285.03385927
 F      6   5   4     2.561630124115   108.59004089    43.81583148
 F      7   6   5     2.560086254300   108.88346185   283.65347401
 F      7   6   5     2.558609187723   109.15230848    42.38718856
 F      8   7   6     2.558257333546   109.25240264    41.79387651
 F      8   7   6     2.559385404477   108.69554158   283.25540020
 F      9   8   7     2.553824310132   109.05210362   282.91820052
 F     10   9   8     2.533274427850   110.79953142    50.02756898
 F     10   9   8     2.529455642830   108.63493714   169.35523750
 F     10   9   8     2.527208643196   110.96044107   288.72891896
 H      2   1   3     1.814137088628   180.00000000     0.00000000

---------------------
BASIS SET INFORMATION
---------------------
There are 4 groups of distinct atoms

 Group   1 Type C   : 11s6p2d1f contracted to 5s3p2d1f pattern {62111/411/11/1}
 Group   2 Type O   : 11s6p2d1f contracted to 5s3p2d1f pattern {62111/411/11/1}
 Group   3 Type F   : 11s6p2d1f contracted to 5s3p2d1f pattern {62111/411/11/1}
 Group   4 Type H   : 5s1p contracted to 3s1p pattern {311/1}

Atom   0C    basis set group =>   1
Atom   1O    basis set group =>   2
Atom   2O    basis set group =>   2
Atom   3C    basis set group =>   1
Atom   4C    basis set group =>   1
Atom   5C    basis set group =>   1
Atom   6C    basis set group =>   1
Atom   7C    basis set group =>   1
Atom   8C    basis set group =>   1
Atom   9C    basis set group =>   1
Atom  10F    basis set group =>   3
Atom  11F    basis set group =>   3
Atom  12F    basis set group =>   3
Atom  13F    basis set group =>   3
Atom  14F    basis set group =>   3
Atom  15F    basis set group =>   3
Atom  16F    basis set group =>   3
Atom  17F    basis set group =>   3
Atom  18F    basis set group =>   3
Atom  19F    basis set group =>   3
Atom  20F    basis set group =>   3
Atom  21F    basis set group =>   3
Atom  22F    basis set group =>   3
Atom  23F    basis set group =>   3
Atom  24H    basis set group =>   4
---------------------------------
AUXILIARY/J BASIS SET INFORMATION
---------------------------------
There are 4 groups of distinct atoms

 Group   1 Type C   : 12s5p4d2f1g contracted to 6s4p3d1f1g pattern {711111/2111/211/2/1}
 Group   2 Type O   : 12s5p4d2f1g contracted to 6s4p3d1f1g pattern {711111/2111/211/2/1}
 Group   3 Type F   : 12s5p4d2f1g contracted to 6s4p3d1f1g pattern {711111/2111/211/2/1}
 Group   4 Type H   : 5s2p1d contracted to 3s1p1d pattern {311/2/1}

Atom   0C    basis set group =>   1
Atom   1O    basis set group =>   2
Atom   2O    basis set group =>   2
Atom   3C    basis set group =>   1
Atom   4C    basis set group =>   1
Atom   5C    basis set group =>   1
Atom   6C    basis set group =>   1
Atom   7C    basis set group =>   1
Atom   8C    basis set group =>   1
Atom   9C    basis set group =>   1
Atom  10F    basis set group =>   3
Atom  11F    basis set group =>   3
Atom  12F    basis set group =>   3
Atom  13F    basis set group =>   3
Atom  14F    basis set group =>   3
Atom  15F    basis set group =>   3
Atom  16F    basis set group =>   3
Atom  17F    basis set group =>   3
Atom  18F    basis set group =>   3
Atom  19F    basis set group =>   3
Atom  20F    basis set group =>   3
Atom  21F    basis set group =>   3
Atom  22F    basis set group =>   3
Atom  23F    basis set group =>   3
Atom  24H    basis set group =>   4


           ************************************************************
           *        Program running with 20 parallel MPI-processes    *
           *              working on a common directory               *
           ************************************************************
------------------------------------------------------------------------------
                             ORCA STARTUP CALCULATIONS
                           -- RI-GTO INTEGRALS CHOSEN --
------------------------------------------------------------------------------
------------------------------------------------------------------------------
                   ___                                                        
                  /   \      - P O W E R E D   B Y -                         
                 /     \                                                     
                 |  |  |   _    _      __       _____    __    __             
                 |  |  |  | |  | |    /  \     |  _  \  |  |  /  |          
                  \  \/   | |  | |   /    \    | | | |  |  | /  /          
                 / \  \   | |__| |  /  /\  \   | |_| |  |  |/  /          
                |  |  |   |  __  | /  /__\  \  |    /   |      \           
                |  |  |   | |  | | |   __   |  |    \   |  |\   \          
                \     /   | |  | | |  |  |  |  | |\  \  |  | \   \       
                 \___/    |_|  |_| |__|  |__|  |_| \__\ |__|  \__/        
                                                                              
                      - O R C A' S   B I G   F R I E N D -                    
                                      &                                       
                       - I N T E G R A L  F E E D E R -                       
                                                                              
 v1 FN, 2020, v2 2021, v3 2022-2024                                           
------------------------------------------------------------------------------


----------------------
SHARK INTEGRAL PACKAGE
----------------------

Number of atoms                             ...     25
Number of basis functions                   ...    750
Number of shells                            ...    268
Maximum angular momentum                    ...      3
Integral batch strategy                     ... SHARK/LIBINT Hybrid
RI-J (if used) integral strategy            ... SPLIT-RIJ (Revised 2003 algorithm where possible)
Printlevel                                  ...      1
Contraction scheme used                     ... SEGMENTED contraction
Prescreening option                         ... SCHWARTZ
   Thresh                                   ... 2.500e-11
   Tcut                                     ... 2.500e-12
   Tpresel                                  ... 2.500e-12 
Coulomb Range Separation                    ... NOT USED
Exchange Range Separation                   ... NOT USED
Multipole approximations                    ... NOT USED
Finite Nucleus Model                        ... NOT USED
CABS basis                                  ... NOT available
Auxiliary Coulomb fitting basis             ... AVAILABLE
   # of basis functions in Aux-J            ...   1187
   # of shells in Aux-J                     ...    365
   Maximum angular momentum in Aux-J        ...      4
Auxiliary J/K fitting basis                 ... NOT available
Auxiliary Correlation fitting basis         ... NOT available
Auxiliary 'external' fitting basis          ... NOT available

Checking pre-screening integrals            ... done (  0.0 sec) Dimension = 268
Check shell pair data                       ... done (  0.0 sec)
Shell pair information
Shell pair cut-off parameter TPreSel        ...   2.5e-12
Total number of shell pairs                 ...     36046
Shell pairs after pre-screening             ...     22175
Total number of primitive shell pairs       ...    118872
Primitive shell pairs kept                  ...     46997
          la=0 lb=0:   4229 shell pairs
          la=1 lb=0:   6054 shell pairs
          la=1 lb=1:   2093 shell pairs
          la=2 lb=0:   3292 shell pairs
          la=2 lb=1:   2407 shell pairs
          la=2 lb=2:    678 shell pairs
          la=3 lb=0:   1497 shell pairs
          la=3 lb=1:   1157 shell pairs
          la=3 lb=2:    619 shell pairs
          la=3 lb=3:    149 shell pairs

Calculating one electron integrals          ... done (  0.0 sec)
Calculating RI/J V-Matrix + Cholesky decomp.... done (  0.1 sec)
Calculating Nuclear repulsion               ... done (  0.0 sec) ENN=   2632.116048954315 Eh

Diagonalization of the overlap matrix:
Smallest eigenvalue                        ... 6.427e-05
Time for diagonalization                   ...    0.160 sec
Threshold for overlap eigenvalues          ... 1.000e-07
Number of eigenvalues below threshold      ... 0
Time for construction of square roots      ...    0.057 sec
Total time needed                          ...    0.224 sec

-------------------
DFT GRID GENERATION
-------------------

General Integration Accuracy     IntAcc      ... 4.388
Radial Grid Type                 RadialGrid  ... OptM3 with GC (2021)
Angular Grid (max. ang.)         AngularGrid ... 4 (Lebedev-302)
Angular grid pruning method      GridPruning ... 4 (adaptive)
Weight generation scheme         WeightScheme... mBecke (2022)
Basis function cutoff            BFCut       ... 1.0000e-11
Integration weight cutoff        WCut        ... 1.0000e-14
Partially contracted basis set               ... off
Rotationally invariant grid construction     ... off
Angular grids for H and He will be reduced by one unit

Total number of grid points                  ...   148726
Total number of batches                      ...     2336
Average number of points per batch           ...       63
Average number of grid points per atom       ...     5949

--------------------
COSX GRID GENERATION
--------------------

GRIDX 1
-------
General Integration Accuracy     IntAcc      ... 3.816
Radial Grid Type                 RadialGrid  ... OptM3 with GC (2021)
Angular Grid (max. ang.)         AngularGrid ... 1 (Lebedev-50)
Angular grid pruning method      GridPruning ... 4 (adaptive)
Weight generation scheme         WeightScheme... mBecke (2022)
Basis function cutoff            BFCut       ... 1.0000e-11
Integration weight cutoff        WCut        ... 1.0000e-14
Partially contracted basis set               ... on
Rotationally invariant grid construction     ... off
Angular grids for H and He will be reduced by one unit

Total number of grid points                  ...    18708
Total number of batches                      ...      158
Average number of points per batch           ...      118
Average number of grid points per atom       ...      748
UseSFitting                                  ... on

GRIDX 2
-------
General Integration Accuracy     IntAcc      ... 4.020
Radial Grid Type                 RadialGrid  ... OptM3 with GC (2021)
Angular Grid (max. ang.)         AngularGrid ... 2 (Lebedev-110)
Angular grid pruning method      GridPruning ... 4 (adaptive)
Weight generation scheme         WeightScheme... mBecke (2022)
Basis function cutoff            BFCut       ... 1.0000e-11
Integration weight cutoff        WCut        ... 1.0000e-14
Partially contracted basis set               ... on
Rotationally invariant grid construction     ... off
Angular grids for H and He will be reduced by one unit

Total number of grid points                  ...    44104
Total number of batches                      ...      360
Average number of points per batch           ...      122
Average number of grid points per atom       ...     1764
UseSFitting                                  ... on

GRIDX 3
-------
General Integration Accuracy     IntAcc      ... 4.338
Radial Grid Type                 RadialGrid  ... OptM3 with GC (2021)
Angular Grid (max. ang.)         AngularGrid ... 3 (Lebedev-194)
Angular grid pruning method      GridPruning ... 4 (adaptive)
Weight generation scheme         WeightScheme... mBecke (2022)
Basis function cutoff            BFCut       ... 1.0000e-11
Integration weight cutoff        WCut        ... 1.0000e-14
Partially contracted basis set               ... on
Rotationally invariant grid construction     ... off
Angular grids for H and He will be reduced by one unit

Total number of grid points                  ...    97651
Total number of batches                      ...      774
Average number of points per batch           ...      126
Average number of grid points per atom       ...     3906
UseSFitting                                  ... on
Initializing property integral containers    ... done (  0.0 sec)

SHARK setup successfully completed in   4.0 seconds

Maximum memory used throughout the entire STARTUP-calculation: 57.1 MB


           ************************************************************
           *        Program running with 20 parallel MPI-processes    *
           *              working on a common directory               *
           ************************************************************
-------------------------------------------------------------------------------
                                 ORCA GUESS
                   Start orbitals & Density for SCF / CASSCF
-------------------------------------------------------------------------------

------------
SCF SETTINGS
------------
Hamiltonian:
 Density Functional     Method          .... DFT(GTOs)
 Exchange Functional    Exchange        .... TPSS
 Correlation Functional Correlation     .... TPSS
 LDA part of GGA corr.  LDAOpt          .... PW91-LDA
 Gradients option       PostSCFGGA      .... off
 Hybrid DFT is turned on
   Fraction HF Exchange ScalHFX         ....  0.100000
   Scaling of DF-GGA-X  ScalDFX         ....  0.900000
   Scaling of DF-GGA-C  ScalDFC         ....  1.000000
   Scaling of DF-LDA-C  ScalLDAC        ....  1.000000
   Perturbative correction              ....  0.000000
   NL short-range parameter             ....  5.200000
 RI-approximation to the Coulomb term is turned on
   Number of AuxJ basis functions       .... 1187
   RIJ-COSX (HFX calculated with COS-X)).... on


General Settings:
 Integral files         IntName         .... rf_mecn_opt_TP_C7_P_B
 Hartree-Fock type      HFTyp           .... UHF
 Total Charge           Charge          ....    0
 Multiplicity           Mult            ....    2
 Number of Electrons    NEL             ....  191
 Basis Dimension        Dim             ....  750
 Nuclear Repulsion      ENuc            ....   2632.1160489543 Eh

Convergence Acceleration:
 AO-DIIS                CNVDIIS         .... on
   Start iteration      DIISMaxIt       ....     0
   Startup error        DIISStart       ....  0.200000
   # of expansion vecs  DIISMaxEq       ....     5
   Bias factor          DIISBfac        ....   1.050
   Max. coefficient     DIISMaxC        ....  10.000
 MO-DIIS                CNVKDIIS        .... off
 Trust-Rad. Augm. Hess. CNVTRAH         .... auto
   Auto Start mean grad. ratio tolernc. ....  1.125000
   Auto Start start iteration           ....    50
   Auto Start num. interpolation iter.  ....    10
   Max. Number of Micro iterations      ....    24
   Max. Number of Macro iterations      .... Maxiter - #DIIS iter
   Number of Davidson start vectors     ....     2
   Converg. threshold    (grad. norm)   ....   1.000e-05
   Grad. Scal. Fac. for Micro threshold ....   0.100
   Minimum threshold for Micro iter.    ....   1.000e-02
   NR start threshold (gradient norm)   ....   1.000e-04
   Initial trust radius                 ....   0.400
   Minimum AH scaling param. (alpha)    ....   1.000
   Maximum AH scaling param. (alpha)    .... 1000.000
   Quad. conv. algorithm                .... NR
   White noise on init. David. guess    .... on
   Maximum white noise                  ....   0.010
   Pseudo random numbers                .... off
   Inactive MOs                         .... canonical
   Orbital update algorithm             .... Taylor
   Preconditioner                       .... Diag
   Full preconditioner red. dimension   ....   250
 SOSCF                  CNVSOSCF        .... on
   Start iteration      SOSCFMaxIt      ....   150
   Startup grad/error   SOSCFStart      ....  0.001000
   Hessian update       SOSCFHessUp     .... L-BFGS
 Level Shifting         CNVShift        .... on
   Level shift para.    LevelShift      ....    0.2500
   Turn off err/grad.   ShiftErr        ....    0.0000
 Zerner damping         CNVZerner       .... off
 Static damping         CNVDamp         .... on
   Fraction old density DampFac         ....    0.8500
   Max. Damping (<1)    DampMax         ....    0.9800
   Min. Damping (>=0)   DampMin         ....    0.0000
   Turn off err/grad.   DampErr         ....    0.0300

SCF Procedure:
 Maximum # iterations   MaxIter         ....  1500
 SCF integral mode      SCFMode         .... Direct
   Integral package                     .... SHARK and LIBINT hybrid scheme
 Reset frequency        DirectResetFreq ....    20
 Integral Threshold     Thresh          ....  2.500e-11 Eh
 Primitive CutOff       TCut            ....  2.500e-12 Eh

Convergence Tolerance:
 Convergence Check Mode ConvCheckMode   .... Total+1el-Energy
 Convergence forced     ConvForced      .... 0
 Energy Change          TolE            ....  1.000e-08 Eh
 1-El. energy change                    ....  1.000e-05 Eh
 Orbital Gradient       TolG            ....  1.000e-05
 Orbital Rotation angle TolX            ....  1.000e-05
 DIIS Error             TolErr          ....  5.000e-07

------------------------------
INITIAL GUESS: MODEL POTENTIAL
------------------------------
Loading Hartree-Fock densities                     ... done
Calculating cut-offs                               ... done
Initializing the effective Hamiltonian             ... done
Setting up the integral package (SHARK)            ... done
Starting the Coulomb interaction                   ... done (   0.2 sec)
Making the grid                                    ... done (   0.4 sec)
Mapping shells                                     ... done
Starting the XC term evaluation                    ... done (   0.2 sec)
  promolecular density results
     # of electrons  =    191.000509358
     EX              =   -197.375717936
     EC              =     -6.683278328
     EX+EC           =   -204.058996264
Transforming the Hamiltonian                       ... done (   0.1 sec)
Diagonalizing the Hamiltonian                      ... done (   0.1 sec)
Back transforming the eigenvectors                 ... done (   0.0 sec)
Now organizing SCF variables                       ... done
                      ------------------
                      INITIAL GUESS DONE (   1.1 sec)
                      ------------------
             **** ENERGY FILE WAS UPDATED (rf_mecn_opt_TP_C7_P_B.en.tmp) ****
Finished Guess after   1.9 sec
Maximum memory used throughout the entire GUESS-calculation: 46.3 MB


           ************************************************************
           *        Program running with 20 parallel MPI-processes    *
           *              working on a common directory               *
           ************************************************************

-------------------------------------------------------------------------------------------
                                      ORCA LEAN-SCF
                              memory conserving SCF solver
-------------------------------------------------------------------------------------------

--------------------
CPCM SOLVATION MODEL
--------------------
CPCM parameters:
  Epsilon                                         ...      35.6880
  Refrac                                          ...       1.3442
  Rsolv                                           ...       1.3000
  Surface type                                    ... GAUSSIAN VDW
  Discretization scheme                           ... Constant charge density
    Threshold for H atoms                         ...       5.0000 (charges/Ang^2)
    Threshold for non-H atoms                     ...       5.0000 (charges/Ang^2)
  Epsilon function type                           ...         CPCM
Solvent:                                          ... ACETONITRILE
SMD-CDS solvent descriptors:
  Soln                                            ...       1.3442
  Soln25                                          ...       1.3416
  Sola                                            ...       0.0700
  Solb                                            ...       0.3200
  Solg                                            ...      41.2500
  Solc                                            ...       0.0000
  Solh                                            ...       0.0000
Radii:
  Scheme                                          ... Element-dependent radii
  Radius for C  used is    3.4960 Bohr (=   1.8500 Ang.)
  Radius for O  used is    4.0969 Bohr (=   2.1680 Ang.)
  Radius for F  used is    3.2692 Bohr (=   1.7300 Ang.)
  Radius for H  used is    2.2677 Bohr (=   1.2000 Ang.)
Calculating surface                               ...        done! (  0.0s)
Cavity surface points                             ...         2160
Cavity Volume                                     ...    2132.4922
Cavity Surface-area                               ...    1114.6078
Calculating surface distance matrix               ...        done! (  0.0s)
Performing Cholesky decomposition & store         ...        done! (  0.1s)
Overall time for CPCM initialization              ...                 0.1s

----------------------------------------D-I-I-S--------------------------------------------
Iteration    Energy (Eh)           Delta-E    RMSDP     MaxDP     DIISErr   Damp  Time(sec)
-------------------------------------------------------------------------------------------
               ***  Starting incremental Fock matrix formation  ***
    1    -1853.8428915671370305     0.00e+00  2.02e-04  1.64e-02  1.43e-01  0.850   7.6
Warning: op=1 Small HOMO/LUMO gap (   0.031) - skipping pre-diagonalization
         Will do a full diagonalization
    2    -1853.9862341180701151    -1.43e-01  1.90e-04  1.49e-02  8.59e-02  0.850   5.4
                               ***Turning on AO-DIIS***
    3    -1854.0552111168449301    -6.90e-02  7.90e-05  4.41e-03  4.89e-02  0.850   4.8
    4    -1854.0955557766806123    -4.03e-02  4.88e-05  3.10e-03  3.42e-02  0.850   4.5
    5    -1854.1241203856720858    -2.86e-02  3.95e-05  3.31e-03  2.68e-02  0.850   4.4
    6    -1854.1469026295703770    -2.28e-02  2.35e-04  2.15e-02  2.47e-02  0.000   4.2
    7    -1854.2696867246481816    -1.23e-01  4.24e-05  3.00e-03  5.12e-03  0.000   4.6
    8    -1854.2699664139850029    -2.80e-04  1.15e-05  1.35e-03  3.81e-03  0.000   4.2
    9    -1854.2700736130823316    -1.07e-04  4.71e-06  3.74e-04  1.01e-03  0.000   3.6
                              *** Initializing SOSCF ***
---------------------------------------S-O-S-C-F--------------------------------------
Iteration    Energy (Eh)           Delta-E    RMSDP     MaxDP     MaxGrad    Time(sec)
--------------------------------------------------------------------------------------
   10    -1854.2700908261590484    -1.72e-05  2.56e-06  3.12e-04  3.02e-04     4.2
               *** Restarting incremental Fock matrix formation ***
   11    -1854.2701048236899624    -1.40e-05  2.61e-06  2.50e-04  1.49e-04     7.4
   12    -1854.2701044366690439     3.87e-07  1.95e-06  1.92e-04  4.55e-04     4.7
   13    -1854.2701061222219323    -1.69e-06  1.54e-06  1.03e-04  1.81e-04     4.2
   14    -1854.2701057635053985     3.59e-07  8.42e-07  5.65e-05  1.11e-04     4.2
   15    -1854.2701064407060585    -6.77e-07  3.13e-07  2.57e-05  1.70e-05     4.1
   16    -1854.2701064447578574    -4.05e-09  1.64e-07  1.65e-05  2.46e-05     3.5
                 **** Energy Check signals convergence ****

               *****************************************************
               *                     SUCCESS                       *
               *           SCF CONVERGED AFTER  16 CYCLES          *
               *****************************************************

Recomputing exchange energy using gridx3       ... done (    8.680 sec)
Old exchange energy                            :    -19.881062276 Eh
New exchange energy                            :    -19.881075128 Eh
Exchange energy change after final integration :     -0.000012851 Eh
Total energy after final integration           :  -1854.270119296 Eh

SMD CDS free energy correction energy :                 3.63138     Kcal/mol
Total Energy after SMD CDS correction =             -1854.264332327 Eh
             **** ENERGY FILE WAS UPDATED (rf_mecn_opt_TP_C7_P_B.en.tmp) ****

----------------
TOTAL SCF ENERGY
----------------

Total Energy       :      -1854.26433232650606 Eh          -50457.09767 eV

Components:
Nuclear Repulsion  :       2632.11604895431492 Eh           71623.51896 eV
Electronic Energy  :      -4486.36893578532909 Eh         -122080.30519 eV
One Electron Energy:      -7816.35267416115312 Eh         -212693.76941 eV
Two Electron Energy:       3329.98373837582403 Eh           90613.46422 eV
CPCM Dielectric    :         -0.01721961374395 Eh              -0.46857 eV
SMD CDS (Gcds)     :          0.00578696939472 Eh               0.15747 eV

Virial components:
Potential Energy   :      -3701.14258474588132 Eh         -100713.20989 eV
Kinetic Energy     :       1846.87825241937549 Eh           50256.11222 eV
Virial Ratio       :          2.00399922404060

DFT components:
N(Alpha)           :       95.999979088892 electrons
N(Beta)            :       94.999967778072 electrons
N(Total)           :      190.999946866965 electrons
E(X)               :     -180.728259290752 Eh       
E(C)               :       -6.698557317501 Eh       
E(XC)              :     -187.426816608253 Eh       

CPCM Solvation Model Properties:
Surface-charge          :         -0.00892260070136
Corrected charge        :         -0.00000000000000
Outlying charge corr.   :          0.00000433814201 Eh               0.00012 eV
Free-energy (cav+disp)  :          0.00578696939472 Eh               0.15747 eV

---------------
SCF CONVERGENCE
---------------

  Last Energy change         ...    4.0518e-09  Tolerance :   1.0000e-08
  Last MAX-Density change    ...    1.6461e-05  Tolerance :   1.0000e-07
  Last RMS-Density change    ...    1.6357e-07  Tolerance :   5.0000e-09
  Last DIIS Error            ...    3.0223e-04  Tolerance :   5.0000e-07
  Last Orbital Gradient      ...    2.4632e-05  Tolerance :   1.0000e-05
  Last Orbital Rotation      ...    1.9161e-05  Tolerance :   1.0000e-05


----------------------
UHF SPIN CONTAMINATION
----------------------

Warning: in a DFT calculation there is little theoretical justification to 
         calculate <S**2> as in Hartree-Fock theory. We will do it anyways
         but you should keep in mind that the values have only limited relevance

Expectation value of <S**2>     :     0.753818
Ideal value S*(S+1) for S=0.5   :     0.750000
Deviation                       :     0.003818

----------------
ORBITAL ENERGIES
----------------
                 SPIN UP ORBITALS
  NO   OCC          E(Eh)            E(eV) 
   0   1.0000     -24.665391      -671.1794 
   1   1.0000     -24.659599      -671.0218 
   2   1.0000     -24.659471      -671.0183 
   3   1.0000     -24.659276      -671.0130 
   4   1.0000     -24.658688      -670.9970 
   5   1.0000     -24.658620      -670.9952 
   6   1.0000     -24.658003      -670.9784 
   7   1.0000     -24.657351      -670.9606 
   8   1.0000     -24.656649      -670.9415 
   9   1.0000     -24.654996      -670.8965 
  10   1.0000     -24.654421      -670.8809 
  11   1.0000     -24.653972      -670.8687 
  12   1.0000     -24.649265      -670.7406 
  13   1.0000     -24.649203      -670.7389 
  14   1.0000     -19.130601      -520.5701 
  15   1.0000     -19.098752      -519.7035 
  16   1.0000     -10.393564      -282.8233 
  17   1.0000     -10.345625      -281.5188 
  18   1.0000     -10.344694      -281.4934 
  19   1.0000     -10.344641      -281.4920 
  20   1.0000     -10.343978      -281.4739 
  21   1.0000     -10.343180      -281.4522 
  22   1.0000     -10.340553      -281.3808 
  23   1.0000     -10.280427      -279.7446 
  24   1.0000      -1.314108       -35.7587 
  25   1.0000      -1.299611       -35.3642 
  26   1.0000      -1.285043       -34.9678 
  27   1.0000      -1.274547       -34.6822 
  28   1.0000      -1.273024       -34.6407 
  29   1.0000      -1.256798       -34.1992 
  30   1.0000      -1.253352       -34.1054 
  31   1.0000      -1.233467       -33.5643 
  32   1.0000      -1.229075       -33.4448 
  33   1.0000      -1.225476       -33.3469 
  34   1.0000      -1.224801       -33.3285 
  35   1.0000      -1.220061       -33.1995 
  36   1.0000      -1.218840       -33.1663 
  37   1.0000      -1.204668       -32.7807 
  38   1.0000      -1.066791       -29.0289 
  39   1.0000      -0.979884       -26.6640 
  40   1.0000      -0.826861       -22.5000 
  41   1.0000      -0.811496       -22.0819 
  42   1.0000      -0.784981       -21.3604 
  43   1.0000      -0.748843       -20.3770 
  44   1.0000      -0.715329       -19.4651 
  45   1.0000      -0.684661       -18.6306 
  46   1.0000      -0.656799       -17.8724 
  47   1.0000      -0.650060       -17.6890 
  48   1.0000      -0.616476       -16.7752 
  49   1.0000      -0.613521       -16.6948 
  50   1.0000      -0.604780       -16.4569 
  51   1.0000      -0.600589       -16.3429 
  52   1.0000      -0.598230       -16.2787 
  53   1.0000      -0.595330       -16.1997 
  54   1.0000      -0.588002       -16.0003 
  55   1.0000      -0.580919       -15.8076 
  56   1.0000      -0.573149       -15.5962 
  57   1.0000      -0.570788       -15.5319 
  58   1.0000      -0.562125       -15.2962 
  59   1.0000      -0.556540       -15.1442 
  60   1.0000      -0.554045       -15.0763 
  61   1.0000      -0.545706       -14.8494 
  62   1.0000      -0.500105       -13.6085 
  63   1.0000      -0.485149       -13.2016 
  64   1.0000      -0.480209       -13.0671 
  65   1.0000      -0.477614       -12.9965 
  66   1.0000      -0.475028       -12.9262 
  67   1.0000      -0.469910       -12.7869 
  68   1.0000      -0.466688       -12.6992 
  69   1.0000      -0.464778       -12.6473 
  70   1.0000      -0.459711       -12.5094 
  71   1.0000      -0.456599       -12.4247 
  72   1.0000      -0.453387       -12.3373 
  73   1.0000      -0.449151       -12.2220 
  74   1.0000      -0.443844       -12.0776 
  75   1.0000      -0.442167       -12.0320 
  76   1.0000      -0.437118       -11.8946 
  77   1.0000      -0.435344       -11.8463 
  78   1.0000      -0.432047       -11.7566 
  79   1.0000      -0.427008       -11.6195 
  80   1.0000      -0.423895       -11.5348 
  81   1.0000      -0.422532       -11.4977 
  82   1.0000      -0.420513       -11.4427 
  83   1.0000      -0.416884       -11.3440 
  84   1.0000      -0.415396       -11.3035 
  85   1.0000      -0.413346       -11.2477 
  86   1.0000      -0.409887       -11.1536 
  87   1.0000      -0.409256       -11.1364 
  88   1.0000      -0.406768       -11.0687 
  89   1.0000      -0.393081       -10.6963 
  90   1.0000      -0.367912       -10.0114 
  91   1.0000      -0.343950        -9.3594 
  92   1.0000      -0.327522        -8.9123 
  93   1.0000      -0.326163        -8.8753 
  94   1.0000      -0.298176        -8.1138 
  95   1.0000      -0.289704        -7.8832 
  96   0.0000      -0.110856        -3.0166 
  97   0.0000      -0.030990        -0.8433 
  98   0.0000      -0.015341        -0.4174 
  99   0.0000      -0.003504        -0.0954 
 100   0.0000       0.013345         0.3631 
 101   0.0000       0.045428         1.2361 
 102   0.0000       0.060350         1.6422 
 103   0.0000       0.090302         2.4572 
 104   0.0000       0.091331         2.4852 
 105   0.0000       0.099263         2.7011 
 106   0.0000       0.099896         2.7183 

                 SPIN DOWN ORBITALS
  NO   OCC          E(Eh)            E(eV) 
   0   1.0000     -24.661178      -671.0648 
   1   1.0000     -24.659576      -671.0212 
   2   1.0000     -24.659469      -671.0183 
   3   1.0000     -24.658588      -670.9943 
   4   1.0000     -24.658008      -670.9785 
   5   1.0000     -24.658000      -670.9783 
   6   1.0000     -24.657578      -670.9668 
   7   1.0000     -24.657351      -670.9606 
   8   1.0000     -24.656608      -670.9404 
   9   1.0000     -24.654996      -670.8965 
  10   1.0000     -24.654460      -670.8820 
  11   1.0000     -24.654021      -670.8700 
  12   1.0000     -24.649265      -670.7406 
  13   1.0000     -24.649203      -670.7389 
  14   1.0000     -19.130601      -520.5701 
  15   1.0000     -19.098752      -519.7035 
  16   1.0000     -10.393385      -282.8184 
  17   1.0000     -10.345626      -281.5188 
  18   1.0000     -10.344710      -281.4939 
  19   1.0000     -10.344407      -281.4856 
  20   1.0000     -10.343981      -281.4740 
  21   1.0000     -10.343162      -281.4517 
  22   1.0000     -10.340553      -281.3808 
  23   1.0000     -10.264122      -279.3010 
  24   1.0000      -1.313070       -35.7304 
  25   1.0000      -1.299379       -35.3579 
  26   1.0000      -1.284377       -34.9497 
  27   1.0000      -1.273911       -34.6649 
  28   1.0000      -1.272982       -34.6396 
  29   1.0000      -1.256791       -34.1990 
  30   1.0000      -1.246151       -33.9095 
  31   1.0000      -1.233067       -33.5535 
  32   1.0000      -1.227431       -33.4001 
  33   1.0000      -1.224798       -33.3284 
  34   1.0000      -1.224577       -33.3224 
  35   1.0000      -1.219534       -33.1852 
  36   1.0000      -1.218756       -33.1640 
  37   1.0000      -1.204668       -32.7807 
  38   1.0000      -1.066791       -29.0289 
  39   1.0000      -0.979883       -26.6640 
  40   1.0000      -0.825054       -22.4509 
  41   1.0000      -0.804378       -21.8882 
  42   1.0000      -0.778110       -21.1734 
  43   1.0000      -0.746774       -20.3208 
  44   1.0000      -0.714550       -19.4439 
  45   1.0000      -0.682607       -18.5747 
  46   1.0000      -0.653874       -17.7928 
  47   1.0000      -0.648228       -17.6392 
  48   1.0000      -0.615723       -16.7547 
  49   1.0000      -0.611485       -16.6394 
  50   1.0000      -0.603669       -16.4267 
  51   1.0000      -0.599685       -16.3183 
  52   1.0000      -0.596406       -16.2290 
  53   1.0000      -0.592406       -16.1202 
  54   1.0000      -0.587099       -15.9758 
  55   1.0000      -0.580369       -15.7926 
  56   1.0000      -0.571842       -15.5606 
  57   1.0000      -0.569824       -15.5057 
  58   1.0000      -0.560574       -15.2540 
  59   1.0000      -0.555529       -15.1167 
  60   1.0000      -0.550692       -14.9851 
  61   1.0000      -0.545472       -14.8431 
  62   1.0000      -0.484951       -13.1962 
  63   1.0000      -0.481300       -13.0968 
  64   1.0000      -0.477020       -12.9804 
  65   1.0000      -0.476344       -12.9620 
  66   1.0000      -0.473718       -12.8905 
  67   1.0000      -0.468723       -12.7546 
  68   1.0000      -0.465771       -12.6743 
  69   1.0000      -0.461720       -12.5640 
  70   1.0000      -0.459164       -12.4945 
  71   1.0000      -0.453961       -12.3529 
  72   1.0000      -0.452469       -12.3123 
  73   1.0000      -0.446454       -12.1486 
  74   1.0000      -0.442451       -12.0397 
  75   1.0000      -0.441142       -12.0041 
  76   1.0000      -0.435370       -11.8470 
  77   1.0000      -0.431587       -11.7441 
  78   1.0000      -0.430053       -11.7023 
  79   1.0000      -0.426713       -11.6115 
  80   1.0000      -0.423185       -11.5155 
  81   1.0000      -0.421954       -11.4820 
  82   1.0000      -0.420292       -11.4367 
  83   1.0000      -0.416689       -11.3387 
  84   1.0000      -0.415084       -11.2950 
  85   1.0000      -0.412631       -11.2283 
  86   1.0000      -0.409401       -11.1404 
  87   1.0000      -0.408974       -11.1287 
  88   1.0000      -0.406288       -11.0557 
  89   1.0000      -0.391483       -10.6528 
  90   1.0000      -0.365949        -9.9580 
  91   1.0000      -0.343074        -9.3355 
  92   1.0000      -0.326444        -8.8830 
  93   1.0000      -0.325847        -8.8667 
  94   1.0000      -0.298153        -8.1132 
  95   0.0000      -0.149407        -4.0656 
  96   0.0000      -0.110831        -3.0159 
  97   0.0000      -0.029964        -0.8154 
  98   0.0000      -0.012798        -0.3482 
  99   0.0000      -0.001057        -0.0288 
 100   0.0000       0.018177         0.4946 
 101   0.0000       0.051196         1.3931 
 102   0.0000       0.064609         1.7581 
 103   0.0000       0.091689         2.4950 
 104   0.0000       0.093449         2.5429 
 105   0.0000       0.100189         2.7263 
*Only the first 10 virtual orbitals were printed.

                    ********************************
                    * MULLIKEN POPULATION ANALYSIS *
                    ********************************

--------------------------------------------
MULLIKEN ATOMIC CHARGES AND SPIN POPULATIONS
--------------------------------------------
   0 C :    0.339887   -0.000003
   1 O :   -0.428240    0.000003
   2 O :   -0.367280    0.000002
   3 C :    0.345372   -0.000023
   4 C :    0.303706   -0.000023
   5 C :    0.292641    0.000829
   6 C :    0.303492   -0.000704
   7 C :    0.320797    0.005788
   8 C :    0.112444    0.853646
   9 C :    0.424737    0.008332
  10 F :   -0.163537   -0.000001
  11 F :   -0.164765    0.000001
  12 F :   -0.151534    0.000003
  13 F :   -0.156409   -0.000005
  14 F :   -0.149983   -0.000038
  15 F :   -0.150838   -0.000009
  16 F :   -0.152544    0.000358
  17 F :   -0.154299    0.000209
  18 F :   -0.149413    0.023986
  19 F :   -0.155154    0.000915
  20 F :   -0.135259    0.082071
  21 F :   -0.135104    0.026406
  22 F :   -0.141494   -0.000919
  23 F :   -0.141241   -0.000823
  24 H :    0.454019   -0.000000
Sum of atomic charges         :   -0.0000000
Sum of atomic spin populations:    1.0000000

-----------------------------------------------------
MULLIKEN REDUCED ORBITAL CHARGES AND SPIN POPULATIONS
-----------------------------------------------------
CHARGE
  0 C s       :     3.173074  s :     3.173074
      pz      :     0.790611  p :     2.253202
      px      :     0.801204
      py      :     0.661386
      dz2     :     0.016467  d :     0.215783
      dxz     :     0.015291
      dyz     :     0.059853
      dx2y2   :     0.054605
      dxy     :     0.069567
      f0      :     0.001777  f :     0.018054
      f+1     :     0.001069
      f-1     :     0.002333
      f+2     :     0.002564
      f-2     :     0.001953
      f+3     :     0.003870
      f-3     :     0.004487

  1 O s       :     3.667439  s :     3.667439
      pz      :     1.716267  p :     4.744039
      px      :     1.684849
      py      :     1.342923
      dz2     :     0.001652  d :     0.013921
      dxz     :     0.001191
      dyz     :     0.003042
      dx2y2   :     0.003132
      dxy     :     0.004905
      f0      :     0.000275  f :     0.002841
      f+1     :     0.000129
      f-1     :     0.000381
      f+2     :     0.000245
      f-2     :     0.000431
      f+3     :     0.000941
      f-3     :     0.000440

  2 O s       :     3.884621  s :     3.884621
      pz      :     1.533262  p :     4.457463
      px      :     1.687920
      py      :     1.236281
      dz2     :     0.003114  d :     0.023880
      dxz     :     0.000327
      dyz     :     0.006326
      dx2y2   :     0.008804
      dxy     :     0.005309
      f0      :     0.000118  f :     0.001315
      f+1     :     0.000012
      f-1     :     0.000225
      f+2     :     0.000230
      f-2     :     0.000030
      f+3     :     0.000297
      f-3     :     0.000404

  3 C s       :     3.095143  s :     3.095143
      pz      :     0.687700  p :     2.259854
      px      :     0.920004
      py      :     0.652150
      dz2     :     0.048381  d :     0.273950
      dxz     :     0.055486
      dyz     :     0.067846
      dx2y2   :     0.046833
      dxy     :     0.055404
      f0      :     0.005383  f :     0.025680
      f+1     :     0.003638
      f-1     :     0.003962
      f+2     :     0.003696
      f-2     :     0.002116
      f+3     :     0.003827
      f-3     :     0.003058

  4 C s       :     3.106183  s :     3.106183
      pz      :     0.619143  p :     2.265539
      px      :     0.937417
      py      :     0.708979
      dz2     :     0.063571  d :     0.296617
      dxz     :     0.062242
      dyz     :     0.071031
      dx2y2   :     0.036884
      dxy     :     0.062890
      f0      :     0.003620  f :     0.027955
      f+1     :     0.004985
      f-1     :     0.008107
      f+2     :     0.002408
      f-2     :     0.002713
      f+3     :     0.003616
      f-3     :     0.002505

  5 C s       :     3.141397  s :     3.141397
      pz      :     0.598606  p :     2.233730
      px      :     0.913748
      py      :     0.721376
      dz2     :     0.078533  d :     0.303977
      dxz     :     0.064526
      dyz     :     0.061546
      dx2y2   :     0.036096
      dxy     :     0.063275
      f0      :     0.005040  f :     0.028256
      f+1     :     0.004480
      f-1     :     0.006132
      f+2     :     0.003353
      f-2     :     0.004398
      f+3     :     0.002636
      f-3     :     0.002218

  6 C s       :     3.122229  s :     3.122229
      pz      :     0.586920  p :     2.245977
      px      :     0.924055
      py      :     0.735003
      dz2     :     0.082076  d :     0.300202
      dxz     :     0.063696
      dyz     :     0.056253
      dx2y2   :     0.036209
      dxy     :     0.061967
      f0      :     0.006264  f :     0.028101
      f+1     :     0.003983
      f-1     :     0.004283
      f+2     :     0.004204
      f-2     :     0.005241
      f+3     :     0.002194
      f-3     :     0.001932

  7 C s       :     3.112365  s :     3.112365
      pz      :     0.597061  p :     2.231856
      px      :     0.928426
      py      :     0.706369
      dz2     :     0.074996  d :     0.306798
      dxz     :     0.064100
      dyz     :     0.060793
      dx2y2   :     0.040092
      dxy     :     0.066818
      f0      :     0.004806  f :     0.028184
      f+1     :     0.004416
      f-1     :     0.006432
      f+2     :     0.003288
      f-2     :     0.004276
      f+3     :     0.002830
      f-3     :     0.002134

  8 C s       :     3.291968  s :     3.291968
      pz      :     0.617645  p :     2.433283
      px      :     0.904187
      py      :     0.911451
      dz2     :     0.031675  d :     0.146376
      dxz     :     0.046023
      dyz     :     0.036873
      dx2y2   :     0.012367
      dxy     :     0.019437
      f0      :     0.002972  f :     0.015929
      f+1     :     0.004927
      f-1     :     0.004411
      f+2     :     0.000511
      f-2     :     0.000903
      f+3     :     0.001139
      f-3     :     0.001067

  9 C s       :     3.015209  s :     3.015209
      pz      :     0.663924  p :     2.158894
      px      :     0.819448
      py      :     0.675522
      dz2     :     0.067741  d :     0.361207
      dxz     :     0.070731
      dyz     :     0.085494
      dx2y2   :     0.063533
      dxy     :     0.073708
      f0      :     0.004460  f :     0.039953
      f+1     :     0.008020
      f-1     :     0.008825
      f+2     :     0.004577
      f-2     :     0.003063
      f+3     :     0.007527
      f-3     :     0.003480

 10 F s       :     3.922431  s :     3.922431
      pz      :     1.891123  p :     5.225915
      px      :     1.882094
      py      :     1.452699
      dz2     :     0.002052  d :     0.014558
      dxz     :     0.000304
      dyz     :     0.002793
      dx2y2   :     0.005520
      dxy     :     0.003890
      f0      :     0.000050  f :     0.000633
      f+1     :     0.000016
      f-1     :     0.000127
      f+2     :     0.000071
      f-2     :     0.000018
      f+3     :     0.000169
      f-3     :     0.000182

 11 F s       :     3.921851  s :     3.921851
      pz      :     1.467990  p :     5.228204
      px      :     1.897609
      py      :     1.862605
      dz2     :     0.006371  d :     0.014088
      dxz     :     0.003317
      dyz     :     0.003534
      dx2y2   :     0.000430
      dxy     :     0.000437
      f0      :     0.000225  f :     0.000623
      f+1     :     0.000135
      f-1     :     0.000182
      f+2     :     0.000037
      f-2     :     0.000038
      f+3     :     0.000003
      f-3     :     0.000003

 12 F s       :     3.918729  s :     3.918729
      pz      :     1.804100  p :     5.216369
      px      :     1.899866
      py      :     1.512402
      dz2     :     0.002003  d :     0.015737
      dxz     :     0.000779
      dyz     :     0.005073
      dx2y2   :     0.004682
      dxy     :     0.003200
      f0      :     0.000080  f :     0.000699
      f+1     :     0.000004
      f-1     :     0.000122
      f+2     :     0.000188
      f-2     :     0.000063
      f+3     :     0.000107
      f-3     :     0.000137

 13 F s       :     3.921366  s :     3.921366
      pz      :     1.440164  p :     5.218778
      px      :     1.902092
      py      :     1.876523
      dz2     :     0.008023  d :     0.015576
      dxz     :     0.003592
      dyz     :     0.003404
      dx2y2   :     0.000274
      dxy     :     0.000282
      f0      :     0.000344  f :     0.000689
      f+1     :     0.000152
      f-1     :     0.000162
      f+2     :     0.000011
      f-2     :     0.000017
      f+3     :     0.000001
      f-3     :     0.000001

 14 F s       :     3.918232  s :     3.918232
      pz      :     1.699228  p :     5.215204
      px      :     1.899013
      py      :     1.616963
      dz2     :     0.002581  d :     0.015845
      dxz     :     0.001565
      dyz     :     0.006246
      dx2y2   :     0.002991
      dxy     :     0.002462
      f0      :     0.000078  f :     0.000701
      f+1     :     0.000013
      f-1     :     0.000189
      f+2     :     0.000196
      f-2     :     0.000103
      f+3     :     0.000059
      f-3     :     0.000063

 15 F s       :     3.918418  s :     3.918418
      pz      :     1.493038  p :     5.215900
      px      :     1.902405
      py      :     1.820457
      dz2     :     0.006498  d :     0.015820
      dxz     :     0.003176
      dyz     :     0.004743
      dx2y2   :     0.000616
      dxy     :     0.000786
      f0      :     0.000234  f :     0.000700
      f+1     :     0.000107
      f-1     :     0.000241
      f+2     :     0.000052
      f-2     :     0.000058
      f+3     :     0.000005
      f-3     :     0.000004

 16 F s       :     3.919448  s :     3.919448
      pz      :     1.585847  p :     5.216566
      px      :     1.899379
      py      :     1.731339
      dz2     :     0.004311  d :     0.015829
      dxz     :     0.002505
      dyz     :     0.005997
      dx2y2   :     0.001504
      dxy     :     0.001511
      f0      :     0.000118  f :     0.000702
      f+1     :     0.000055
      f-1     :     0.000262
      f+2     :     0.000127
      f-2     :     0.000100
      f+3     :     0.000021
      f-3     :     0.000019

 17 F s       :     3.919236  s :     3.919236
      pz      :     1.597232  p :     5.218526
      px      :     1.900771
      py      :     1.720523
      dz2     :     0.004069  d :     0.015835
      dxz     :     0.002427
      dyz     :     0.006116
      dx2y2   :     0.001619
      dxy     :     0.001604
      f0      :     0.000110  f :     0.000702
      f+1     :     0.000049
      f-1     :     0.000260
      f+2     :     0.000136
      f-2     :     0.000102
      f+3     :     0.000024
      f-3     :     0.000021

 18 F s       :     3.918840  s :     3.918840
      pz      :     1.713849  p :     5.214089
      px      :     1.898323
      py      :     1.601917
      dz2     :     0.002468  d :     0.015785
      dxz     :     0.001447
      dyz     :     0.006163
      dx2y2   :     0.003175
      dxy     :     0.002532
      f0      :     0.000078  f :     0.000699
      f+1     :     0.000010
      f-1     :     0.000179
      f+2     :     0.000201
      f-2     :     0.000098
      f+3     :     0.000063
      f-3     :     0.000071

 19 F s       :     3.918722  s :     3.918722
      pz      :     1.488849  p :     5.219912
      px      :     1.899778
      py      :     1.831286
      dz2     :     0.006686  d :     0.015819
      dxz     :     0.003322
      dyz     :     0.004553
      dx2y2   :     0.000572
      dxy     :     0.000686
      f0      :     0.000246  f :     0.000701
      f+1     :     0.000115
      f-1     :     0.000234
      f+2     :     0.000046
      f-2     :     0.000054
      f+3     :     0.000004
      f-3     :     0.000003

 20 F s       :     3.921359  s :     3.921359
      pz      :     1.449249  p :     5.196996
      px      :     1.904886
      py      :     1.842860
      dz2     :     0.007876  d :     0.016214
      dxz     :     0.003656
      dyz     :     0.004312
      dx2y2   :     0.000180
      dxy     :     0.000189
      f0      :     0.000335  f :     0.000691
      f+1     :     0.000156
      f-1     :     0.000178
      f+2     :     0.000009
      f-2     :     0.000011
      f+3     :     0.000001
      f-3     :     0.000001

 21 F s       :     3.911963  s :     3.911963
      pz      :     1.855514  p :     5.206481
      px      :     1.883889
      py      :     1.467078
      dz2     :     0.002184  d :     0.015913
[...]
      pz      :    -0.000090  p :     0.000202
      px      :    -0.000017
      py      :     0.000308
      dz2     :     0.000005  d :     0.000040
      dxz     :     0.000020
      dyz     :     0.000009
      dx2y2   :     0.000003
      dxy     :     0.000004
      f0      :     0.000000  f :     0.000002
      f+1     :     0.000001
      f-1     :     0.000000
      f+2     :    -0.000000
      f-2     :     0.000000
      f+3     :     0.000000
      f-3     :    -0.000000

 16 F s       :     0.000174  s :     0.000174
      pz      :     0.000892  p :     0.000727
      px      :    -0.000102
      py      :    -0.000063
      dz2     :     0.000002  d :     0.000195
      dxz     :    -0.000002
      dyz     :     0.000014
      dx2y2   :     0.000127
      dxy     :     0.000054
      f0      :     0.000000  f :     0.000012
      f+1     :     0.000001
      f-1     :     0.000001
      f+2     :     0.000002
      f-2     :     0.000004
      f+3     :     0.000003
      f-3     :     0.000002

 17 F s       :     0.000127  s :     0.000127
      pz      :    -0.000226  p :     0.000382
      px      :    -0.000255
      py      :     0.000862
      dz2     :     0.000011  d :     0.000185
      dxz     :     0.000040
      dyz     :     0.000034
      dx2y2   :     0.000064
      dxy     :     0.000036
      f0      :     0.000000  f :     0.000011
      f+1     :     0.000004
      f-1     :     0.000001
      f+2     :     0.000002
      f-2     :     0.000003
      f+3     :     0.000000
      f-3     :     0.000000

 18 F s       :     0.001154  s :     0.001154
      pz      :     0.007677  p :     0.013374
      px      :     0.003000
      py      :     0.002697
      dz2     :    -0.000048  d :    -0.000044
      dxz     :    -0.000038
      dyz     :     0.000090
      dx2y2   :    -0.000003
      dxy     :    -0.000046
      f0      :    -0.000002  f :    -0.000004
      f+1     :    -0.000001
      f-1     :     0.000001
      f+2     :    -0.000001
      f-2     :    -0.000002
      f+3     :    -0.000001
      f-3     :     0.000000

 19 F s       :     0.000712  s :     0.000712
      pz      :     0.006335  p :     0.006181
      px      :     0.000643
      py      :    -0.000797
      dz2     :    -0.000031  d :    -0.000147
      dxz     :    -0.000064
      dyz     :     0.000032
      dx2y2   :    -0.000010
      dxy     :    -0.000074
      f0      :    -0.000002  f :    -0.000009
      f+1     :    -0.000001
      f-1     :     0.000002
      f+2     :    -0.000002
      f-2     :    -0.000005
      f+3     :    -0.000002
      f-3     :     0.000000

 20 F s       :     0.002376  s :     0.002376
      pz      :    -0.003040  p :     0.097448
      px      :     0.023750
      py      :     0.076738
      dz2     :     0.001629  d :     0.010393
      dxz     :     0.002304
      dyz     :     0.004819
      dx2y2   :     0.001573
      dxy     :     0.000068
      f0      :     0.000099  f :     0.000548
      f+1     :     0.000130
      f-1     :     0.000132
      f+2     :     0.000170
      f-2     :     0.000002
      f+3     :     0.000007
      f-3     :     0.000008

 21 F s       :     0.001542  s :     0.001542
      pz      :     0.009953  p :     0.028202
      px      :     0.017524
      py      :     0.000726
      dz2     :    -0.000001  d :     0.000281
      dxz     :     0.000174
      dyz     :     0.000018
      dx2y2   :     0.000045
      dxy     :     0.000046
      f0      :     0.000004  f :     0.000011
      f+1     :    -0.000000
      f-1     :    -0.000001
      f+2     :     0.000000
      f-2     :     0.000004
      f+3     :    -0.000003
      f-3     :     0.000007

 22 F s       :     0.000121  s :     0.000121
      pz      :    -0.000774  p :     0.005645
      px      :     0.006822
      py      :    -0.000403
      dz2     :    -0.000007  d :    -0.000028
      dxz     :    -0.000022
      dyz     :    -0.000047
      dx2y2   :     0.000071
      dxy     :    -0.000023
      f0      :    -0.000001  f :    -0.000004
      f+1     :     0.000001
      f-1     :    -0.000001
      f+2     :    -0.000001
      f-2     :    -0.000002
      f+3     :    -0.000000
      f-3     :     0.000000

 23 F s       :     0.000425  s :     0.000425
      pz      :     0.005936  p :     0.009623
      px      :     0.001532
      py      :     0.002155
      dz2     :    -0.000049  d :    -0.000015
      dxz     :    -0.000013
      dyz     :     0.000055
      dx2y2   :    -0.000005
      dxy     :    -0.000003
      f0      :    -0.000003  f :    -0.000005
      f+1     :    -0.000001
      f-1     :     0.000002
      f+2     :    -0.000002
      f-2     :    -0.000000
      f+3     :     0.000000
      f-3     :     0.000000

 24 H s       :     0.000011  s :     0.000011
      pz      :     0.000002  p :     0.000001
      px      :    -0.000000
      py      :    -0.000000



                      *****************************
                      * MAYER POPULATION ANALYSIS *
                      *****************************

  NA   - Mulliken gross atomic population
  ZA   - Total nuclear charge
  QA   - Mulliken gross atomic charge
  VA   - Mayer's total valence
  BVA  - Mayer's bonded valence
  FA   - Mayer's free valence

  ATOM       NA         ZA         QA         VA         BVA        FA
  0 C      5.7769     6.0000     0.2231     4.4111     4.4111     0.0000
  1 O      8.3388     8.0000    -0.3388     2.1985     2.1985     0.0000
  2 O      8.2877     8.0000    -0.2877     2.2147     2.2147     0.0000
  3 C      5.6235     6.0000     0.3765     4.1783     4.1783     0.0000
  4 C      5.7298     6.0000     0.2702     4.2026     4.2026     0.0000
  5 C      5.7137     6.0000     0.2863     4.2457     4.2456     0.0000
  6 C      5.7261     6.0000     0.2739     4.2258     4.2250     0.0009
  7 C      5.6560     6.0000     0.3440     4.2595     4.2566     0.0029
  8 C      5.8528     6.0000     0.1472     3.9333     3.3524     0.5809
  9 C      5.5856     6.0000     0.4144     4.5679     4.5650     0.0029
 10 F      9.1596     9.0000    -0.1596     1.1610     1.1610     0.0000
 11 F      9.1543     9.0000    -0.1543     1.1709     1.1709     0.0000
 12 F      9.1534     9.0000    -0.1534     1.1769     1.1769     0.0000
 13 F      9.1537     9.0000    -0.1537     1.1756     1.1756     0.0000
 14 F      9.1500     9.0000    -0.1500     1.1779     1.1779     0.0000
 15 F      9.1492     9.0000    -0.1492     1.1790     1.1790     0.0000
 16 F      9.1527     9.0000    -0.1527     1.1747     1.1747     0.0000
 17 F      9.1541     9.0000    -0.1541     1.1767     1.1767     0.0000
 18 F      9.1548     9.0000    -0.1548     1.1658     1.1655     0.0003
 19 F      9.1526     9.0000    -0.1526     1.1679     1.1678     0.0001
 20 F      9.1223     9.0000    -0.1223     1.2278     1.2158     0.0120
 21 F      9.1498     9.0000    -0.1498     1.1584     1.1576     0.0009
 22 F      9.1413     9.0000    -0.1413     1.1778     1.1777     0.0000
 23 F      9.1436     9.0000    -0.1436     1.1706     1.1704     0.0001
 24 H      0.6175     1.0000     0.3825     0.8788     0.8788     0.0000

  Mayer bond orders larger than 0.100000
B(  0-C ,  1-O ) :   1.3151 B(  0-C ,  2-O ) :   2.0743 B(  0-C ,  3-C ) :   0.9054 
B(  1-O , 24-H ) :   0.8194 B(  3-C ,  4-C ) :   0.9560 B(  3-C , 10-F ) :   1.0983 
B(  3-C , 11-F ) :   1.1212 B(  4-C ,  5-C ) :   0.9461 B(  4-C , 12-F ) :   1.0916 
B(  4-C , 13-F ) :   1.0903 B(  5-C ,  6-C ) :   0.9457 B(  5-C , 14-F ) :   1.0960 
B(  5-C , 15-F ) :   1.0983 B(  6-C ,  7-C ) :   0.9470 B(  6-C , 16-F ) :   1.0905 
B(  6-C , 17-F ) :   1.0928 B(  7-C ,  8-C ) :   1.0078 B(  7-C , 18-F ) :   1.0851 
B(  7-C , 19-F ) :   1.1028 B(  8-C ,  9-C ) :   1.0557 B(  8-C , 20-F ) :   1.1486 
B(  9-C , 21-F ) :   1.1450 B(  9-C , 22-F ) :   1.1557 B(  9-C , 23-F ) :   1.1484 


-------
TIMINGS
-------

Total SCF time: 0 days 0 hours 0 min 35 sec 

Total time                  ....      35.852 sec
Sum of individual times     ....      34.621 sec  ( 96.6%)

SCF preparation             ....       1.316 sec  (  3.7%)
Fock matrix formation       ....      29.499 sec  ( 82.3%)
  Startup                   ....       0.113 sec  (  0.4% of F)
  Split-RI-J                ....       1.578 sec  (  5.3% of F)
  Chain of spheres X        ....      20.431 sec  ( 69.3% of F)
  XC integration            ....       5.732 sec  ( 19.4% of F)
    XC Preparation          ....       0.000 sec  (  0.0% of XC)
    Basis function eval.    ....       0.338 sec  (  5.9% of XC)
    Density eval.           ....       1.672 sec  ( 29.2% of XC)
    XC-Functional eval.     ....       0.057 sec  (  1.0% of XC)
    XC-Potential eval.      ....       1.996 sec  ( 34.8% of XC)
  CPCM terms                ....       1.384 sec  (  4.7% of F)
Diagonalization             ....       0.000 sec  (  0.0%)
Density matrix formation    ....       0.241 sec  (  0.7%)
Total Energy calculation    ....       0.167 sec  (  0.5%)
Population analysis         ....       0.601 sec  (  1.7%)
Orbital Transformation      ....       0.523 sec  (  1.5%)
Orbital Orthonormalization  ....       0.000 sec  (  0.0%)
DIIS solution               ....       0.715 sec  (  2.0%)
SOSCF solution              ....       1.559 sec  (  4.3%)
Finished LeanSCF after  36.4 sec

Maximum memory used throughout the entire LEANSCF-calculation: 109.6 MB


-------------------------------------------------------------------------------
                          DFT DISPERSION CORRECTION                            
                                                                               
                              DFTD3 V3.1  Rev 1                                
                          USING Becke-Johnson damping                          
-------------------------------------------------------------------------------
The TPSSH functional is recognized
Active option DFTDOPT                   ...         4   

molecular C6(AA) [au] = 6515.178985 


            DFT-D V3
 parameters
 s6 scaling factor         :     1.0000 
 a1 scaling factor         :     0.4529 
 s8 scaling factor         :     2.2382 
 a2 scaling factor         :     4.6550 
 ad hoc parameters k1-k3   :    16.0000     1.3333    -4.0000 

 Edisp/kcal,au: -18.637756975390  -0.029701153142 
 E6   /kcal   :  -9.037898033 
 E8   /kcal   :  -9.599858943 
 % E8         :  51.507587288 

-------------------------   ----------------
Dispersion correction           -0.029701153
-------------------------   ----------------


-------------------------   --------------------
FINAL SINGLE POINT ENERGY     -1854.407198636901
-------------------------   --------------------

                                *** OPTIMIZATION RUN DONE ***



           ************************************************************
           *        Program running with 20 parallel MPI-processes    *
           *              working on a common directory               *
           ************************************************************

------------------------------------------------------------------------------
                              ORCA PROPERTY CALCULATIONS
------------------------------------------------------------------------------

GBWName                                 ... rf_mecn_opt_TP_C7_P_B.gbw
Number of atoms                         ...     25
Number of basis functions               ...    750
Max core memory                         ...   8000 MB

Electric properties:
Dipole moment                           ... YES
Quadrupole moment                       ...  NO
Static polarizability (Dipole/Dipole)   ...  NO
Static polarizability (Dipole/Quad.)    ...  NO
Static polarizability (Quad./Quad.)     ...  NO
Static polarizability (Velocity)        ...  NO

Atomic electric properties:
Dipole moment                           ...  NO
Quadrupole moment                       ...  NO
Static polarizability                   ...  NO

Choice of electric origin               ... Center of mass
Position of electric origin             ...     0.202157    -0.302445     0.072840

General magnetic properties:
Magnetizability                         ...  NO

EPR properties:
g-Tensor (aka g-matrix)                 ...  NO
Zero-Field splitting spin-orbit         ...  NO
Zero-field splitting spin-spin          ...  NO
Hyperfine couplings                     ...  NO (   0 nuclei)
Quadrupole couplings                    ...  NO (   0 nuclei)
Contact density                         ...  NO (   0 nuclei)

NMR properties:
Chemical shifts                         ...  NO (   0 nuclei)
Spin-rotation constants                 ...  NO (   0 nuclei)
Spin-spin couplings                     ...  NO (   0 nuclei,    0 pairs)

Choice of magnetic origin               ... GIAO
Position of magnetic origin             ...     0.000000     0.000000     0.000000

Properties with geometric perturbations:
SCF Hessian                             ...  NO
IR spectrum                             ...  NO
VCD spectrum                            ...  NO
X-ray spectroscopy properties:
SCF XES/XAS/RIXS spectra                ...  NO


-------------
DIPOLE MOMENT
-------------

Method             : SCF
Type of density    : Electron Density
Multiplicity       :   2
Irrep              :   0
Energy             : -1854.3774974837590435 Eh
Relativity type    : 
Basis              : AO
                                X                 Y                 Z
Electronic contribution:    -13.482238361      -0.876618364       2.463554750
Nuclear contribution   :     14.101283594       0.604175170      -3.161106146
                        -----------------------------------------
Total Dipole Moment    :      0.619045233      -0.272443194      -0.697551395
                        -----------------------------------------
Magnitude (a.u.)       :      0.971607042
Magnitude (Debye)      :      2.469628836



--------------------
Rotational spectrum 
--------------------
 
Rotational constants in cm-1:             0.020561             0.004032             0.003960 
Rotational constants in MHz :           616.396607           120.883958           118.722429 

Dipole components along the rotational axes: 
x,y,z [a.u.] :    -0.618338    -0.508403    -0.550640 
x,y,z [Debye]:    -1.571691    -1.292258    -1.399615 

 

Dipole moment calculation done in   0.2 sec 

Maximum memory used throughout the entire PROP-calculation: 57.5 MB

--------------------------------
SUGGESTED CITATIONS FOR THIS RUN
--------------------------------

Below you find a list of papers that are relevant to this ORCA run
We neither can nor want to force you to cite these papers, but we appreciate if you do
You receive ORCA, which is the product of decades of hard work by many enthusiastic individuals, for free
The only thing we kindly ask in return is that you cite our papers,
We deeply appreciate it, if you show your appreciation for ORCA by not just citing the generic ORCA reference.

Please note that relegating all ORCA citations to the supporting information does *not* help us.
SI sections are not indexed - citations you put there will not count into any citation statistics
But we need these citations in order to attract the funding resources that allow us to do what we are doing

Therefore, if you are a happy ORCA user, please consider citing a few of the papers listed below in the main body of your paper

In addition to the list printed below, the program has created the file rf_mecn_opt_TP_C7_P_B.bibtex that contains the list in bibtex format
You can import this file easily into all common literature databanks and citation aid programs


List of essential papers. We consider these as the minimum necessary citations

  1. Neese,F.
     Software update: the ORCA program system, version 5.0
     WIRES Comput. Molec. Sci., 2022 12(1)e1606
     doi.org/10.1002/wcms.1606

List of papers to cite with high priority. The work reported in these papers was absolutely
necessary for this run to complete.
Our perspective: the developers of density functionals and basis sets usually get cited in chemistry papers
Good! But without the algorithms to do something with them, the functionals or basis sets would not do anything.
Hence, in our opinion, the algorithm design and method developments papers are equally worthy of getting cited

  1. Neese,F.
     An improvement of the resolution of the identity approximation for the formation of the Coulomb matrix
     J. Comp. Chem., 2003 24(14)1740-1747
     doi.org/10.1002/jcc.10318
  2. Neese,F.; Wennmohs,F.; Hansen,A.; Becker,U.
     Efficient, approximate and parallel Hartree-Fock and hybrid DFT calculations. A 'chain-of-spheres' algorithm for the Hartree-Fock exchange
     Chem. Phys., 2009 356(1-3)98-109
     doi.org/10.1016/j.chemphys.2008.10.036
  3. Garcia-Rates,M.; Neese,F.
     Effect of the Solute Cavity on the Solvation Energy and its Derivatives within the Framework of the Gaussian Charge Scheme
     J. Comput. Chem., 2020 41 922-939
     doi.org/10.1002/jcc.26139
  4. Helmich-Paris,B.; de Souza,B.; Neese,F.; Izsák,R.
     An improved chain of spheres for exchange algorithm
     J. Chem. Phys., 2021 155 104109
     doi.org/doi: 10.1063/5.0058766.
  5. Neese,F.
     The SHARK Integral Generation and Digestion System
     J. Comp. Chem., 2022  1-16
     doi.org/10.1002/jcc.26942
  6. Grimme,S.; Antony,J.; Ehrlich,S.; Krieg,H.
     A consistent and accurate ab initio parametrization of density functional dispersion correction (DFT-D) for the 94 elements H-Pu
     J. Chem. Phys., 2010 132 154104
     doi.org/10.1063/1.3382344
  7. Grimme,S.; Ehrlich,S.; Goerigk,L.
     Effect of the damping function in dispersion corrected density functional theory
     J. Comput. Chem., 2011 32(7)1456-1465
     doi.org/10.1002/jcc.21759

List of suggested additional citations. These are papers that are important in the 'surrounding' of 
of this run, or papers that preceded the highly important papers. If you like your results we are grateful for a citation.

  1. Izsak,R.; Neese,F.
     An overlap fitted chain of spheres exchange method
     J. Chem. Phys., 2011 135 144105
     doi.org/10.1063/1.3646921
  2. Izsak,R.; Hansen,A.; Neese,F.
     The resolution of identity and chain of spheres approximations for the LPNO-CCSD singles Fock term
     Molec. Phys., 2012 110 2413-2417
     doi.org/10.1080/00268976.2012.687466
  3. Neese,F.
     The ORCA program system
     WIRES Comput. Molec. Sci., 2012 2(1)73-78
     doi.org/10.1002/wcms.81
  4. Izsak,R.; Neese,F.; Klopper,W.
     Robust fitting techniques in the chain of spheres approximation to the Fock exchange: The role of the complementary space
     J. Chem. Phys., 2013 139 
     doi.org/10.1063/1.4819264
  5. Neese,F.
     Software update: the ORCA program system, version 4.0
     WIRES Comput. Molec. Sci., 2018 8(1)1-6
     doi.org/10.1002/wcms.1327
  6. Neese,F.; Wennmohs,F.; Becker,U.; Riplinger,C.
     The ORCA quantum chemistry program package
     J. Chem. Phys., 2020 152 Art. No. L224108
     doi.org/10.1063/5.0004608

List of optional additional citations

  1. Neese,F.
     Approximate second-order SCF convergence for spin unrestricted wavefunctions
     Chem. Phys. Lett., 2000 325(1-3)93-98
     doi.org/10.1016/s0009-2614(00)00662-x

Timings for individual modules:

Sum of individual times          ...     4195.675 sec (=  69.928 min)
Startup calculation              ...      202.107 sec (=   3.368 min)   4.8 %
SCF iterations                   ...     3015.400 sec (=  50.257 min)  71.9 %
Property calculations            ...        1.137 sec (=   0.019 min)   0.0 %
SCF Gradient evaluation          ...      976.047 sec (=  16.267 min)  23.3 %
Geometry relaxation              ...        0.984 sec (=   0.016 min)   0.0 %
                             ****ORCA TERMINATED NORMALLY****
TOTAL RUN TIME: 0 days 1 hours 10 minutes 28 seconds 141 msec
