
                                 *****************
                                 * O   R   C   A *
                                 *****************

                                            #,                                       
                                            ###                                      
                                            ####                                     
                                            #####                                    
                                            ######                                   
                                           ########,                                 
                                     ,,################,,,,,                         
                               ,,#################################,,                 
                          ,,##########################################,,             
                       ,#########################################, ''#####,          
                    ,#############################################,,   '####,        
                  ,##################################################,,,,####,       
                ,###########''''           ''''###############################       
              ,#####''   ,,,,##########,,,,          '''####'''          '####       
            ,##' ,,,,###########################,,,                        '##       
           ' ,,###''''                  '''############,,,                           
         ,,##''                                '''############,,,,        ,,,,,,###''
      ,#''                                            '''#######################'''  
     '                                                          ''''####''''         
             ,#######,   #######,   ,#######,      ##                                
            ,#'     '#,  ##    ##  ,#'     '#,    #''#        ,####,   ,####,        
            ##       ##  ##   ,#'  ##            #'  '#       #'       #'  '#        
            ##       ##  #######   ##           ,######,      #####,   #    #        
            '#,     ,#'  ##    ##  '#,     ,#' ,#      #,     #,   #   #,  ,#        
             '#######'   ##     ##  '#######'  #'      '#     '####' # '####'        



                #########################################################
                #                        -***-                          #
                #          Department of theory and spectroscopy        #
                #                                                       #
                #                      Frank Neese                      #
                #                                                       #
                #     Directorship, Architecture, Infrastructure        #
                #                    SHARK, DRIVERS                     #
                #        Core code/Algorithms in most modules           #
                #                                                       #
                #        Max Planck Institute fuer Kohlenforschung      #
                #                Kaiser Wilhelm Platz 1                 #
                #                 D-45470 Muelheim/Ruhr                 #
                #                      Germany                          #
                #                                                       #
                #                  All rights reserved                  #
                #                        -***-                          #
                #########################################################


                         Program Version 6.0.1  -  RELEASE   -


 With contributions from (in alphabetic order):
[Max-Planck-Institut fuer Kohlenforschung]                               
  Daniel Aravena         : Magnetic Suceptibility                        
  Michael Atanasov       : Ab Initio Ligand Field Theory (pilot matlab implementation)
  Alexander A. Auer      : GIAO ZORA, VPT2 properties, NMR spectrum      
  Ute Becker             : All parallelization in ORCA, NUMFREQ, NUMCALC 
  Giovanni Bistoni       : ED, misc. LED, open-shell LED, HFLD           
  Martin Brehm           : Molecular dynamics                            
  Dmytro Bykov           : pre 5.0 version of the SCF Hessian            
  Marcos Casanova-Páez   : Triplet and SCS-CIS(D). UHF-(DLPNO)-IP/EA/STEOM-CCSD. UHF-CVS-IP/STEOM-CCSD   
  Vijay G. Chilkuri      : MRCI spin determinant printing, contributions to CSF-ICE 
  Pauline Colinet        : FMM embedding                                 
  Dipayan Datta          : RHF DLPNO-CCSD density                        
  Achintya Kumar Dutta   : EOM-CC, STEOM-CC                              
  Nicolas Foglia         : Exact transition moments, OPA infrastructure, MCD improvements    
  Dmitry Ganyushin       : Spin-Orbit,Spin-Spin,Magnetic field MRCI      
  Miquel Garcia-Rates    : C-PCM and meta-GGA Hessian, CCSD/C-PCM, Gaussian charge scheme 
  Tiago L. C. Gouveia    : GS-ROHF, GS-ROCIS                             
  Yang Guo               : DLPNO-NEVPT2, F12-NEVPT2, CIM, IAO-localization        
  Andreas Hansen         : Spin unrestricted coupled pair/coupled cluster methods 
  Ingolf Harden          : AUTO-CI MPn and infrastructure                
  Benjamin Helmich-Paris : MC-RPA, TRAH-(SCF,CASSCF), AVAS, COSX integrals, SCF dyn. polar. 
  Lee Huntington         : MR-EOM, pCC                                   
  Robert Izsak           : Overlap fitted RIJCOSX, COSX-SCS-MP3, EOM     
  Riya Kayal             : Wick's Theorem for AUTO-CI, AUTO-CI UHF-CCSDT 
  Emily Kempfer          : AUTO-CI, RHF CISDT and CCSDT                  
  Christian Kollmar      : KDIIS, OOCD, Brueckner-CCSD(T), CCSD density, CASPT2, CASPT2-K, improved NEVPT2 
  Axel Koslowski         : Symmetry handling                             
  Simone Kossmann        : meta-GGA functionals, TD-DFT gradient, OOMP2, (MP2 Hessian; deprecated post 5.0) 
  Lucas Lang             : DCDCAS                                        
  Marvin Lechner         : AUTO-CI (C++ implementation), FIC-MRCC        
  Spencer Leger          : CASSCF response                               
  Dagmar Lenk            : GEPOL surface, SMD, ORCA-2-JSON               
  Dimitrios Liakos       : Extrapolation schemes; Compound Job, initial MDCI parallelization 
  Dimitrios Manganas     : Further ROCIS development; embedding schemes. LFT, Crystal Embedding 
  Dimitrios Pantazis     : SARC Basis sets                               
  Anastasios Papadopoulos: AUTO-CI, single reference methods and gradients 
  Taras Petrenko         : pre 6.0 DFT Hessian and TD-DFT gradient, (ASA, deprecated), ECA, 1-Electron XAS/XES, NRVS 
  Peter Pinski           : DLPNO-MP2, DLPNO-MP2 Gradient                 
  Christoph Reimann      : Effective Core Potentials                     
  Marius Retegan         : Local ZFS, SOC                                
  Christoph Riplinger    : Optimizer, TS searches, QM/MM, DLPNO-CCSD(T), (RO)-DLPNO pert. Triples 
  Michael Roemelt        : Original ROCIS implementation                 
  Masaaki Saitow         : Open-shell DLPNO-CCSD energy and density      
  Barbara Sandhoefer     : DKH picture change effects                    
  Kantharuban Sivalingam : CASSCF convergence/infrastructure, NEVPT2 and variants, FIC-MRCI 
  Bernardo de Souza      : ESD, SOC TD-DFT                               
  Georgi L. Stoychev     : AutoAux, RI-MP2 NMR, DLPNO-MP2 response, X2C  
  Van Anh Tran           : RI-MP2 g-tensors                              
  Willem Van den Heuvel  : Paramagnetic NMR                              
  Zikuan Wang            : NOTCH, Electric field optimization            
  Frank Wennmohs         : Technical directorship and infrastructure     
  Hang Xu                : AUTO-CI-Response properties                   
                                                                         
[FACCTs GmbH]                                                            
  Markus Bursch, Miquel Garcia-Rates, Christoph Riplinger, Bernardo de Souza, Georgi L. Stoychev 
                                                                 
  APM, Basis sets (HGBS, AHGBS, def-TZVP (Ac-Lr), def2-XVPD (La-Lu)), CI-OPT, improved COSX, DLPNO-Multilevel,           
  DOCKER, DRACO, updates on ESD, GOAT, IRC, LR-CPCM, MBIS, meta-GGA TD-DFT gradient, ML-optimized integration grids, 
  MM, NACMEs, nearIR, NEB, NEB-TS, NL-DFT gradient (VV10), 2- and 3-layer-ONIOM, interface openCOSMO-RS, QMMM,   
  Crystal-QMMM, SF, symmetry and pop. for TD-DFT, r2SCAN hybrids, SOLVATOR                                   
                                                                         
[Other institutions]                                                     
  V. Asgeirsson          : NEB                                           
  Christoph Bannwarth    : sTDA-DFT, sTD-DFT, PBEh-3c, B97-3c, D3        
  Sebastian Ehlert       : rSCAN, r2SCAN, r2SCAN-3c, D4, dhf basis sets  
  Marvin Friede          : D4 for Fr, Ra, Ac-Lr                          
  Lars Goerigk           : TD-DFT with DH, B97 family of functionals     
  Stefan Grimme          : VdW corrections, initial TS optimization, DFT functionals, gCP, sTDA/sTD-DF 
  Waldemar Hujo          : DFT-NL                                        
  H. Jonsson             : NEB                                           
  Holger Kruse           : gCP                                           
  Marcel Mueller         : wB97X-3c, vDZP basis set                      
  Hagen Neugebauer       : wr2SCAN                                       
  Tobias Risthaus        : range-separated hybrid DFT                    
  Lukas Wittmann         : regularized MP2, r2SCAN double-hybrids, wr2SCAN        
                                                                         
We gratefully acknowledge several colleagues who have allowed us to      
interface, adapt or use parts of their codes:                            
  Ed Valeev, F. Pavosevic, A. Kumar             : LibInt (2-el integral package), F12 methods 
  Garnet Chan, S. Sharma, J. Yang, R. Olivares  : DMRG                   
  Ulf Ekstrom                                   : XCFun DFT Library      
  Mihaly Kallay                                 : mrcc  (arbitrary order and MRCC methods)
  Frank Weinhold                                : gennbo (NPA and NBO analysis)           
  Simon Mueller                                 : openCOSMO-RS                            
  Christopher J. Cramer and Donald G. Truhlar   : smd solvation model                     
  S Lehtola, MJT Oliveira, MAL Marques          : LibXC Library                           
  Liviu Ungur et al                             : ANISO software                          


 Your calculation uses the libint2 library for the computation of 2-el integrals
 For citations please refer to: http://libint.valeyev.net

 Your ORCA version has been built with support for libXC version: 6.2.2
 For citations please refer to: https://libxc.gitlab.io

 This ORCA versions uses:
   CBLAS   interface :  Fast vector & matrix operations
   LAPACKE interface :  Fast linear algebra routines
   SCALAPACK package :  Parallel linear algebra routines
   Shared memory     :  Shared parallel matrices
   BLAS/LAPACK       :  OpenBLAS 0.3.27  USE64BITINT DYNAMIC_ARCH NO_AFFINITY SkylakeX SINGLE_THREADED
        Core in use  :  SkylakeX
   Copyright (c) 2011-2014, The OpenBLAS Project


NOTE: MaxCore=8000 MB was set to SCF,MP2,MDCI,CIPSI,MRCI and CIS
      => If you want to overwrite this, your respective input block should be placed after the MaxCore statement
Your calculation utilizes the atom-pairwise dispersion correction
with the Becke-Johnson damping scheme (D3BJ)


Your calculation utilizes the SMD solvation module
Please cite in your paper:
A.V. Marenich, C.J. Cramer, D.G. Truhlar J. Phys. Chem. B, 113, (2009), 6378 

Warning: RI is on but no J-basis has been assigned. Assigning Def2/J (nothing to worry about!)
================================================================================

----- Orbital basis set information -----
Your calculation utilizes the basis: def2-TZVP
   F. Weigend and R. Ahlrichs, Phys. Chem. Chem. Phys. 7, 3297 (2005).

----- AuxJ basis set information -----
Your calculation utilizes the auxiliary basis: def2/J
   F. Weigend, Phys. Chem. Chem. Phys. 8, 1057 (2006).

================================================================================
                                        WARNINGS
                       Please study these warnings very carefully!
================================================================================


WARNING: your system is open-shell and RHF/RKS was chosen
  ===> : WILL SWITCH to UHF/UKS


================================================================================
                                       INPUT FILE
================================================================================
NAME = rf_mecn_freq_B3L_C2_D_B.inp
|  1> !B3LYP def2-TZVP freq d3 TightSCF SlowConv defgrid2
|  2>  
|  3> %pal
|  4> nprocs 20
|  5> end
|  6>  
|  7> %scf
|  8> MaxIter 1500
|  9> end
| 10>  
| 11> %maxcore 8000
| 12>  
| 13> !CPCM
| 14> %cpcm smd true
| 15> SMDsolvent "ACETONITRILE"
| 16> end
| 17>  
| 18> * xyz -1 2
| 19> 6        4.428790000     -0.683608000     -0.369711000
| 20> 8        4.003666000     -1.071271000     -1.481565000
| 21> 8        5.466817000     -0.999341000      0.247165000
| 22> 6        3.545268000      0.309620000      0.329601000
| 23> 6        2.249637000      0.902277000     -0.132672000
| 24> 6        1.006343000     -0.028746000      0.090703000
| 25> 6       -0.384578000      0.689575000      0.027427000
| 26> 6       -1.586352000     -0.306246000     -0.150756000
| 27> 6       -2.967710000      0.306846000      0.250988000
| 28> 6       -4.206693000     -0.512931000     -0.234665000
| 29> 9        3.782930000      0.581803000      1.621217000
| 30> 9        1.999796000      2.052836000      0.571894000
| 31> 9        2.292739000      1.233697000     -1.445350000
| 32> 9        1.023400000     -1.010548000     -0.832189000
| 33> 9        1.124685000     -0.589523000      1.318067000
| 34> 9       -0.568324000      1.390359000      1.165210000
| 35> 9       -0.397016000      1.550749000     -1.009765000
| 36> 9       -1.378789000     -1.399542000      0.611277000
| 37> 9       -1.640576000     -0.686157000     -1.442579000
| 38> 9       -3.076837000      1.548410000     -0.264886000
| 39> 9       -3.036733000      0.382106000      1.593164000
| 40> 9       -4.096502000     -1.795192000      0.119331000
| 41> 9       -5.300045000     -0.002380000      0.336557000
| 42> 9       -4.344095000     -0.437185000     -1.557656000
| 43> *
| 44> 
| 45>                          ****END OF INPUT****
================================================================================

                       ****************************
                       * Single Point Calculation *
                       ****************************

---------------------------------
CARTESIAN COORDINATES (ANGSTROEM)
---------------------------------
  C      4.428790   -0.683608   -0.369711
  O      4.003666   -1.071271   -1.481565
  O      5.466817   -0.999341    0.247165
  C      3.545268    0.309620    0.329601
  C      2.249637    0.902277   -0.132672
  C      1.006343   -0.028746    0.090703
  C     -0.384578    0.689575    0.027427
  C     -1.586352   -0.306246   -0.150756
  C     -2.967710    0.306846    0.250988
  C     -4.206693   -0.512931   -0.234665
  F      3.782930    0.581803    1.621217
  F      1.999796    2.052836    0.571894
  F      2.292739    1.233697   -1.445350
  F      1.023400   -1.010548   -0.832189
  F      1.124685   -0.589523    1.318067
  F     -0.568324    1.390359    1.165210
  F     -0.397016    1.550749   -1.009765
  F     -1.378789   -1.399542    0.611277
  F     -1.640576   -0.686157   -1.442579
  F     -3.076837    1.548410   -0.264886
  F     -3.036733    0.382106    1.593164
  F     -4.096502   -1.795192    0.119331
  F     -5.300045   -0.002380    0.336557
  F     -4.344095   -0.437185   -1.557656

----------------------------
CARTESIAN COORDINATES (A.U.)
----------------------------
  NO LB      ZA    FRAG     MASS         X           Y           Z
   0 C     6.0000    0    12.011    8.369200   -1.291832   -0.698653
   1 O     8.0000    0    15.999    7.565832   -2.024409   -2.799752
   2 O     8.0000    0    15.999   10.330787   -1.888481    0.467074
   3 C     6.0000    0    12.011    6.699586    0.585097    0.622856
   4 C     6.0000    0    12.011    4.251198    1.705056   -0.250714
   5 C     6.0000    0    12.011    1.901713   -0.054322    0.171404
   6 C     6.0000    0    12.011   -0.726747    1.303108    0.051830
   7 C     6.0000    0    12.011   -2.997771   -0.578721   -0.284888
   8 C     6.0000    0    12.011   -5.608159    0.579855    0.474299
   9 C     6.0000    0    12.011   -7.949498   -0.969299   -0.443453
  10 F     9.0000    0    18.998    7.148702    1.099448    3.063656
  11 F     9.0000    0    18.998    3.779067    3.879298    1.080723
  12 F     9.0000    0    18.998    4.332649    2.331349   -2.731316
  13 F     9.0000    0    18.998    1.933946   -1.909659   -1.572609
  14 F     9.0000    0    18.998    2.125347   -1.114037    2.490786
  15 F     9.0000    0    18.998   -1.073977    2.627398    2.201928
  16 F     9.0000    0    18.998   -0.750252    2.930491   -1.908179
  17 F     9.0000    0    18.998   -2.605534   -2.644751    1.155146
  18 F     9.0000    0    18.998   -3.100239   -1.296649   -2.726079
  19 F     9.0000    0    18.998   -5.814379    2.926071   -0.500562
  20 F     9.0000    0    18.998   -5.738594    0.722076    3.010644
  21 F     9.0000    0    18.998   -7.741267   -3.392421    0.225503
  22 F     9.0000    0    18.998  -10.015634   -0.004498    0.636001
  23 F     9.0000    0    18.998   -8.209150   -0.826160   -2.943543

--------------------------------
INTERNAL COORDINATES (ANGSTROEM)
--------------------------------
 C      0   0   0     0.000000000000     0.00000000     0.00000000
 O      1   0   0     1.251891502592     0.00000000     0.00000000
 O      1   2   0     1.248087889291   130.02065773     0.00000000
 C      1   2   3     1.502048686898   114.74045757   180.38158919
 C      4   1   2     1.497864591456   128.81028215   359.06983465
 C      5   4   1     1.569229169876   113.99416095    80.71422927
 C      6   5   4     1.566732312636   115.18998856   162.56296089
 C      7   6   5     1.570881724576   113.14878797   163.74197643
 C      8   7   6     1.563787059086   113.46006111   160.90869478
 C      9   8   7     1.563000972625   114.50460275   165.75478443
 F      4   1   2     1.341207926904   118.57569024   167.32267044
 F      5   4   1     1.372085925195   109.31813549   199.46316146
 F      5   4   1     1.354555473389   111.61478626   318.07330815
 F      6   5   4     1.347574024726   108.95011405   284.74455934
 F      6   5   4     1.354584091590   107.78082741    42.32491071
 F      7   6   5     1.348855426746   108.96983738   284.79990935
 F      7   6   5     1.348162678234   109.39812869    43.16552846
 F      8   7   6     1.348730082587   109.39293849    40.28430728
 F      8   7   6     1.347619854939   108.55568236   281.91149305
 F      9   8   7     1.348894307239   109.51615047    45.01677121
 F      9   8   7     1.346055220674   108.86749193   285.91697382
 F     10   9   8     1.334784063666   110.85510869    51.52191332
 F     10   9   8     1.335056363151   108.40080503   170.81787057
 F     10   9   8     1.332261968308   111.13030612   290.06855732

---------------------------
INTERNAL COORDINATES (A.U.)
---------------------------
 C      0   0   0     0.000000000000     0.00000000     0.00000000
 O      1   0   0     2.365732089281     0.00000000     0.00000000
 O      1   2   0     2.358544301823   130.02065773     0.00000000
 C      1   2   3     2.838460658053   114.74045757   180.38158919
 C      4   1   2     2.830553863551   128.81028215   359.06983465
 C      5   4   1     2.965413372426   113.99416095    80.71422927
 C      6   5   4     2.960694996047   115.18998856   162.56296089
 C      7   6   5     2.968536248230   113.14878797   163.74197643
 C      8   7   6     2.955129273442   113.46006111   160.90869478
 C      9   8   7     2.953643785314   114.50460275   165.75478443
 F      4   1   2     2.534515670492   118.57569024   167.32267044
 F      5   4   1     2.592866630826   109.31813549   199.46316146
 F      5   4   1     2.559738877909   111.61478626   318.07330815
 F      6   5   4     2.546545851919   108.95011405   284.74455934
 F      6   5   4     2.559792958472   107.78082741    42.32491071
 F      7   6   5     2.548967350803   108.96983738   284.79990935
 F      7   6   5     2.547658245837   109.39812869    43.16552846
 F      8   7   6     2.548730484670   109.39293849    40.28430728
 F      8   7   6     2.546632458470   108.55568236   281.91149305
 F      9   8   7     2.549040824287   109.51615047    45.01677121
 F      9   8   7     2.543675728210   108.86749193   285.91697382
 F     10   9   8     2.522376328252   110.85510869    51.52191332
 F     10   9   8     2.522890899704   108.40080503   170.81787057
 F     10   9   8     2.517610258742   111.13030612   290.06855732

---------------------
BASIS SET INFORMATION
---------------------
There are 3 groups of distinct atoms

 Group   1 Type C   : 11s6p2d1f contracted to 5s3p2d1f pattern {62111/411/11/1}
 Group   2 Type O   : 11s6p2d1f contracted to 5s3p2d1f pattern {62111/411/11/1}
 Group   3 Type F   : 11s6p2d1f contracted to 5s3p2d1f pattern {62111/411/11/1}

Atom   0C    basis set group =>   1
Atom   1O    basis set group =>   2
Atom   2O    basis set group =>   2
Atom   3C    basis set group =>   1
Atom   4C    basis set group =>   1
Atom   5C    basis set group =>   1
Atom   6C    basis set group =>   1
Atom   7C    basis set group =>   1
Atom   8C    basis set group =>   1
Atom   9C    basis set group =>   1
Atom  10F    basis set group =>   3
Atom  11F    basis set group =>   3
Atom  12F    basis set group =>   3
Atom  13F    basis set group =>   3
Atom  14F    basis set group =>   3
Atom  15F    basis set group =>   3
Atom  16F    basis set group =>   3
Atom  17F    basis set group =>   3
Atom  18F    basis set group =>   3
Atom  19F    basis set group =>   3
Atom  20F    basis set group =>   3
Atom  21F    basis set group =>   3
Atom  22F    basis set group =>   3
Atom  23F    basis set group =>   3
---------------------------------
AUXILIARY/J BASIS SET INFORMATION
---------------------------------
There are 3 groups of distinct atoms

 Group   1 Type C   : 12s5p4d2f1g contracted to 6s4p3d1f1g pattern {711111/2111/211/2/1}
 Group   2 Type O   : 12s5p4d2f1g contracted to 6s4p3d1f1g pattern {711111/2111/211/2/1}
 Group   3 Type F   : 12s5p4d2f1g contracted to 6s4p3d1f1g pattern {711111/2111/211/2/1}

Atom   0C    basis set group =>   1
Atom   1O    basis set group =>   2
Atom   2O    basis set group =>   2
Atom   3C    basis set group =>   1
Atom   4C    basis set group =>   1
Atom   5C    basis set group =>   1
Atom   6C    basis set group =>   1
Atom   7C    basis set group =>   1
Atom   8C    basis set group =>   1
Atom   9C    basis set group =>   1
Atom  10F    basis set group =>   3
Atom  11F    basis set group =>   3
Atom  12F    basis set group =>   3
Atom  13F    basis set group =>   3
Atom  14F    basis set group =>   3
Atom  15F    basis set group =>   3
Atom  16F    basis set group =>   3
Atom  17F    basis set group =>   3
Atom  18F    basis set group =>   3
Atom  19F    basis set group =>   3
Atom  20F    basis set group =>   3
Atom  21F    basis set group =>   3
Atom  22F    basis set group =>   3
Atom  23F    basis set group =>   3


           ************************************************************
           *        Program running with 20 parallel MPI-processes    *
           *              working on a common directory               *
           ************************************************************
------------------------------------------------------------------------------
                             ORCA STARTUP CALCULATIONS
                           -- RI-GTO INTEGRALS CHOSEN --
------------------------------------------------------------------------------
------------------------------------------------------------------------------
                   ___                                                        
                  /   \      - P O W E R E D   B Y -                         
                 /     \                                                     
                 |  |  |   _    _      __       _____    __    __             
                 |  |  |  | |  | |    /  \     |  _  \  |  |  /  |          
                  \  \/   | |  | |   /    \    | | | |  |  | /  /          
                 / \  \   | |__| |  /  /\  \   | |_| |  |  |/  /          
                |  |  |   |  __  | /  /__\  \  |    /   |      \           
                |  |  |   | |  | | |   __   |  |    \   |  |\   \          
                \     /   | |  | | |  |  |  |  | |\  \  |  | \   \       
                 \___/    |_|  |_| |__|  |__|  |_| \__\ |__|  \__/        
                                                                              
                      - O R C A' S   B I G   F R I E N D -                    
                                      &                                       
                       - I N T E G R A L  F E E D E R -                       
                                                                              
 v1 FN, 2020, v2 2021, v3 2022-2024                                           
------------------------------------------------------------------------------


----------------------
SHARK INTEGRAL PACKAGE
----------------------

Number of atoms                             ...     24
Number of basis functions                   ...    744
Number of shells                            ...    264
Maximum angular momentum                    ...      3
Integral batch strategy                     ... SHARK/LIBINT Hybrid
RI-J (if used) integral strategy            ... SPLIT-RIJ (Revised 2003 algorithm where possible)
Printlevel                                  ...      1
Contraction scheme used                     ... SEGMENTED contraction
Prescreening option                         ... SCHWARTZ
   Thresh                                   ... 2.500e-11
   Tcut                                     ... 2.500e-12
   Tpresel                                  ... 2.500e-12 
Coulomb Range Separation                    ... NOT USED
Exchange Range Separation                   ... NOT USED
Multipole approximations                    ... NOT USED
Finite Nucleus Model                        ... NOT USED
CABS basis                                  ... NOT available
Auxiliary Coulomb fitting basis             ... AVAILABLE
   # of basis functions in Aux-J            ...   1176
   # of shells in Aux-J                     ...    360
   Maximum angular momentum in Aux-J        ...      4
Auxiliary J/K fitting basis                 ... NOT available
Auxiliary Correlation fitting basis         ... NOT available
Auxiliary 'external' fitting basis          ... NOT available

Checking pre-screening integrals            ... done (  0.0 sec) Dimension = 264
Check shell pair data                       ... done (  0.0 sec)
Shell pair information
Shell pair cut-off parameter TPreSel        ...   2.5e-12
Total number of shell pairs                 ...     34980
Shell pairs after pre-screening             ...     22079
Total number of primitive shell pairs       ...    115968
Primitive shell pairs kept                  ...     46951
          la=0 lb=0:   4118 shell pairs
          la=1 lb=0:   6002 shell pairs
          la=1 lb=1:   2098 shell pairs
          la=2 lb=0:   3286 shell pairs
          la=2 lb=1:   2432 shell pairs
          la=2 lb=2:    684 shell pairs
          la=3 lb=0:   1499 shell pairs
          la=3 lb=1:   1174 shell pairs
          la=3 lb=2:    634 shell pairs
          la=3 lb=3:    152 shell pairs

Calculating one electron integrals          ... done (  0.0 sec)
Calculating RI/J V-Matrix + Cholesky decomp.... done (  0.2 sec)
Calculating Nuclear repulsion               ... done (  0.0 sec) ENN=   2649.379648138246 Eh

Diagonalization of the overlap matrix:
Smallest eigenvalue                        ... 6.454e-05
Time for diagonalization                   ...    0.156 sec
Threshold for overlap eigenvalues          ... 1.000e-07
Number of eigenvalues below threshold      ... 0
Time for construction of square roots      ...    0.045 sec
Total time needed                          ...    0.208 sec

-------------------
DFT GRID GENERATION
-------------------

General Integration Accuracy     IntAcc      ... 4.388
Radial Grid Type                 RadialGrid  ... OptM3 with GC (2021)
Angular Grid (max. ang.)         AngularGrid ... 4 (Lebedev-302)
Angular grid pruning method      GridPruning ... 4 (adaptive)
Weight generation scheme         WeightScheme... mBecke (2022)
Basis function cutoff            BFCut       ... 1.0000e-11
Integration weight cutoff        WCut        ... 1.0000e-14
Partially contracted basis set               ... off
Rotationally invariant grid construction     ... off
Angular grids for H and He will be reduced by one unit

Total number of grid points                  ...   145422
Total number of batches                      ...     2284
Average number of points per batch           ...       63
Average number of grid points per atom       ...     6059

--------------------
COSX GRID GENERATION
--------------------

GRIDX 1
-------
General Integration Accuracy     IntAcc      ... 3.816
Radial Grid Type                 RadialGrid  ... OptM3 with GC (2021)
Angular Grid (max. ang.)         AngularGrid ... 1 (Lebedev-50)
Angular grid pruning method      GridPruning ... 4 (adaptive)
Weight generation scheme         WeightScheme... mBecke (2022)
Basis function cutoff            BFCut       ... 1.0000e-11
Integration weight cutoff        WCut        ... 1.0000e-14
Partially contracted basis set               ... on
Rotationally invariant grid construction     ... off
Angular grids for H and He will be reduced by one unit

Total number of grid points                  ...    18252
Total number of batches                      ...      153
Average number of points per batch           ...      119
Average number of grid points per atom       ...      760
UseSFitting                                  ... on

GRIDX 2
-------
General Integration Accuracy     IntAcc      ... 4.020
Radial Grid Type                 RadialGrid  ... OptM3 with GC (2021)
Angular Grid (max. ang.)         AngularGrid ... 2 (Lebedev-110)
Angular grid pruning method      GridPruning ... 4 (adaptive)
Weight generation scheme         WeightScheme... mBecke (2022)
Basis function cutoff            BFCut       ... 1.0000e-11
Integration weight cutoff        WCut        ... 1.0000e-14
Partially contracted basis set               ... on
Rotationally invariant grid construction     ... off
Angular grids for H and He will be reduced by one unit

Total number of grid points                  ...    43312
Total number of batches                      ...      352
Average number of points per batch           ...      123
Average number of grid points per atom       ...     1805
UseSFitting                                  ... on

GRIDX 3
-------
General Integration Accuracy     IntAcc      ... 4.338
Radial Grid Type                 RadialGrid  ... OptM3 with GC (2021)
Angular Grid (max. ang.)         AngularGrid ... 3 (Lebedev-194)
Angular grid pruning method      GridPruning ... 4 (adaptive)
Weight generation scheme         WeightScheme... mBecke (2022)
Basis function cutoff            BFCut       ... 1.0000e-11
Integration weight cutoff        WCut        ... 1.0000e-14
Partially contracted basis set               ... on
Rotationally invariant grid construction     ... off
Angular grids for H and He will be reduced by one unit

Total number of grid points                  ...    95972
Total number of batches                      ...      760
Average number of points per batch           ...      126
Average number of grid points per atom       ...     3999
UseSFitting                                  ... on
Initializing property integral containers    ... done (  0.0 sec)

SHARK setup successfully completed in   3.8 seconds

Maximum memory used throughout the entire STARTUP-calculation: 57.2 MB


           ************************************************************
           *        Program running with 20 parallel MPI-processes    *
           *              working on a common directory               *
           ************************************************************
-------------------------------------------------------------------------------
                                 ORCA GUESS
                   Start orbitals & Density for SCF / CASSCF
-------------------------------------------------------------------------------

------------
SCF SETTINGS
------------
Hamiltonian:
 Density Functional     Method          .... DFT(GTOs)
 Exchange Functional    Exchange        .... B88
   X-Alpha parameter    XAlpha          ....  0.666667
   Becke's b parameter  XBeta           ....  0.004200
 Correlation Functional Correlation     .... LYP
 LDA part of GGA corr.  LDAOpt          .... VWN-5
 Gradients option       PostSCFGGA      .... off
 Hybrid DFT is turned on
   Fraction HF Exchange ScalHFX         ....  0.200000
   Scaling of DF-GGA-X  ScalDFX         ....  0.720000
   Scaling of DF-GGA-C  ScalDFC         ....  0.810000
   Scaling of DF-LDA-C  ScalLDAC        ....  1.000000
   Perturbative correction              ....  0.000000
   NL short-range parameter             ....  4.800000
 RI-approximation to the Coulomb term is turned on
   Number of AuxJ basis functions       .... 1176
   RIJ-COSX (HFX calculated with COS-X)).... on


General Settings:
 Integral files         IntName         .... rf_mecn_freq_B3L_C2_D_B
 Hartree-Fock type      HFTyp           .... UHF
 Total Charge           Charge          ....   -1
 Multiplicity           Mult            ....    2
 Number of Electrons    NEL             ....  191
 Basis Dimension        Dim             ....  744
 Nuclear Repulsion      ENuc            ....   2649.3796481382 Eh

Convergence Acceleration:
 AO-DIIS                CNVDIIS         .... on
   Start iteration      DIISMaxIt       ....     0
   Startup error        DIISStart       ....  0.200000
   # of expansion vecs  DIISMaxEq       ....     5
   Bias factor          DIISBfac        ....   1.050
   Max. coefficient     DIISMaxC        ....  10.000
 MO-DIIS                CNVKDIIS        .... off
 Trust-Rad. Augm. Hess. CNVTRAH         .... auto
   Auto Start mean grad. ratio tolernc. ....  1.125000
   Auto Start start iteration           ....    50
   Auto Start num. interpolation iter.  ....    10
   Max. Number of Micro iterations      ....    24
   Max. Number of Macro iterations      .... Maxiter - #DIIS iter
   Number of Davidson start vectors     ....     2
   Converg. threshold    (grad. norm)   ....   1.000e-05
   Grad. Scal. Fac. for Micro threshold ....   0.100
   Minimum threshold for Micro iter.    ....   1.000e-02
   NR start threshold (gradient norm)   ....   1.000e-04
   Initial trust radius                 ....   0.400
   Minimum AH scaling param. (alpha)    ....   1.000
   Maximum AH scaling param. (alpha)    .... 1000.000
   Quad. conv. algorithm                .... NR
   White noise on init. David. guess    .... on
   Maximum white noise                  ....   0.010
   Pseudo random numbers                .... off
   Inactive MOs                         .... canonical
   Orbital update algorithm             .... Taylor
   Preconditioner                       .... Diag
   Full preconditioner red. dimension   ....   250
 SOSCF                  CNVSOSCF        .... on
   Start iteration      SOSCFMaxIt      ....   150
   Startup grad/error   SOSCFStart      ....  0.001000
   Hessian update       SOSCFHessUp     .... L-BFGS
 Level Shifting         CNVShift        .... on
   Level shift para.    LevelShift      ....    0.2500
   Turn off err/grad.   ShiftErr        ....    0.0000
 Zerner damping         CNVZerner       .... off
 Static damping         CNVDamp         .... on
   Fraction old density DampFac         ....    0.8500
   Max. Damping (<1)    DampMax         ....    0.9800
   Min. Damping (>=0)   DampMin         ....    0.0000
   Turn off err/grad.   DampErr         ....    0.0300

SCF Procedure:
 Maximum # iterations   MaxIter         ....  1500
 SCF integral mode      SCFMode         .... Direct
   Integral package                     .... SHARK and LIBINT hybrid scheme
 Reset frequency        DirectResetFreq ....    20
 Integral Threshold     Thresh          ....  2.500e-11 Eh
 Primitive CutOff       TCut            ....  2.500e-12 Eh

Convergence Tolerance:
 Convergence Check Mode ConvCheckMode   .... Total+1el-Energy
 Convergence forced     ConvForced      .... 0
 Energy Change          TolE            ....  1.000e-08 Eh
 1-El. energy change                    ....  1.000e-05 Eh
 Orbital Gradient       TolG            ....  1.000e-05
 Orbital Rotation angle TolX            ....  1.000e-05
 DIIS Error             TolErr          ....  5.000e-07

------------------------------
INITIAL GUESS: MODEL POTENTIAL
------------------------------
Loading Hartree-Fock densities                     ... done
Calculating cut-offs                               ... done
Initializing the effective Hamiltonian             ... done
Setting up the integral package (SHARK)            ... done
Starting the Coulomb interaction                   ... done (   0.3 sec)
Making the grid                                    ... done (   0.4 sec)
Mapping shells                                     ... done
Starting the XC term evaluation                    ... done (   0.1 sec)
  promolecular density results
     # of electrons  =    189.999868708
     EX              =   -198.271698846
     EC              =     -7.147226046
     EX+EC           =   -205.418924892
Transforming the Hamiltonian                       ... done (   0.0 sec)
Diagonalizing the Hamiltonian                      ... done (   0.1 sec)
Back transforming the eigenvectors                 ... done (   0.0 sec)
Now organizing SCF variables                       ... done
                      ------------------
                      INITIAL GUESS DONE (   1.1 sec)
                      ------------------
             **** ENERGY FILE WAS UPDATED (rf_mecn_freq_B3L_C2_D_B.en.tmp) ****
Finished Guess after   1.9 sec
Maximum memory used throughout the entire GUESS-calculation: 45.8 MB


           ************************************************************
           *        Program running with 20 parallel MPI-processes    *
           *              working on a common directory               *
           ************************************************************

-------------------------------------------------------------------------------------------
                                      ORCA LEAN-SCF
                              memory conserving SCF solver
-------------------------------------------------------------------------------------------

--------------------
CPCM SOLVATION MODEL
--------------------
CPCM parameters:
  Epsilon                                         ...      35.6880
  Refrac                                          ...       1.3442
  Rsolv                                           ...       1.3000
  Surface type                                    ... GAUSSIAN VDW
  Discretization scheme                           ... Constant charge density
    Threshold for H atoms                         ...       5.0000 (charges/Ang^2)
    Threshold for non-H atoms                     ...       5.0000 (charges/Ang^2)
  Epsilon function type                           ...         CPCM
Solvent:                                          ... ACETONITRILE
SMD-CDS solvent descriptors:
  Soln                                            ...       1.3442
  Soln25                                          ...       1.3416
  Sola                                            ...       0.0700
  Solb                                            ...       0.3200
  Solg                                            ...      41.2500
  Solc                                            ...       0.0000
  Solh                                            ...       0.0000
Radii:
  Scheme                                          ... Element-dependent radii
  Radius for C  used is    3.4960 Bohr (=   1.8500 Ang.)
  Radius for O  used is    4.0969 Bohr (=   2.1680 Ang.)
  Radius for F  used is    3.2692 Bohr (=   1.7300 Ang.)
Calculating surface                               ...        done! (  0.0s)
Cavity surface points                             ...         2118
Cavity Volume                                     ...    2106.5838
Cavity Surface-area                               ...    1095.1217
Calculating surface distance matrix               ...        done! (  0.0s)
Performing Cholesky decomposition & store         ...        done! (  0.1s)
Overall time for CPCM initialization              ...                 0.2s

----------------------------------------D-I-I-S--------------------------------------------
Iteration    Energy (Eh)           Delta-E    RMSDP     MaxDP     DIISErr   Damp  Time(sec)
-------------------------------------------------------------------------------------------
               ***  Starting incremental Fock matrix formation  ***
    1    -1852.6665288581953064     0.00e+00  4.02e-04  7.92e-02  1.74e-01  0.850   6.9
Warning: op=0 Small HOMO/LUMO gap (   0.025) - skipping pre-diagonalization
         Will do a full diagonalization
    2    -1852.8444327898259871    -1.78e-01  6.08e-04  1.49e-01  1.20e-01  0.850   4.3
                               ***Turning on AO-DIIS***
    3    -1852.9417566191150399    -9.73e-02  2.50e-04  5.63e-02  7.22e-02  0.850   3.8
    4    -1853.0000195904503926    -5.83e-02  1.06e-04  1.58e-02  5.40e-02  0.850   3.6
    5    -1853.0415688308776225    -4.15e-02  6.08e-05  4.96e-03  4.47e-02  0.850   3.7
    6    -1853.0744985630681185    -3.29e-02  4.84e-05  3.92e-03  3.84e-02  0.850   3.6
    7    -1853.1018760107372145    -2.74e-02  4.25e-05  4.37e-03  3.30e-02  0.850   3.6
    8    -1853.1250189473212231    -2.31e-02  3.72e-05  3.55e-03  2.78e-02  0.850   3.8
    9    -1853.1443721747764357    -1.94e-02  2.14e-04  2.00e-02  2.31e-02  0.000   4.0
   10    -1853.2466087700877324    -1.02e-01  2.64e-05  5.82e-03  2.85e-03  0.000   4.2
                              *** Initializing SOSCF ***
---------------------------------------S-O-S-C-F--------------------------------------
Iteration    Energy (Eh)           Delta-E    RMSDP     MaxDP     MaxGrad    Time(sec)
--------------------------------------------------------------------------------------
   11    -1853.2467755903680882    -1.67e-04  1.28e-05  2.65e-03  8.09e-04     4.4
               *** Restarting incremental Fock matrix formation ***
   12    -1853.2467899740559005    -1.44e-05  1.35e-05  1.86e-03  1.19e-03     7.5
   13    -1853.2468121142874224    -2.21e-05  1.42e-05  1.91e-03  4.64e-04     5.3
   14    -1853.2468140985338323    -1.98e-06  5.43e-06  7.66e-04  3.39e-04     5.2
   15    -1853.2468188915609062    -4.79e-06  3.60e-06  5.91e-04  1.06e-04     5.0
   16    -1853.2468183254395626     5.66e-07  2.03e-06  2.04e-04  1.57e-04     4.6
   17    -1853.2468192668757183    -9.41e-07  1.12e-06  1.89e-04  2.07e-05     4.3
   18    -1853.2468192750920934    -8.22e-09  4.70e-07  6.95e-05  2.28e-05     4.1
                 **** Energy Check signals convergence ****

               *****************************************************
               *                     SUCCESS                       *
               *           SCF CONVERGED AFTER  18 CYCLES          *
               *****************************************************

Recomputing exchange energy using gridx3       ... done (    9.251 sec)
Old exchange energy                            :    -39.800707738 Eh
New exchange energy                            :    -39.800723009 Eh
Exchange energy change after final integration :     -0.000015271 Eh
Total energy after final integration           :  -1853.246834546 Eh

SMD CDS free energy correction energy :                 3.23217     Kcal/mol
Total Energy after SMD CDS correction =             -1853.241683750 Eh
             **** ENERGY FILE WAS UPDATED (rf_mecn_freq_B3L_C2_D_B.en.tmp) ****

----------------
TOTAL SCF ENERGY
----------------

Total Energy       :      -1853.24168375027512 Eh          -50429.26999 eV

Components:
Nuclear Repulsion  :       2649.37964813824601 Eh           72093.28538 eV
Electronic Energy  :      -4502.54333590715214 Eh         -122520.43299 eV
One Electron Energy:      -7872.81571732270095 Eh         -214230.20692 eV
Two Electron Energy:       3370.27238141554881 Eh           91709.77393 eV
CPCM Dielectric    :         -0.08313150618592 Eh              -2.26212 eV
SMD CDS (Gcds)     :          0.00515079597264 Eh               0.14016 eV

Virial components:
Potential Energy   :      -3700.22231808933111 Eh         -100688.16816 eV
Kinetic Energy     :       1846.98063433905600 Eh           50258.89817 eV
Virial Ratio       :          2.00338988362672

DFT components:
N(Alpha)           :       95.999991817314 electrons
N(Beta)            :       94.999978280339 electrons
N(Total)           :      190.999970097653 electrons
E(X)               :     -158.619577640680 Eh       
E(C)               :       -8.383305526263 Eh       
E(XC)              :     -167.002883166943 Eh       

CPCM Solvation Model Properties:
Surface-charge          :          0.98915471864728
Corrected charge        :          1.00000000000000
Outlying charge corr.   :          0.00000648915924 Eh               0.00018 eV
Free-energy (cav+disp)  :          0.00515079597264 Eh               0.14016 eV

---------------
SCF CONVERGENCE
---------------

  Last Energy change         ...    8.2164e-09  Tolerance :   1.0000e-08
  Last MAX-Density change    ...    6.9483e-05  Tolerance :   1.0000e-07
  Last RMS-Density change    ...    4.7010e-07  Tolerance :   5.0000e-09
  Last DIIS Error            ...    8.0895e-04  Tolerance :   5.0000e-07
  Last Orbital Gradient      ...    2.2831e-05  Tolerance :   1.0000e-05
  Last Orbital Rotation      ...    1.1571e-04  Tolerance :   1.0000e-05


----------------------
UHF SPIN CONTAMINATION
----------------------

Warning: in a DFT calculation there is little theoretical justification to 
         calculate <S**2> as in Hartree-Fock theory. We will do it anyways
         but you should keep in mind that the values have only limited relevance

Expectation value of <S**2>     :     0.755161
Ideal value S*(S+1) for S=0.5   :     0.750000
Deviation                       :     0.005161

----------------
ORBITAL ENERGIES
----------------
                 SPIN UP ORBITALS
  NO   OCC          E(Eh)            E(eV) 
   0   1.0000     -24.744463      -673.3311 
   1   1.0000     -24.743533      -673.3058 
   2   1.0000     -24.742891      -673.2883 
   3   1.0000     -24.742568      -673.2795 
   4   1.0000     -24.741545      -673.2517 
   5   1.0000     -24.741387      -673.2474 
   6   1.0000     -24.741335      -673.2460 
   7   1.0000     -24.737448      -673.1402 
   8   1.0000     -24.737274      -673.1354 
   9   1.0000     -24.729644      -672.9278 
  10   1.0000     -24.729432      -672.9221 
  11   1.0000     -24.713572      -672.4905 
  12   1.0000     -24.712823      -672.4701 
  13   1.0000     -24.709139      -672.3699 
  14   1.0000     -19.053692      -518.4773 
  15   1.0000     -19.051436      -518.4159 
  16   1.0000     -10.460553      -284.6461 
  17   1.0000     -10.406140      -283.1655 
  18   1.0000     -10.405951      -283.1603 
  19   1.0000     -10.401492      -283.0390 
  20   1.0000     -10.389972      -282.7255 
  21   1.0000     -10.376466      -282.3580 
  22   1.0000     -10.270749      -279.4813 
  23   1.0000     -10.249944      -278.9152 
  24   1.0000      -1.353199       -36.8224 
  25   1.0000      -1.327614       -36.1262 
  26   1.0000      -1.311585       -35.6900 
  27   1.0000      -1.305451       -35.5231 
  28   1.0000      -1.298442       -35.3324 
  29   1.0000      -1.280336       -34.8397 
  30   1.0000      -1.266243       -34.4562 
  31   1.0000      -1.259890       -34.2833 
  32   1.0000      -1.258330       -34.2409 
  33   1.0000      -1.251360       -34.0512 
  34   1.0000      -1.248259       -33.9668 
  35   1.0000      -1.245260       -33.8852 
  36   1.0000      -1.239604       -33.7313 
  37   1.0000      -1.221153       -33.2293 
  38   1.0000      -1.015876       -27.6434 
  39   1.0000      -0.931126       -25.3372 
  40   1.0000      -0.844693       -22.9853 
  41   1.0000      -0.822719       -22.3873 
  42   1.0000      -0.796945       -21.6860 
  43   1.0000      -0.757451       -20.6113 
  44   1.0000      -0.712681       -19.3930 
  45   1.0000      -0.686118       -18.6702 
  46   1.0000      -0.663983       -18.0679 
  47   1.0000      -0.649133       -17.6638 
  48   1.0000      -0.644103       -17.5269 
  49   1.0000      -0.637392       -17.3443 
  50   1.0000      -0.625374       -17.0173 
  51   1.0000      -0.622505       -16.9392 
  52   1.0000      -0.620086       -16.8734 
  53   1.0000      -0.607877       -16.5412 
  54   1.0000      -0.603932       -16.4338 
  55   1.0000      -0.594811       -16.1856 
  56   1.0000      -0.593380       -16.1467 
  57   1.0000      -0.583785       -15.8856 
  58   1.0000      -0.574360       -15.6291 
  59   1.0000      -0.568734       -15.4760 
  60   1.0000      -0.544046       -14.8043 
  61   1.0000      -0.516152       -14.0452 
  62   1.0000      -0.511137       -13.9087 
  63   1.0000      -0.506440       -13.7809 
  64   1.0000      -0.501257       -13.6399 
  65   1.0000      -0.499517       -13.5925 
  66   1.0000      -0.498244       -13.5579 
  67   1.0000      -0.491732       -13.3807 
  68   1.0000      -0.487290       -13.2598 
  69   1.0000      -0.484963       -13.1965 
  70   1.0000      -0.479052       -13.0357 
  71   1.0000      -0.475552       -12.9404 
  72   1.0000      -0.472099       -12.8465 
  73   1.0000      -0.463060       -12.6005 
  74   1.0000      -0.462006       -12.5718 
  75   1.0000      -0.458208       -12.4685 
  76   1.0000      -0.452398       -12.3104 
  77   1.0000      -0.452237       -12.3060 
  78   1.0000      -0.447896       -12.1879 
  79   1.0000      -0.446089       -12.1387 
  80   1.0000      -0.441619       -12.0171 
  81   1.0000      -0.441258       -12.0073 
  82   1.0000      -0.438836       -11.9413 
  83   1.0000      -0.435978       -11.8636 
  84   1.0000      -0.430461       -11.7134 
  85   1.0000      -0.423060       -11.5121 
  86   1.0000      -0.418541       -11.3891 
  87   1.0000      -0.406097       -11.0505 
  88   1.0000      -0.393170       -10.6987 
  89   1.0000      -0.389533       -10.5997 
  90   1.0000      -0.378549       -10.3008 
  91   1.0000      -0.344294        -9.3687 
  92   1.0000      -0.248572        -6.7640 
  93   1.0000      -0.242770        -6.6061 
  94   1.0000      -0.231601        -6.3022 
  95   1.0000      -0.220256        -5.9935 
  96   0.0000      -0.000113        -0.0031 
  97   0.0000       0.010459         0.2846 
  98   0.0000       0.041078         1.1178 
  99   0.0000       0.057594         1.5672 
 100   0.0000       0.084505         2.2995 
 101   0.0000       0.087468         2.3801 
 102   0.0000       0.101005         2.7485 
 103   0.0000       0.109224         2.9721 
 104   0.0000       0.121935         3.3180 
 105   0.0000       0.132525         3.6062 
 106   0.0000       0.143880         3.9152 

                 SPIN DOWN ORBITALS
  NO   OCC          E(Eh)            E(eV) 
   0   1.0000     -24.744464      -673.3311 
   1   1.0000     -24.743533      -673.3058 
   2   1.0000     -24.742891      -673.2883 
   3   1.0000     -24.742563      -673.2794 
   4   1.0000     -24.741541      -673.2516 
   5   1.0000     -24.741388      -673.2474 
   6   1.0000     -24.741335      -673.2459 
   7   1.0000     -24.737437      -673.1399 
   8   1.0000     -24.737273      -673.1354 
   9   1.0000     -24.729597      -672.9265 
  10   1.0000     -24.729389      -672.9209 
  11   1.0000     -24.713141      -672.4788 
  12   1.0000     -24.712311      -672.4562 
  13   1.0000     -24.705100      -672.2599 
  14   1.0000     -19.051478      -518.4171 
  15   1.0000     -19.050250      -518.3837 
  16   1.0000     -10.460546      -284.6459 
  17   1.0000     -10.406098      -283.1643 
  18   1.0000     -10.405922      -283.1595 
  19   1.0000     -10.401338      -283.0348 
  20   1.0000     -10.389202      -282.7045 
  21   1.0000     -10.377206      -282.3781 
  22   1.0000     -10.257474      -279.1201 
  23   1.0000     -10.251017      -278.9444 
  24   1.0000      -1.353193       -36.8223 
  25   1.0000      -1.327543       -36.1243 
  26   1.0000      -1.311461       -35.6867 
  27   1.0000      -1.305412       -35.5221 
  28   1.0000      -1.298223       -35.3264 
  29   1.0000      -1.279045       -34.8046 
  30   1.0000      -1.266238       -34.4561 
  31   1.0000      -1.259884       -34.2832 
  32   1.0000      -1.258298       -34.2400 
  33   1.0000      -1.251250       -34.0483 
  34   1.0000      -1.248018       -33.9603 
  35   1.0000      -1.241107       -33.7722 
  36   1.0000      -1.235681       -33.6246 
  37   1.0000      -1.219642       -33.1882 
  38   1.0000      -1.012930       -27.5632 
  39   1.0000      -0.927484       -25.2381 
  40   1.0000      -0.844239       -22.9729 
  41   1.0000      -0.820237       -22.3198 
  42   1.0000      -0.791324       -21.5330 
  43   1.0000      -0.751173       -20.4404 
  44   1.0000      -0.707737       -19.2585 
  45   1.0000      -0.683587       -18.6013 
  46   1.0000      -0.657993       -17.9049 
  47   1.0000      -0.648990       -17.6599 
  48   1.0000      -0.643348       -17.5064 
  49   1.0000      -0.637359       -17.3434 
  50   1.0000      -0.624981       -17.0066 
  51   1.0000      -0.621610       -16.9149 
  52   1.0000      -0.619116       -16.8470 
  53   1.0000      -0.607450       -16.5295 
  54   1.0000      -0.603266       -16.4157 
  55   1.0000      -0.593627       -16.1534 
  56   1.0000      -0.591302       -16.0901 
  57   1.0000      -0.582773       -15.8581 
  58   1.0000      -0.572993       -15.5919 
  59   1.0000      -0.565933       -15.3998 
  60   1.0000      -0.540254       -14.7011 
  61   1.0000      -0.516057       -14.0426 
  62   1.0000      -0.511057       -13.9066 
  63   1.0000      -0.506393       -13.7797 
  64   1.0000      -0.500830       -13.6283 
  65   1.0000      -0.499432       -13.5902 
  66   1.0000      -0.494677       -13.4609 
  67   1.0000      -0.488117       -13.2823 
  68   1.0000      -0.484921       -13.1954 
  69   1.0000      -0.478857       -13.0304 
  70   1.0000      -0.475640       -12.9428 
  71   1.0000      -0.475228       -12.9316 
  72   1.0000      -0.467612       -12.7244 
  73   1.0000      -0.462782       -12.5929 
  74   1.0000      -0.457082       -12.4378 
  75   1.0000      -0.455328       -12.3901 
  76   1.0000      -0.452199       -12.3050 
  77   1.0000      -0.451875       -12.2961 
  78   1.0000      -0.446775       -12.1574 
  79   1.0000      -0.445821       -12.1314 
  80   1.0000      -0.441510       -12.0141 
  81   1.0000      -0.440888       -11.9972 
  82   1.0000      -0.437855       -11.9147 
  83   1.0000      -0.434331       -11.8187 
  84   1.0000      -0.429752       -11.6941 
  85   1.0000      -0.421994       -11.4831 
  86   1.0000      -0.417285       -11.3549 
  87   1.0000      -0.404198       -10.9988 
  88   1.0000      -0.391320       -10.6483 
  89   1.0000      -0.380305       -10.3486 
  90   1.0000      -0.376424       -10.2430 
  91   1.0000      -0.341843        -9.3020 
  92   1.0000      -0.237225        -6.4552 
  93   1.0000      -0.235291        -6.4026 
  94   1.0000      -0.228184        -6.2092 
  95   0.0000      -0.093251        -2.5375 
  96   0.0000       0.002395         0.0652 
  97   0.0000       0.011540         0.3140 
  98   0.0000       0.042893         1.1672 
  99   0.0000       0.061276         1.6674 
 100   0.0000       0.088222         2.4006 
 101   0.0000       0.091345         2.4856 
 102   0.0000       0.101956         2.7744 
 103   0.0000       0.112071         3.0496 
 104   0.0000       0.128928         3.5083 
 105   0.0000       0.134346         3.6557 
*Only the first 10 virtual orbitals were printed.

                    ********************************
                    * MULLIKEN POPULATION ANALYSIS *
                    ********************************

--------------------------------------------
MULLIKEN ATOMIC CHARGES AND SPIN POPULATIONS
--------------------------------------------
   0 C :    0.191950   -0.056892
   1 O :   -0.496027    0.082790
   2 O :   -0.504726    0.047037
   3 C :    0.058454    0.802726
   4 C :    0.424304   -0.008890
   5 C :    0.291209    0.034643
   6 C :    0.334959    0.005632
   7 C :    0.312338    0.002434
   8 C :    0.324998    0.000462
   9 C :    0.475514    0.000242
  10 F :   -0.191553    0.073127
  11 F :   -0.202728    0.007173
  12 F :   -0.185169    0.007603
  13 F :   -0.172875    0.001043
  14 F :   -0.185108    0.000334
  15 F :   -0.172837    0.000250
  16 F :   -0.171936    0.000006
  17 F :   -0.170037    0.000084
  18 F :   -0.168970    0.000096
  19 F :   -0.166872    0.000007
  20 F :   -0.163413    0.000025
  21 F :   -0.155231   -0.000005
  22 F :   -0.153343    0.000071
  23 F :   -0.152903    0.000001
Sum of atomic charges         :   -1.0000000
Sum of atomic spin populations:    1.0000000

-----------------------------------------------------
MULLIKEN REDUCED ORBITAL CHARGES AND SPIN POPULATIONS
-----------------------------------------------------
CHARGE
  0 C s       :     2.991950  s :     2.991950
      pz      :     0.830391  p :     2.538769
      px      :     0.841903
      py      :     0.866475
      dz2     :     0.062903  d :     0.252851
      dxz     :     0.061233
      dyz     :     0.045803
      dx2y2   :     0.040685
      dxy     :     0.042226
      f0      :     0.003632  f :     0.024480
      f+1     :     0.006213
      f-1     :     0.002773
      f+2     :     0.004182
      f-2     :     0.003156
      f+3     :     0.002260
      f-3     :     0.002263

  1 O s       :     3.772632  s :     3.772632
      pz      :     1.408561  p :     4.695195
      px      :     1.673507
      py      :     1.613127
      dz2     :     0.009547  d :     0.026595
      dxz     :     0.006719
      dyz     :     0.006790
      dx2y2   :     0.001519
      dxy     :     0.002019
      f0      :     0.000480  f :     0.001606
      f+1     :     0.000350
      f-1     :     0.000305
      f+2     :     0.000182
      f-2     :     0.000220
      f+3     :     0.000038
      f-3     :     0.000031

  2 O s       :     3.771800  s :     3.771800
      pz      :     1.646764  p :     4.704733
      px      :     1.433747
      py      :     1.624221
      dz2     :     0.004141  d :     0.026568
      dxz     :     0.007350
      dyz     :     0.002786
      dx2y2   :     0.006660
      dxy     :     0.005631
      f0      :     0.000144  f :     0.001625
      f+1     :     0.000374
      f-1     :     0.000052
      f+2     :     0.000303
      f-2     :     0.000276
      f+3     :     0.000265
      f-3     :     0.000212

  3 C s       :     3.294466  s :     3.294466
      pz      :     0.640355  p :     2.491613
      px      :     0.902608
      py      :     0.948650
      dz2     :     0.030286  d :     0.138587
      dxz     :     0.042249
      dyz     :     0.035683
      dx2y2   :     0.018189
      dxy     :     0.012180
      f0      :     0.003421  f :     0.016880
      f+1     :     0.004105
      f-1     :     0.004007
      f+2     :     0.001211
      f-2     :     0.001542
      f+3     :     0.001173
      f-3     :     0.001421

  4 C s       :     3.059468  s :     3.059468
      pz      :     0.609814  p :     2.211023
      px      :     0.910836
      py      :     0.690373
      dz2     :     0.062430  d :     0.278158
      dxz     :     0.057183
      dyz     :     0.061007
      dx2y2   :     0.046025
      dxy     :     0.051512
      f0      :     0.004158  f :     0.027047
      f+1     :     0.004538
      f-1     :     0.007092
      f+2     :     0.002686
      f-2     :     0.003004
      f+3     :     0.003056
      f-3     :     0.002514

  5 C s       :     3.162546  s :     3.162546
      pz      :     0.579440  p :     2.234717
      px      :     0.933918
      py      :     0.721358
      dz2     :     0.074016  d :     0.283616
      dxz     :     0.059175
      dyz     :     0.054880
      dx2y2   :     0.037621
      dxy     :     0.057925
      f0      :     0.005331  f :     0.027912
      f+1     :     0.004138
      f-1     :     0.005736
      f+2     :     0.003434
      f-2     :     0.004721
      f+3     :     0.002418
      f-3     :     0.002134

  6 C s       :     3.145508  s :     3.145508
      pz      :     0.576815  p :     2.208879
      px      :     0.916046
      py      :     0.716018
      dz2     :     0.077118  d :     0.282663
      dxz     :     0.060276
      dyz     :     0.053545
      dx2y2   :     0.034812
      dxy     :     0.056912
      f0      :     0.005993  f :     0.027992
      f+1     :     0.003874
      f-1     :     0.004769
      f+2     :     0.004043
      f-2     :     0.005174
      f+3     :     0.002138
      f-3     :     0.002001

  7 C s       :     3.153254  s :     3.153254
      pz      :     0.594273  p :     2.221125
      px      :     0.920073
      py      :     0.706778
      dz2     :     0.068885  d :     0.285201
      dxz     :     0.061141
      dyz     :     0.062579
      dx2y2   :     0.037034
      dxy     :     0.055564
      f0      :     0.004378  f :     0.028083
      f+1     :     0.004661
      f-1     :     0.007277
      f+2     :     0.002907
      f-2     :     0.003575
      f+3     :     0.002838
      f-3     :     0.002447

  8 C s       :     3.129845  s :     3.129845
      pz      :     0.620480  p :     2.237349
      px      :     0.930833
      py      :     0.686036
      dz2     :     0.056453  d :     0.279694
      dxz     :     0.059044
      dyz     :     0.071794
      dx2y2   :     0.034392
      dxy     :     0.058011
      f0      :     0.003814  f :     0.028114
      f+1     :     0.005200
      f-1     :     0.008232
      f+2     :     0.002089
      f-2     :     0.002238
      f+3     :     0.003867
      f-3     :     0.002675

  9 C s       :     3.024152  s :     3.024152
      pz      :     0.645964  p :     2.115283
      px      :     0.784022
      py      :     0.685297
      dz2     :     0.066434  d :     0.344635
      dxz     :     0.068309
      dyz     :     0.082048
      dx2y2   :     0.059204
      dxy     :     0.068640
      f0      :     0.004927  f :     0.040415
      f+1     :     0.008347
      f-1     :     0.008429
      f+2     :     0.004664
      f-2     :     0.003134
      f+3     :     0.006960
      f-3     :     0.003953

 10 F s       :     3.910787  s :     3.910787
      pz      :     1.510496  p :     5.263539
      px      :     1.889480
      py      :     1.863564
      dz2     :     0.007356  d :     0.016521
      dxz     :     0.003940
      dyz     :     0.004320
      dx2y2   :     0.000390
      dxy     :     0.000515
      f0      :     0.000287  f :     0.000706
      f+1     :     0.000167
      f-1     :     0.000180
      f+2     :     0.000031
      f-2     :     0.000037
      f+3     :     0.000002
      f-3     :     0.000002

 11 F s       :     3.914409  s :     3.914409
      pz      :     1.792083  p :     5.272613
      px      :     1.899522
      py      :     1.581008
      dz2     :     0.001933  d :     0.015062
      dxz     :     0.001106
      dyz     :     0.005279
      dx2y2   :     0.003786
      dxy     :     0.002959
      f0      :     0.000075  f :     0.000645
      f+1     :     0.000009
      f-1     :     0.000117
      f+2     :     0.000170
      f-2     :     0.000089
      f+3     :     0.000091
      f-3     :     0.000094

 12 F s       :     3.909567  s :     3.909567
      pz      :     1.482126  p :     5.259079
      px      :     1.911574
      py      :     1.865378
      dz2     :     0.007699  d :     0.015825
      dxz     :     0.003412
      dyz     :     0.003950
      dx2y2   :     0.000335
      dxy     :     0.000429
      f0      :     0.000305  f :     0.000698
      f+1     :     0.000133
      f-1     :     0.000201
      f+2     :     0.000024
      f-2     :     0.000032
      f+3     :     0.000002
      f-3     :     0.000001

 13 F s       :     3.915159  s :     3.915159
      pz      :     1.688477  p :     5.240478
      px      :     1.905638
      py      :     1.646362
      dz2     :     0.002954  d :     0.016524
      dxz     :     0.001801
      dyz     :     0.006664
      dx2y2   :     0.002814
      dxy     :     0.002290
      f0      :     0.000082  f :     0.000714
      f+1     :     0.000018
      f-1     :     0.000211
      f+2     :     0.000195
      f-2     :     0.000105
      f+3     :     0.000050
      f-3     :     0.000054

 14 F s       :     3.915888  s :     3.915888
      pz      :     1.532942  p :     5.252388
      px      :     1.906529
      py      :     1.812916
      dz2     :     0.006102  d :     0.016136
      dxz     :     0.003146
      dyz     :     0.005134
      dx2y2   :     0.000840
      dxy     :     0.000915
      f0      :     0.000197  f :     0.000696
      f+1     :     0.000099
      f-1     :     0.000248
      f+2     :     0.000068
      f-2     :     0.000071
      f+3     :     0.000007
      f-3     :     0.000006

 15 F s       :     3.915814  s :     3.915814
      pz      :     1.577614  p :     5.239800
      px      :     1.898589
      py      :     1.763597
      dz2     :     0.004952  d :     0.016512
      dxz     :     0.002924
      dyz     :     0.005920
      dx2y2   :     0.001292
      dxy     :     0.001424
      f0      :     0.000138  f :     0.000710
      f+1     :     0.000076
      f-1     :     0.000260
      f+2     :     0.000106
      f-2     :     0.000101
      f+3     :     0.000016
      f-3     :     0.000014

 16 F s       :     3.915286  s :     3.915286
      pz      :     1.632244  p :     5.239408
      px      :     1.907381
      py      :     1.699784
      dz2     :     0.003820  d :     0.016529
      dxz     :     0.002236
      dyz     :     0.006635
      dx2y2   :     0.002011
      dxy     :     0.001827
      f0      :     0.000099  f :     0.000714
      f+1     :     0.000036
      f-1     :     0.000253
      f+2     :     0.000161
      f-2     :     0.000105
      f+3     :     0.000031
      f-3     :     0.000029

 17 F s       :     3.916811  s :     3.916811
      pz      :     1.753491  p :     5.235944
      px      :     1.895658
      py      :     1.586796
      dz2     :     0.002310  d :     0.016571
      dxz     :     0.001384
      dyz     :     0.006081
      dx2y2   :     0.003742
      dxy     :     0.003054
      f0      :     0.000080  f :     0.000711
      f+1     :     0.000010
      f-1     :     0.000151
      f+2     :     0.000193
      f-2     :     0.000105
      f+3     :     0.000084
      f-3     :     0.000088

 18 F s       :     3.916228  s :     3.916228
      pz      :     1.478714  p :     5.235418
      px      :     1.905517
      py      :     1.851187
      dz2     :     0.007663  d :     0.016609
      dxz     :     0.003593
      dyz     :     0.004415
      dx2y2   :     0.000424
      dxy     :     0.000514
      f0      :     0.000289  f :     0.000714
      f+1     :     0.000132
      f-1     :     0.000218
      f+2     :     0.000031
      f-2     :     0.000041
      f+3     :     0.000003
      f-3     :     0.000001

 19 F s       :     3.916078  s :     3.916078
      pz      :     1.830105  p :     5.233606
      px      :     1.901586
      py      :     1.501914
      dz2     :     0.002084  d :     0.016478
      dxz     :     0.000593
      dyz     :     0.004957
      dx2y2   :     0.005311
      dxy     :     0.003533
      f0      :     0.000079  f :     0.000710
      f+1     :     0.000005
      f-1     :     0.000120
      f+2     :     0.000176
      f-2     :     0.000051
      f+3     :     0.000122
      f-3     :     0.000157

 20 F s       :     3.913891  s :     3.913891
      pz      :     1.440214  p :     5.232149
      px      :     1.903940
      py      :     1.887995
      dz2     :     0.008927  d :     0.016649
      dxz     :     0.003945
      dyz     :     0.003443
      dx2y2   :     0.000172
      dxy     :     0.000162
      f0      :     0.000380  f :     0.000724
      f+1     :     0.000170
      f-1     :     0.000158
      f+2     :     0.000006
      f-2     :     0.000008
      f+3     :     0.000001
      f-3     :     0.000001

 21 F s       :     3.912202  s :     3.912202
      pz      :     1.860288  p :     5.225615
      px      :     1.892375
      py      :     1.472952
      dz2     :     0.002269  d :     0.016656
      dxz     :     0.000349
      dyz     :     0.004295
      dx2y2   :     0.006134
      dxy     :     0.003608
      f0      :     0.000076  f :     0.000758
      f+1     :     0.000009
      f-1     :     0.000138
      f+2     :     0.000148
      f-2     :     0.000031
      f+3     :     0.000150
      f-3     :     0.000206

 22 F s       :     3.911265  s :     3.911265
      pz      :     1.814511  p :     5.224631
      px      :     1.581362
      py      :     1.828759
      dz2     :     0.002205  d :     0.016681
      dxz     :     0.004648
      dyz     :     0.001545
      dx2y2   :     0.004032
      dxy     :     0.004250
      f0      :     0.000087  f :     0.000765
      f+1     :     0.000114
      f-1     :     0.000027
      f+2     :     0.000117
      f-2     :     0.000148
      f+3     :     0.000118
      f-3     :     0.000155

 23 F s       :     3.910925  s :     3.910925
      pz      :     1.446947  p :     5.224405
      px      :     1.888085
      py      :     1.889373
      dz2     :     0.009044  d :     0.016802
      dxz     :     0.003851
      dyz     :     0.003510
      dx2y2   :     0.000235
      dxy     :     0.000161
      f0      :     0.000395  f :     0.000770
      f+1     :     0.000181
      f-1     :     0.000168
      f+2     :     0.000014
      f-2     :     0.000011
      f+3     :     0.000001
      f-3     :     0.000001


SPIN
  0 C s       :    -0.014796  s :    -0.014796
      pz      :    -0.012280  p :    -0.054958
      px      :    -0.015273
      py      :    -0.027405
      dz2     :     0.000561  d :     0.011583
      dxz     :     0.004093
      dyz     :    -0.000728
      dx2y2   :     0.008339
      dxy     :    -0.000682
      f0      :     0.000160  f :     0.001279
      f+1     :     0.000040
      f-1     :     0.000118
      f+2     :     0.000396
      f-2     :     0.000078
      f+3     :     0.000106
      f-3     :     0.000381

  1 O s       :     0.003883  s :     0.003883
      pz      :     0.021324  p :     0.079190
      px      :     0.037191
      py      :     0.020674
      dz2     :    -0.000174  d :    -0.000232
      dxz     :    -0.000091
      dyz     :     0.000029
      dx2y2   :     0.000043
      dxy     :    -0.000039
      f0      :    -0.000019  f :    -0.000051
      f+1     :    -0.000014
      f-1     :    -0.000009
      f+2     :    -0.000005
      f-2     :    -0.000012
      f+3     :     0.000003
      f-3     :     0.000005

  2 O s       :     0.002333  s :     0.002333
      pz      :     0.006030  p :     0.044950
      px      :     0.012400
      py      :     0.026520
      dz2     :     0.000003  d :    -0.000214
      dxz     :    -0.000034
      dyz     :    -0.000022
      dx2y2   :    -0.000142
      dxy     :    -0.000018
      f0      :     0.000002  f :    -0.000031
      f+1     :    -0.000005
      f-1     :     0.000002
      f+2     :    -0.000005
      f-2     :    -0.000007
      f+3     :    -0.000012
      f-3     :    -0.000006

  3 C s       :     0.050086  s :     0.050086
      pz      :     0.076730  p :     0.749745
      px      :     0.195304
      py      :     0.477710
      dz2     :     0.001958  d :     0.004487
      dxz     :     0.001410
      dyz     :     0.000888
      dx2y2   :     0.000987
      dxy     :    -0.000756
      f0      :    -0.000251  f :    -0.001592
      f+1     :    -0.000096
      f-1     :    -0.000201
      f+2     :    -0.000136
      f-2     :    -0.000288
      f+3     :    -0.000124
      f-3     :    -0.000495

  4 C s       :    -0.020344  s :    -0.020344
      pz      :    -0.000993  p :    -0.012846
      px      :    -0.019316
      py      :     0.007463
      dz2     :     0.002631  d :     0.023201
      dxz     :    -0.000322
      dyz     :     0.000626
      dx2y2   :     0.013904
      dxy     :     0.006362
      f0      :     0.000078  f :     0.001100
      f+1     :     0.000099
      f-1     :     0.000001
      f+2     :     0.000096
      f-2     :     0.000224
      f+3     :     0.000635
      f-3     :    -0.000033

  5 C s       :    -0.001513  s :    -0.001513
      pz      :     0.001489  p :     0.031509
      px      :     0.012428
      py      :     0.017592
      dz2     :     0.000885  d :     0.004651
      dxz     :     0.000015
      dyz     :     0.000060
      dx2y2   :     0.003470
      dxy     :     0.000221
      f0      :     0.000001  f :    -0.000003
      f+1     :     0.000006
      f-1     :    -0.000016
      f+2     :    -0.000006
      f-2     :     0.000010
      f+3     :     0.000023
      f-3     :    -0.000021

  6 C s       :    -0.003064  s :    -0.003064
      pz      :     0.000490  p :     0.007614
      px      :     0.001690
      py      :     0.005434
      dz2     :     0.000166  d :     0.001049
      dxz     :    -0.000012
      dyz     :     0.000046
      dx2y2   :     0.000715
      dxy     :     0.000134
      f0      :     0.000003  f :     0.000032
      f+1     :     0.000002
      f-1     :    -0.000003
      f+2     :     0.000002
      f-2     :     0.000003
      f+3     :     0.000025
      f-3     :     0.000000

  7 C s       :    -0.000096  s :    -0.000096
      pz      :    -0.000058  p :     0.002085
      px      :     0.000337
      py      :     0.001807
      dz2     :     0.000048  d :     0.000433
      dxz     :    -0.000012
      dyz     :     0.000000
      dx2y2   :     0.000380
      dxy     :     0.000016
      f0      :    -0.000001  f :     0.000012
      f+1     :     0.000001
      f-1     :     0.000001
      f+2     :     0.000002
      f-2     :     0.000000
      f+3     :     0.000010
      f-3     :     0.000000

  8 C s       :    -0.000120  s :    -0.000120
      pz      :     0.000014  p :     0.000473
      px      :     0.000252
      py      :     0.000207
      dz2     :     0.000007  d :     0.000105
      dxz     :    -0.000003
      dyz     :    -0.000004
      dx2y2   :     0.000073
      dxy     :     0.000032
      f0      :    -0.000000  f :     0.000003
      f+1     :     0.000000
      f-1     :    -0.000000
      f+2     :     0.000001
      f-2     :     0.000001
      f+3     :     0.000002
      f-3     :     0.000000

  9 C s       :     0.000106  s :     0.000106
      pz      :     0.000029  p :     0.000110
      px      :    -0.000012
      py      :     0.000093
      dz2     :     0.000001  d :     0.000023
      dxz     :     0.000002
      dyz     :    -0.000000
      dx2y2   :     0.000016
      dxy     :     0.000005
      f0      :    -0.000000  f :     0.000002
      f+1     :     0.000000
      f-1     :    -0.000000
      f+2     :     0.000000
      f-2     :     0.000001
      f+3     :     0.000002
      f-3     :     0.000000

 10 F s       :     0.002876  s :     0.002876
      pz      :    -0.002753  p :     0.068640
      px      :     0.020424
      py      :     0.050969
      dz2     :     0.000371  d :     0.001577
      dxz     :     0.000325
      dyz     :     0.000798
      dx2y2   :     0.000007
      dxy     :     0.000076
      f0      :     0.000010  f :     0.000033
      f+1     :     0.000003
      f-1     :     0.000013
      f+2     :    -0.000000
      f-2     :     0.000006
      f+3     :     0.000001
      f-3     :     0.000001

 11 F s       :    -0.000159  s :    -0.000159
      pz      :     0.003170  p :     0.007338
      px      :     0.000685
      py      :     0.003483
      dz2     :     0.000011  d :    -0.000010
      dxz     :    -0.000007
      dyz     :    -0.000018
      dx2y2   :     0.000028
      dxy     :    -0.000025
      f0      :     0.000000  f :     0.000004
      f+1     :     0.000000
      f-1     :     0.000000
      f+2     :     0.000000
      f-2     :     0.000000
      f+3     :     0.000001
      f-3     :     0.000001

 12 F s       :    -0.000558  s :    -0.000558
      pz      :     0.008268  p :     0.008135
      px      :     0.000192
      py      :    -0.000325
      dz2     :    -0.000024  d :     0.000023
      dxz     :    -0.000022
      dyz     :     0.000008
      dx2y2   :     0.000060
      dxy     :     0.000001
      f0      :     0.000001  f :     0.000004
      f+1     :    -0.000000
      f-1     :     0.000001
      f+2     :     0.000002
      f-2     :    -0.000000
      f+3     :     0.000000
      f-3     :     0.000000

 13 F s       :     0.000246  s :     0.000246
      pz      :     0.000428  p :     0.000743
      px      :     0.000126
      py      :     0.000190
      dz2     :     0.000005  d :     0.000052
      dxz     :     0.000003
      dyz     :     0.000006
      dx2y2   :     0.000024
      dxy     :     0.000015
      f0      :    -0.000000  f :     0.000002
      f+1     :     0.000000
      f-1     :     0.000000
      f+2     :     0.000000
      f-2     :     0.000000
      f+3     :     0.000001
      f-3     :     0.000001

 14 F s       :     0.000669  s :     0.000669
      pz      :     0.000153  p :    -0.000431
      px      :    -0.000686
      py      :     0.000102
      dz2     :     0.000009  d :     0.000092
      dxz     :     0.000004
      dyz     :     0.000007
      dx2y2   :     0.000069
      dxy     :     0.000003
      f0      :     0.000000  f :     0.000004
      f+1     :     0.000001
      f-1     :     0.000000
      f+2     :     0.000002
      f-2     :     0.000000
      f+3     :     0.000000
      f-3     :     0.000000

 15 F s       :     0.000031  s :     0.000031
      pz      :     0.000004  p :     0.000201
      px      :     0.000062
      py      :     0.000136
      dz2     :     0.000000  d :     0.000017
      dxz     :     0.000003
      dyz     :     0.000001
      dx2y2   :     0.000004
      dxy     :     0.000010
      f0      :    -0.000000  f :     0.000000
      f+1     :     0.000000
[...]
  7:     27.19   0.000803    4.06  0.009212  (-0.027067 -0.042926  0.081465)
  8:     30.22   0.001029    5.20  0.010630  ( 0.066738  0.075326  0.022402)
  9:     43.78   0.000370    1.87  0.002641  ( 0.041687  0.029957 -0.002337)
 10:     49.84   0.000122    0.62  0.000763  ( 0.013930  0.021141  0.011027)
 11:     59.63   0.000117    0.59  0.000613  (-0.017710 -0.016774 -0.004215)
 12:     65.65   0.000253    1.28  0.001205  (-0.034632 -0.002338  0.000065)
 13:     80.04   0.000103    0.52  0.000403  ( 0.005111  0.017373 -0.008652)
 14:    117.33   0.000986    4.98  0.002622  (-0.047750  0.012267  0.013848)
 15:    135.84   0.000224    1.13  0.000514  (-0.017615  0.005463 -0.013189)
 16:    177.43   0.000958    4.84  0.001685  (-0.024878  0.013962 -0.029516)
 17:    181.39   0.000544    2.75  0.000936  (-0.001611  0.012826 -0.027727)
 18:    194.35   0.002096   10.59  0.003365  ( 0.004723  0.009375 -0.057055)
 19:    202.43   0.000036    0.18  0.000056  (-0.002070  0.007169  0.000652)
 20:    220.41   0.000384    1.94  0.000544  (-0.006110  0.022083 -0.004331)
 21:    238.30   0.000004    0.02  0.000005  (-0.000012 -0.001658 -0.001406)
 22:    254.64   0.000027    0.14  0.000033  ( 0.004769 -0.001647 -0.002724)
 23:    257.28   0.000070    0.35  0.000085  ( 0.008332  0.003489  0.001897)
 24:    286.20   0.003208   16.21  0.003498  (-0.056531 -0.000565  0.017377)
 25:    288.86   0.000116    0.59  0.000125  ( 0.003414  0.010572  0.001341)
 26:    291.78   0.000257    1.30  0.000274  (-0.004953  0.000331  0.015805)
 27:    312.37   0.000244    1.23  0.000244  ( 0.009760  0.008546 -0.008698)
 28:    318.29   0.000716    3.62  0.000702  (-0.021825  0.008382  0.012462)
 29:    342.52   0.000130    0.65  0.000118  (-0.007366 -0.001004  0.007924)
 30:    353.20   0.000269    1.36  0.000238  ( 0.001892  0.000067  0.015299)
 31:    359.59   0.000003    0.02  0.000003  (-0.000599 -0.000255 -0.001518)
 32:    366.53   0.000075    0.38  0.000064  (-0.007923  0.000406  0.001013)
 33:    374.08   0.000340    1.72  0.000283  (-0.016228  0.001417  0.004242)
 34:    382.92   0.000638    3.22  0.000520  ( 0.020941 -0.002641 -0.008607)
 35:    405.05   0.000371    1.87  0.000285  ( 0.009599  0.011511 -0.007800)
 36:    458.71   0.000160    0.81  0.000109  (-0.004108  0.003709 -0.008857)
 37:    515.54   0.001145    5.78  0.000693  (-0.025322 -0.003949  0.006001)
 38:    524.39   0.005861   29.62  0.003488  (-0.053274  0.023343  0.010248)
 39:    555.21   0.003934   19.88  0.002211  ( 0.001151  0.046619 -0.006017)
 40:    559.62   0.004665   23.57  0.002601  ( 0.050856 -0.002126  0.003211)
 41:    567.64   0.008803   44.49  0.004839  (-0.059886 -0.026932 -0.022972)
 42:    592.25   0.000179    0.90  0.000094  ( 0.003399 -0.003148  0.008533)
 43:    600.37   0.002580   13.04  0.001341  ( 0.036388 -0.002270  0.003459)
 44:    631.00   0.003704   18.72  0.001832  ( 0.038628  0.016308  0.008588)
 45:    659.96   0.040195  203.13  0.019006  (-0.137862  0.000495 -0.000468)
 46:    688.36   0.017541   88.64  0.007952  (-0.088017  0.013174  0.005610)
 47:    715.69   0.001001    5.06  0.000437  (-0.010770  0.016649  0.006596)
 48:    734.00   0.008058   40.72  0.003426  (-0.033792 -0.047738 -0.002242)
 49:    750.86   0.007443   37.61  0.003093  (-0.047693  0.005804  0.028019)
 50:    775.21   0.008020   40.53  0.003229  (-0.012771  0.046505  0.030046)
 51:    869.45   0.004359   22.03  0.001564  (-0.019290  0.024822  0.024005)
 52:   1005.51   0.010466   52.89  0.003248  ( 0.055955 -0.007562  0.007749)
 53:   1043.90   0.034893  176.33  0.010431  (-0.024573 -0.096670 -0.021953)
 54:   1106.15   0.007246   36.62  0.002044  ( 0.033136 -0.018283 -0.024738)
 55:   1112.37   0.055908  282.54  0.015684  (-0.004998  0.023102 -0.122987)
 56:   1127.12   0.074839  378.21  0.020721  ( 0.000672  0.141783  0.024854)
 57:   1135.70   0.036793  185.94  0.010110  (-0.002895  0.079642  0.061308)
 58:   1145.50   0.036621  185.07  0.009976  (-0.016036  0.046511 -0.086925)
 59:   1152.66   0.104995  530.60  0.028425  (-0.006958  0.027767 -0.166151)
 60:   1158.76   0.088879  449.16  0.023936  ( 0.057675 -0.137797 -0.040263)
 61:   1168.66   0.082846  418.67  0.022122  (-0.011767 -0.030333  0.145133)
 62:   1181.64   0.006406   32.37  0.001692  (-0.040416 -0.007333  0.002160)
 63:   1186.74   0.053810  271.93  0.014150  (-0.004452  0.056296 -0.104694)
 64:   1207.90   0.024802  125.34  0.006408  (-0.001286  0.014510  0.078711)
 65:   1219.70   0.007110   35.93  0.001819  ( 0.013307 -0.004397  0.040282)
 66:   1248.86   0.010039   50.73  0.002509  ( 0.040564 -0.010877 -0.027290)
 67:   1275.81   0.041837  211.43  0.010233  (-0.057174  0.074099  0.038391)
 68:   1287.34   0.020272  102.44  0.004914  (-0.013772  0.060483  0.032651)
 69:   1333.21   0.044078  222.75  0.010317  (-0.099521  0.020294  0.000902)
 70:   1357.37   0.003134   15.84  0.000721  (-0.012301  0.022679  0.007413)
 71:   1649.10   0.143334  724.35  0.027123  (-0.112849 -0.000049 -0.119953)

* The epsilon (eps) is given for a Dirac delta lineshape.
** The dipole moment derivative (T) already includes vibrational overlap.

The first frequency considered to be a vibration is 6
The total number of vibrations considered is 66


--------------------------
THERMOCHEMISTRY AT 298.15K
--------------------------

Temperature         ...   298.15 K
Pressure            ...     1.00 atm
Total Mass          ...   394.06 AMU
Quasi RRHO          ...     True
Cut-Off Frequency   ...     1.00 cm^-1

Throughout the following assumptions are being made:
  (1) The electronic state is orbitally nondegenerate
      but the spin degeneracy is treated
  (2) There are no thermally accessible electronically excited states
  (3) Hindered rotations indicated by low frequency modes are not
      treated as such but are treated as vibrations and this may
      cause some error
  (4) All equations used are the standard statistical mechanics
      equations for an ideal gas
  (5) All vibrations are strictly harmonic

freq.      22.13  E(vib)   ...       0.56 
freq.      27.19  E(vib)   ...       0.55 
freq.      30.22  E(vib)   ...       0.55 
freq.      43.78  E(vib)   ...       0.53 
freq.      49.84  E(vib)   ...       0.52 
freq.      59.63  E(vib)   ...       0.51 
freq.      65.65  E(vib)   ...       0.50 
freq.      80.04  E(vib)   ...       0.49 
freq.     117.33  E(vib)   ...       0.44 
freq.     135.84  E(vib)   ...       0.42 
freq.     177.43  E(vib)   ...       0.37 
freq.     181.39  E(vib)   ...       0.37 
freq.     194.35  E(vib)   ...       0.36 
freq.     202.43  E(vib)   ...       0.35 
freq.     220.41  E(vib)   ...       0.33 
freq.     238.30  E(vib)   ...       0.32 
freq.     254.64  E(vib)   ...       0.30 
freq.     257.28  E(vib)   ...       0.30 
freq.     286.20  E(vib)   ...       0.27 
freq.     288.86  E(vib)   ...       0.27 
freq.     291.78  E(vib)   ...       0.27 
freq.     312.37  E(vib)   ...       0.25 
freq.     318.29  E(vib)   ...       0.25 
freq.     342.52  E(vib)   ...       0.23 
freq.     353.20  E(vib)   ...       0.22 
freq.     359.59  E(vib)   ...       0.22 
freq.     366.53  E(vib)   ...       0.22 
freq.     374.08  E(vib)   ...       0.21 
freq.     382.92  E(vib)   ...       0.20 
freq.     405.05  E(vib)   ...       0.19 
freq.     458.71  E(vib)   ...       0.16 
freq.     515.54  E(vib)   ...       0.13 
freq.     524.39  E(vib)   ...       0.13 
freq.     555.21  E(vib)   ...       0.12 
freq.     559.62  E(vib)   ...       0.12 
freq.     567.64  E(vib)   ...       0.11 
freq.     592.25  E(vib)   ...       0.10 
freq.     600.37  E(vib)   ...       0.10 
freq.     631.00  E(vib)   ...       0.09 
freq.     659.96  E(vib)   ...       0.08 
freq.     688.36  E(vib)   ...       0.07 
freq.     715.69  E(vib)   ...       0.07 
freq.     734.00  E(vib)   ...       0.06 
freq.     750.86  E(vib)   ...       0.06 
freq.     775.21  E(vib)   ...       0.05 
freq.     869.45  E(vib)   ...       0.04 
freq.    1005.51  E(vib)   ...       0.02 
freq.    1043.90  E(vib)   ...       0.02 
freq.    1106.15  E(vib)   ...       0.02 
freq.    1112.37  E(vib)   ...       0.01 
freq.    1127.12  E(vib)   ...       0.01 
freq.    1135.70  E(vib)   ...       0.01 
freq.    1145.50  E(vib)   ...       0.01 
freq.    1152.66  E(vib)   ...       0.01 
freq.    1158.76  E(vib)   ...       0.01 
freq.    1168.66  E(vib)   ...       0.01 
freq.    1181.64  E(vib)   ...       0.01 
freq.    1186.74  E(vib)   ...       0.01 
freq.    1207.90  E(vib)   ...       0.01 
freq.    1219.70  E(vib)   ...       0.01 
freq.    1248.86  E(vib)   ...       0.01 
freq.    1275.81  E(vib)   ...       0.01 
freq.    1287.34  E(vib)   ...       0.01 
freq.    1333.21  E(vib)   ...       0.01 
freq.    1357.37  E(vib)   ...       0.01 
freq.    1649.10  E(vib)   ...       0.00 

------------
INNER ENERGY
------------

The inner energy is: U= E(el) + E(ZPE) + E(vib) + E(rot) + E(trans)
    E(el)   - is the total energy from the electronic structure calculation
              = E(kin-el) + E(nuc-el) + E(el-el) + E(nuc-nuc)
    E(ZPE)  - the the zero temperature vibrational energy from the frequency calculation
    E(vib)  - the the finite temperature correction to E(ZPE) due to population
              of excited vibrational states
    E(rot)  - is the rotational thermal energy
    E(trans)- is the translational thermal energy

Summary of contributions to the inner energy U:
Electronic energy                ...  -1853.28403142 Eh
Zero point energy                ...      0.09281605 Eh      58.24 kcal/mol
Thermal vibrational correction   ...      0.01964823 Eh      12.33 kcal/mol
Thermal rotational correction    ...      0.00141627 Eh       0.89 kcal/mol
Thermal translational correction ...      0.00141627 Eh       0.89 kcal/mol
-----------------------------------------------------------------------
Total thermal energy                  -1853.16873460 Eh


Summary of corrections to the electronic energy:
(perhaps to be used in another calculation)
Total thermal correction                  0.02248077 Eh      14.11 kcal/mol
Non-thermal (ZPE) correction              0.09281605 Eh      58.24 kcal/mol
-----------------------------------------------------------------------
Total correction                          0.11529682 Eh      72.35 kcal/mol


--------
ENTHALPY
--------

The enthalpy is H = U + kB*T
                kB is Boltzmann's constant
Total thermal energy              ...  -1853.16873460 Eh 
Thermal Enthalpy correction       ...      0.00094421 Eh       0.59 kcal/mol
-----------------------------------------------------------------------
Total Enthalpy                    ...  -1853.16779039 Eh


Note: Only C1 symmetry has been detected, increase convergence thresholds 
      if your molecule has a higher symmetry. Symmetry factor of 1.0 is   
      used for the rotational entropy correction. 
 

Note: Rotational entropy computed according to Herzberg 
Infrared and Raman Spectra, Chapter V,1, Van Nostrand Reinhold, 1945 
Point Group:  C1, Symmetry Number:   1  
Rotational constants in cm-1:     0.020763     0.004182     0.004060 

Vibrational entropy computed according to the QRRHO of S. Grimme
Chem.Eur.J. 2012 18 9955 using a reference frequency of 100.0 cm-1


-------
ENTROPY
-------

The entropy contributions are T*S = T*(S(el)+S(vib)+S(rot)+S(trans))
     S(el)   - electronic entropy
     S(vib)  - vibrational entropy
     S(rot)  - rotational entropy
     S(trans)- translational entropy
The entropies will be listed as multiplied by the temperature to get
units of energy

Electronic entropy                ...      0.00065446 Eh      0.41 kcal/mol
Vibrational entropy               ...      0.03538756 Eh     22.21 kcal/mol
Rotational entropy                ...      0.01652514 Eh     10.37 kcal/mol
Translational entropy             ...      0.02081341 Eh     13.06 kcal/mol
-----------------------------------------------------------------------
Final entropy term                ...      0.07338057 Eh     46.05 kcal/mol

In case the symmetry of your molecule has not been determined correctly
or in case you have a reason to use a different symmetry number we print 
out the resulting rotational entropy values for sn=1,12:

 non-linear molecules -----------------------------------
|  sn= 1 | S(rot)=       0.01652514 Eh     10.37 kcal/mol|
|  sn= 2 | S(rot)=       0.01587069 Eh      9.96 kcal/mol|
|  sn= 3 | S(rot)=       0.01548785 Eh      9.72 kcal/mol|
|  sn= 4 | S(rot)=       0.01521623 Eh      9.55 kcal/mol|
|  sn= 5 | S(rot)=       0.01500554 Eh      9.42 kcal/mol|
|  sn= 6 | S(rot)=       0.01483340 Eh      9.31 kcal/mol|
|  sn= 7 | S(rot)=       0.01468785 Eh      9.22 kcal/mol|
|  sn= 8 | S(rot)=       0.01456177 Eh      9.14 kcal/mol|
|  sn= 9 | S(rot)=       0.01445056 Eh      9.07 kcal/mol|
|  sn=10 | S(rot)=       0.01435108 Eh      9.01 kcal/mol|
|  sn=11 | S(rot)=       0.01426109 Eh      8.95 kcal/mol|
|  sn=12 | S(rot)=       0.01417894 Eh      8.90 kcal/mol|
 linear molecules ---------------------------------------
|  Dinfh | S(rot)=       0.01052495 Eh      6.60 kcal/mol|
|  Cinfv | S(rot)=       0.01117940 Eh      7.02 kcal/mol|
 --------------------------------------------------------


-------------------
GIBBS FREE ENERGY
-------------------

The Gibbs free energy is G = H - T*S

Total enthalpy                    ...  -1853.16779039 Eh 
Total entropy correction          ...     -0.07338057 Eh    -46.05 kcal/mol
-----------------------------------------------------------------------
Final Gibbs free energy         ...  -1853.24117096 Eh

For completeness - the Gibbs free energy minus the electronic energy
G-E(el)                           ...      0.04286045 Eh     26.90 kcal/mol


Maximum memory used throughout the entire PROP-calculation: 523.6 MB

--------------------------------
SUGGESTED CITATIONS FOR THIS RUN
--------------------------------

Below you find a list of papers that are relevant to this ORCA run
We neither can nor want to force you to cite these papers, but we appreciate if you do
You receive ORCA, which is the product of decades of hard work by many enthusiastic individuals, for free
The only thing we kindly ask in return is that you cite our papers,
We deeply appreciate it, if you show your appreciation for ORCA by not just citing the generic ORCA reference.

Please note that relegating all ORCA citations to the supporting information does *not* help us.
SI sections are not indexed - citations you put there will not count into any citation statistics
But we need these citations in order to attract the funding resources that allow us to do what we are doing

Therefore, if you are a happy ORCA user, please consider citing a few of the papers listed below in the main body of your paper

In addition to the list printed below, the program has created the file rf_mecn_freq_B3L_C2_D_B.bibtex that contains the list in bibtex format
You can import this file easily into all common literature databanks and citation aid programs


List of essential papers. We consider these as the minimum necessary citations

  1. Neese,F.
     Software update: the ORCA program system, version 5.0
     WIRES Comput. Molec. Sci., 2022 12(1)e1606
     doi.org/10.1002/wcms.1606

List of papers to cite with high priority. The work reported in these papers was absolutely
necessary for this run to complete.
Our perspective: the developers of density functionals and basis sets usually get cited in chemistry papers
Good! But without the algorithms to do something with them, the functionals or basis sets would not do anything.
Hence, in our opinion, the algorithm design and method developments papers are equally worthy of getting cited

  1. Neese,F.
     An improvement of the resolution of the identity approximation for the formation of the Coulomb matrix
     J. Comp. Chem., 2003 24(14)1740-1747
     doi.org/10.1002/jcc.10318
  2. Neese,F.; Wennmohs,F.; Hansen,A.; Becker,U.
     Efficient, approximate and parallel Hartree-Fock and hybrid DFT calculations. A 'chain-of-spheres' algorithm for the Hartree-Fock exchange
     Chem. Phys., 2009 356(1-3)98-109
     doi.org/10.1016/j.chemphys.2008.10.036
  3. Bykov,D.; Petrenko,T.; Izsak,R.; Kossmann,S.; Becker,U.; Valeev,E.; Neese,F.
     Efficient implementation of the analytic second derivatives of Hartree-Fock and hybrid DFT energies: a detailed analysis of different approximations
     Molec. Phys., 2015 113 1961-1977
     doi.org/10.1080/00268976.2015.1025114
  4. Garcia-Rates,M.; Neese,F.
     Efficient implementation of the analytical second derivatives of hartree-fock and hybrid DFT energies within the framework of the conductor-like polarizable continuum model
     J. Comput. Chem., 2019 40 1816-1828
     doi.org/10.1002/jcc.25833
  5. Garcia-Rates,M.; Neese,F.
     Effect of the Solute Cavity on the Solvation Energy and its Derivatives within the Framework of the Gaussian Charge Scheme
     J. Comput. Chem., 2020 41 922-939
     doi.org/10.1002/jcc.26139
  6. Helmich-Paris,B.; de Souza,B.; Neese,F.; Izsák,R.
     An improved chain of spheres for exchange algorithm
     J. Chem. Phys., 2021 155 104109
     doi.org/doi: 10.1063/5.0058766.
  7. Neese,F.
     The SHARK Integral Generation and Digestion System
     J. Comp. Chem., 2022  1-16
     doi.org/10.1002/jcc.26942
  8. Grimme,S.; Antony,J.; Ehrlich,S.; Krieg,H.
     A consistent and accurate ab initio parametrization of density functional dispersion correction (DFT-D) for the 94 elements H-Pu
     J. Chem. Phys., 2010 132 154104
     doi.org/10.1063/1.3382344
  9. Grimme,S.; Ehrlich,S.; Goerigk,L.
     Effect of the damping function in dispersion corrected density functional theory
     J. Comput. Chem., 2011 32(7)1456-1465
     doi.org/10.1002/jcc.21759

List of suggested additional citations. These are papers that are important in the 'surrounding' of 
of this run, or papers that preceded the highly important papers. If you like your results we are grateful for a citation.

  1. Izsak,R.; Neese,F.
     An overlap fitted chain of spheres exchange method
     J. Chem. Phys., 2011 135 144105
     doi.org/10.1063/1.3646921
  2. Izsak,R.; Hansen,A.; Neese,F.
     The resolution of identity and chain of spheres approximations for the LPNO-CCSD singles Fock term
     Molec. Phys., 2012 110 2413-2417
     doi.org/10.1080/00268976.2012.687466
  3. Neese,F.
     The ORCA program system
     WIRES Comput. Molec. Sci., 2012 2(1)73-78
     doi.org/10.1002/wcms.81
  4. Izsak,R.; Neese,F.; Klopper,W.
     Robust fitting techniques in the chain of spheres approximation to the Fock exchange: The role of the complementary space
     J. Chem. Phys., 2013 139 
     doi.org/10.1063/1.4819264
  5. Neese,F.
     Software update: the ORCA program system, version 4.0
     WIRES Comput. Molec. Sci., 2018 8(1)1-6
     doi.org/10.1002/wcms.1327
  6. Neese,F.; Wennmohs,F.; Becker,U.; Riplinger,C.
     The ORCA quantum chemistry program package
     J. Chem. Phys., 2020 152 Art. No. L224108
     doi.org/10.1063/5.0004608

List of optional additional citations

  1. Neese,F.
     Approximate second-order SCF convergence for spin unrestricted wavefunctions
     Chem. Phys. Lett., 2000 325(1-3)93-98
     doi.org/10.1016/s0009-2614(00)00662-x

Timings for individual modules:

Sum of individual times          ...     1209.738 sec (=  20.162 min)
Startup calculation              ...        5.045 sec (=   0.084 min)   0.4 %
SCF iterations                   ...       96.616 sec (=   1.610 min)   8.0 %
Property integrals               ...      259.795 sec (=   4.330 min)  21.5 %
SCF Response                     ...      551.969 sec (=   9.199 min)  45.6 %
Property calculations            ...      296.313 sec (=   4.939 min)  24.5 %
                             ****ORCA TERMINATED NORMALLY****
TOTAL RUN TIME: 0 days 0 hours 20 minutes 11 seconds 873 msec
