
                                 *****************
                                 * O   R   C   A *
                                 *****************

                                            #,                                       
                                            ###                                      
                                            ####                                     
                                            #####                                    
                                            ######                                   
                                           ########,                                 
                                     ,,################,,,,,                         
                               ,,#################################,,                 
                          ,,##########################################,,             
                       ,#########################################, ''#####,          
                    ,#############################################,,   '####,        
                  ,##################################################,,,,####,       
                ,###########''''           ''''###############################       
              ,#####''   ,,,,##########,,,,          '''####'''          '####       
            ,##' ,,,,###########################,,,                        '##       
           ' ,,###''''                  '''############,,,                           
         ,,##''                                '''############,,,,        ,,,,,,###''
      ,#''                                            '''#######################'''  
     '                                                          ''''####''''         
             ,#######,   #######,   ,#######,      ##                                
            ,#'     '#,  ##    ##  ,#'     '#,    #''#        ,####,   ,####,        
            ##       ##  ##   ,#'  ##            #'  '#       #'       #'  '#        
            ##       ##  #######   ##           ,######,      #####,   #    #        
            '#,     ,#'  ##    ##  '#,     ,#' ,#      #,     #,   #   #,  ,#        
             '#######'   ##     ##  '#######'  #'      '#     '####' # '####'        



                #########################################################
                #                        -***-                          #
                #          Department of theory and spectroscopy        #
                #                                                       #
                #                      Frank Neese                      #
                #                                                       #
                #     Directorship, Architecture, Infrastructure        #
                #                    SHARK, DRIVERS                     #
                #        Core code/Algorithms in most modules           #
                #                                                       #
                #        Max Planck Institute fuer Kohlenforschung      #
                #                Kaiser Wilhelm Platz 1                 #
                #                 D-45470 Muelheim/Ruhr                 #
                #                      Germany                          #
                #                                                       #
                #                  All rights reserved                  #
                #                        -***-                          #
                #########################################################


                         Program Version 6.0.1  -  RELEASE   -


 With contributions from (in alphabetic order):
[Max-Planck-Institut fuer Kohlenforschung]                               
  Daniel Aravena         : Magnetic Suceptibility                        
  Michael Atanasov       : Ab Initio Ligand Field Theory (pilot matlab implementation)
  Alexander A. Auer      : GIAO ZORA, VPT2 properties, NMR spectrum      
  Ute Becker             : All parallelization in ORCA, NUMFREQ, NUMCALC 
  Giovanni Bistoni       : ED, misc. LED, open-shell LED, HFLD           
  Martin Brehm           : Molecular dynamics                            
  Dmytro Bykov           : pre 5.0 version of the SCF Hessian            
  Marcos Casanova-Páez   : Triplet and SCS-CIS(D). UHF-(DLPNO)-IP/EA/STEOM-CCSD. UHF-CVS-IP/STEOM-CCSD   
  Vijay G. Chilkuri      : MRCI spin determinant printing, contributions to CSF-ICE 
  Pauline Colinet        : FMM embedding                                 
  Dipayan Datta          : RHF DLPNO-CCSD density                        
  Achintya Kumar Dutta   : EOM-CC, STEOM-CC                              
  Nicolas Foglia         : Exact transition moments, OPA infrastructure, MCD improvements    
  Dmitry Ganyushin       : Spin-Orbit,Spin-Spin,Magnetic field MRCI      
  Miquel Garcia-Rates    : C-PCM and meta-GGA Hessian, CCSD/C-PCM, Gaussian charge scheme 
  Tiago L. C. Gouveia    : GS-ROHF, GS-ROCIS                             
  Yang Guo               : DLPNO-NEVPT2, F12-NEVPT2, CIM, IAO-localization        
  Andreas Hansen         : Spin unrestricted coupled pair/coupled cluster methods 
  Ingolf Harden          : AUTO-CI MPn and infrastructure                
  Benjamin Helmich-Paris : MC-RPA, TRAH-(SCF,CASSCF), AVAS, COSX integrals, SCF dyn. polar. 
  Lee Huntington         : MR-EOM, pCC                                   
  Robert Izsak           : Overlap fitted RIJCOSX, COSX-SCS-MP3, EOM     
  Riya Kayal             : Wick's Theorem for AUTO-CI, AUTO-CI UHF-CCSDT 
  Emily Kempfer          : AUTO-CI, RHF CISDT and CCSDT                  
  Christian Kollmar      : KDIIS, OOCD, Brueckner-CCSD(T), CCSD density, CASPT2, CASPT2-K, improved NEVPT2 
  Axel Koslowski         : Symmetry handling                             
  Simone Kossmann        : meta-GGA functionals, TD-DFT gradient, OOMP2, (MP2 Hessian; deprecated post 5.0) 
  Lucas Lang             : DCDCAS                                        
  Marvin Lechner         : AUTO-CI (C++ implementation), FIC-MRCC        
  Spencer Leger          : CASSCF response                               
  Dagmar Lenk            : GEPOL surface, SMD, ORCA-2-JSON               
  Dimitrios Liakos       : Extrapolation schemes; Compound Job, initial MDCI parallelization 
  Dimitrios Manganas     : Further ROCIS development; embedding schemes. LFT, Crystal Embedding 
  Dimitrios Pantazis     : SARC Basis sets                               
  Anastasios Papadopoulos: AUTO-CI, single reference methods and gradients 
  Taras Petrenko         : pre 6.0 DFT Hessian and TD-DFT gradient, (ASA, deprecated), ECA, 1-Electron XAS/XES, NRVS 
  Peter Pinski           : DLPNO-MP2, DLPNO-MP2 Gradient                 
  Christoph Reimann      : Effective Core Potentials                     
  Marius Retegan         : Local ZFS, SOC                                
  Christoph Riplinger    : Optimizer, TS searches, QM/MM, DLPNO-CCSD(T), (RO)-DLPNO pert. Triples 
  Michael Roemelt        : Original ROCIS implementation                 
  Masaaki Saitow         : Open-shell DLPNO-CCSD energy and density      
  Barbara Sandhoefer     : DKH picture change effects                    
  Kantharuban Sivalingam : CASSCF convergence/infrastructure, NEVPT2 and variants, FIC-MRCI 
  Bernardo de Souza      : ESD, SOC TD-DFT                               
  Georgi L. Stoychev     : AutoAux, RI-MP2 NMR, DLPNO-MP2 response, X2C  
  Van Anh Tran           : RI-MP2 g-tensors                              
  Willem Van den Heuvel  : Paramagnetic NMR                              
  Zikuan Wang            : NOTCH, Electric field optimization            
  Frank Wennmohs         : Technical directorship and infrastructure     
  Hang Xu                : AUTO-CI-Response properties                   
                                                                         
[FACCTs GmbH]                                                            
  Markus Bursch, Miquel Garcia-Rates, Christoph Riplinger, Bernardo de Souza, Georgi L. Stoychev 
                                                                 
  APM, Basis sets (HGBS, AHGBS, def-TZVP (Ac-Lr), def2-XVPD (La-Lu)), CI-OPT, improved COSX, DLPNO-Multilevel,           
  DOCKER, DRACO, updates on ESD, GOAT, IRC, LR-CPCM, MBIS, meta-GGA TD-DFT gradient, ML-optimized integration grids, 
  MM, NACMEs, nearIR, NEB, NEB-TS, NL-DFT gradient (VV10), 2- and 3-layer-ONIOM, interface openCOSMO-RS, QMMM,   
  Crystal-QMMM, SF, symmetry and pop. for TD-DFT, r2SCAN hybrids, SOLVATOR                                   
                                                                         
[Other institutions]                                                     
  V. Asgeirsson          : NEB                                           
  Christoph Bannwarth    : sTDA-DFT, sTD-DFT, PBEh-3c, B97-3c, D3        
  Sebastian Ehlert       : rSCAN, r2SCAN, r2SCAN-3c, D4, dhf basis sets  
  Marvin Friede          : D4 for Fr, Ra, Ac-Lr                          
  Lars Goerigk           : TD-DFT with DH, B97 family of functionals     
  Stefan Grimme          : VdW corrections, initial TS optimization, DFT functionals, gCP, sTDA/sTD-DF 
  Waldemar Hujo          : DFT-NL                                        
  H. Jonsson             : NEB                                           
  Holger Kruse           : gCP                                           
  Marcel Mueller         : wB97X-3c, vDZP basis set                      
  Hagen Neugebauer       : wr2SCAN                                       
  Tobias Risthaus        : range-separated hybrid DFT                    
  Lukas Wittmann         : regularized MP2, r2SCAN double-hybrids, wr2SCAN        
                                                                         
We gratefully acknowledge several colleagues who have allowed us to      
interface, adapt or use parts of their codes:                            
  Ed Valeev, F. Pavosevic, A. Kumar             : LibInt (2-el integral package), F12 methods 
  Garnet Chan, S. Sharma, J. Yang, R. Olivares  : DMRG                   
  Ulf Ekstrom                                   : XCFun DFT Library      
  Mihaly Kallay                                 : mrcc  (arbitrary order and MRCC methods)
  Frank Weinhold                                : gennbo (NPA and NBO analysis)           
  Simon Mueller                                 : openCOSMO-RS                            
  Christopher J. Cramer and Donald G. Truhlar   : smd solvation model                     
  S Lehtola, MJT Oliveira, MAL Marques          : LibXC Library                           
  Liviu Ungur et al                             : ANISO software                          


 Your calculation uses the libint2 library for the computation of 2-el integrals
 For citations please refer to: http://libint.valeyev.net

 Your ORCA version has been built with support for libXC version: 6.2.2
 For citations please refer to: https://libxc.gitlab.io

 This ORCA versions uses:
   CBLAS   interface :  Fast vector & matrix operations
   LAPACKE interface :  Fast linear algebra routines
   SCALAPACK package :  Parallel linear algebra routines
   Shared memory     :  Shared parallel matrices
   BLAS/LAPACK       :  OpenBLAS 0.3.27  USE64BITINT DYNAMIC_ARCH NO_AFFINITY SkylakeX SINGLE_THREADED
        Core in use  :  SkylakeX
   Copyright (c) 2011-2014, The OpenBLAS Project


NOTE: MaxCore=8000 MB was set to SCF,MP2,MDCI,CIPSI,MRCI and CIS
      => If you want to overwrite this, your respective input block should be placed after the MaxCore statement
Your calculation utilizes the atom-pairwise dispersion correction
with the Becke-Johnson damping scheme (D3BJ)


Your calculation utilizes the SMD solvation module
Please cite in your paper:
A.V. Marenich, C.J. Cramer, D.G. Truhlar J. Phys. Chem. B, 113, (2009), 6378 

Warning: RI is on but no J-basis has been assigned. Assigning Def2/J (nothing to worry about!)
================================================================================

----- Orbital basis set information -----
Your calculation utilizes the basis: def2-TZVP
   F. Weigend and R. Ahlrichs, Phys. Chem. Chem. Phys. 7, 3297 (2005).

----- AuxJ basis set information -----
Your calculation utilizes the auxiliary basis: def2/J
   F. Weigend, Phys. Chem. Chem. Phys. 8, 1057 (2006).

================================================================================
                                        WARNINGS
                       Please study these warnings very carefully!
================================================================================



WARNING: SCAN, rSCAN, or r2SCAN functional requested.
  ===> : libXC variant has now been activated.



WARNING: your system is open-shell and RHF/RKS was chosen
  ===> : WILL SWITCH to UHF/UKS


================================================================================
                                       INPUT FILE
================================================================================
NAME = rf_mecn_2H2O_freq_r2s_con_02.inp
|  1> !r2scanh def2-TZVP freq d3 TightSCF SlowConv defgrid2
|  2>  
|  3> %pal
|  4> nprocs 20
|  5> end
|  6>  
|  7> %scf
|  8> MaxIter 1500
|  9> end
| 10>  
| 11> %maxcore 8000
| 12>  
| 13> !CPCM
| 14> %cpcm smd true
| 15> SMDsolvent "ACETONITRILE"
| 16> end
| 17>  
| 18> * xyz -1 2
| 19> 6        6.978466000     27.031997000      1.668192000
| 20> 6        6.298155000     25.684688000      2.034653000
| 21> 6        7.302636000     24.531697000      2.313173000
| 22> 6        6.677033000     23.336001000      3.102176000
| 23> 6        7.479308000     22.085211000      2.981174000
| 24> 6        7.068037000     20.770466000      2.392051000
| 25> 6        7.131160000     20.702561000      0.848526000
| 26> 6        6.765980000     19.293617000      0.272515000
| 27> 9        7.910819000     26.846397000      0.739494000
| 28> 9        7.534908000     27.584357000      2.737847000
| 29> 9        6.058691000     27.862569000      1.191753000
| 30> 9        5.537065000     25.898089000      3.119297000
| 31> 9        5.509580000     25.330819000      1.011161000
| 32> 9        7.757289000     24.077798000      1.133639000
| 33> 9        8.343560000     25.010828000      3.013966000
| 34> 9        6.601855000     23.717574000      4.401709000
| 35> 9        5.426594000     23.129533000      2.653352000
| 36> 9        8.772984000     22.236201000      3.205242000
| 37> 9        7.904973000     19.825313000      2.880479000
| 38> 9        5.811177000     20.469290000      2.780610000
| 39> 9        6.295673000     21.658411000      0.372596000
| 40> 9        8.392509000     21.070895000      0.498876000
| 41> 8        7.718626000     18.510073000      0.155702000
| 42> 8        5.564228000     19.130586000      0.019235000
| 43> 8        3.318435000     20.701360000      0.430690000
| 44> 1        2.718930000     20.026755000      0.762218000
| 45> 1        4.159739000     20.224051000      0.291776000
| 46> 1        9.394400000     18.696085000      0.747611000
| 47> 8       10.321444000     18.716139000      1.058248000
| 48> 1       10.395154000     19.558770000      1.514713000
| 49> *
| 50> 
| 51>                          ****END OF INPUT****
================================================================================

                       ****************************
                       * Single Point Calculation *
                       ****************************

---------------------------------
CARTESIAN COORDINATES (ANGSTROEM)
---------------------------------
  C      6.978466   27.031997    1.668192
  C      6.298155   25.684688    2.034653
  C      7.302636   24.531697    2.313173
  C      6.677033   23.336001    3.102176
  C      7.479308   22.085211    2.981174
  C      7.068037   20.770466    2.392051
  C      7.131160   20.702561    0.848526
  C      6.765980   19.293617    0.272515
  F      7.910819   26.846397    0.739494
  F      7.534908   27.584357    2.737847
  F      6.058691   27.862569    1.191753
  F      5.537065   25.898089    3.119297
  F      5.509580   25.330819    1.011161
  F      7.757289   24.077798    1.133639
  F      8.343560   25.010828    3.013966
  F      6.601855   23.717574    4.401709
  F      5.426594   23.129533    2.653352
  F      8.772984   22.236201    3.205242
  F      7.904973   19.825313    2.880479
  F      5.811177   20.469290    2.780610
  F      6.295673   21.658411    0.372596
  F      8.392509   21.070895    0.498876
  O      7.718626   18.510073    0.155702
  O      5.564228   19.130586    0.019235
  O      3.318435   20.701360    0.430690
  H      2.718930   20.026755    0.762218
  H      4.159739   20.224051    0.291776
  H      9.394400   18.696085    0.747611
  O     10.321444   18.716139    1.058248
  H     10.395154   19.558770    1.514713

----------------------------
CARTESIAN COORDINATES (A.U.)
----------------------------
  NO LB      ZA    FRAG     MASS         X           Y           Z
   0 C     6.0000    0    12.011   13.187390   51.083071    3.152426
   1 C     6.0000    0    12.011   11.901788   48.537026    3.844937
   2 C     6.0000    0    12.011   13.799982   46.358189    4.371263
   3 C     6.0000    0    12.011   12.617764   44.098651    5.862263
   4 C     6.0000    0    12.011   14.133844   41.735000    5.633602
   5 C     6.0000    0    12.011   13.356654   39.250492    4.520321
   6 C     6.0000    0    12.011   13.475939   39.122171    1.603482
   7 C     6.0000    0    12.011   12.785849   36.459652    0.514979
   8 F     9.0000    0    18.998   14.949281   50.732338    1.397441
   9 F     9.0000    0    18.998   14.238913   52.126880    5.173781
  10 F     9.0000    0    18.998   11.449267   52.652625    2.252087
  11 F     9.0000    0    18.998   10.463536   48.940296    5.894617
  12 F     9.0000    0    18.998   10.411597   47.868311    1.910817
  13 F     9.0000    0    18.998   14.659152   45.500444    2.142267
  14 F     9.0000    0    18.998   15.767043   47.263615    5.695570
  15 F     9.0000    0    18.998   12.475698   44.819719    8.318025
  16 F     9.0000    0    18.998   10.254776   43.708483    5.014109
  17 F     9.0000    0    18.998   16.578537   42.020330    6.057030
  18 F     9.0000    0    18.998   14.938234   37.464412    5.443316
  19 F     9.0000    0    18.998   10.981533   38.681352    5.254591
  20 F     9.0000    0    18.998   11.897098   40.928465    0.704104
  21 F     9.0000    0    18.998   15.859544   39.818221    0.942739
  22 O     8.0000    0    15.999   14.586089   34.978969    0.294234
  23 O     8.0000    0    15.999   10.514867   36.151568    0.036349
  24 O     8.0000    0    15.999    6.270933   39.119901    0.813886
  25 H     1.0000    0     1.008    5.138033   37.845082    1.440383
  26 H     1.0000    0     1.008    7.860767   38.217918    0.551377
  27 H     1.0000    0     1.008   17.752843   35.330480    1.412780
  28 O     8.0000    0    15.999   19.504702   35.368377    1.999799
  29 H     1.0000    0     1.008   19.643994   36.960719    2.862393

--------------------------------
INTERNAL COORDINATES (ANGSTROEM)
--------------------------------
 C      0   0   0     0.000000000000     0.00000000     0.00000000
 C      1   0   0     1.553176829187     0.00000000     0.00000000
 C      2   1   0     1.554330632730   113.74614551     0.00000000
 C      3   2   1     1.563199850318   113.52883285   161.77698970
 C      4   3   2     1.490893116132   112.66827357   161.36715279
 C      5   4   3     1.498253703348   128.34510917   241.66307078
 C      6   5   4     1.546306899609   114.82379551    80.24264250
 C      7   6   5     1.565333287085   113.41082527   177.03102337
 F      1   2   3     1.328988130802   110.54977078    48.03635499
 F      1   2   3     1.326231913350   110.77891279   286.95547739
 F      1   2   3     1.327716091086   108.89779928   167.54062612
 F      2   1   3     1.342106769835   107.52624359   121.87142631
 F      2   1   3     1.339630424352   107.86138862   239.29362953
 F      3   2   1     1.343143369029   108.18410594   282.48441679
 F      3   2   1     1.343205165932   109.25047537    40.35465268
 F      4   3   2     1.356479157268   106.89160773   282.42809428
 F      4   3   2     1.344496080590   108.73426390    38.96045116
 F      5   4   3     1.321590723976   114.65423308    48.62436512
 F      6   5   4     1.353638789592   107.52440368   200.08608623
 F      6   5   4     1.349585913922   109.77094360   317.84504911
 F      7   6   5     1.355801281372   107.11467814   300.10045815
 F      7   6   5     1.359752314893   106.41853185    54.14845948
 O      8   7   6     1.238999950856   115.12137835   271.06261378
 O      8   7   6     1.238926040918   114.83230538    90.23312032
 O     24   8   7     2.771319608950   132.93099240   354.84833322
 H     25  24   8     0.961461889954    99.13715286   224.17049555
 H     25  24   8     0.977196705527     5.35701984    21.44378724
 H     23   8   7     1.786945781914   128.60803574     8.75708049
 O     28  23   8     0.977910060599   175.11137084   164.76635285
 H     29  28  23     0.961155795116   103.97721338   195.13028977

---------------------------
INTERNAL COORDINATES (A.U.)
---------------------------
 C      0   0   0     0.000000000000     0.00000000     0.00000000
 C      1   0   0     2.935078844715     0.00000000     0.00000000
 C      2   1   0     2.937259217424   113.74614551     0.00000000
 C      3   2   1     2.954019609688   113.52883285   161.77698970
 C      4   3   2     2.817379684437   112.66827357   161.36715279
 C      5   4   3     2.831289178460   128.34510917   241.66307078
 C      6   5   4     2.922096559254   114.82379551    80.24264250
 C      7   6   5     2.958051220902   113.41082527   177.03102337
 F      1   2   3     2.511423602448   110.54977078    48.03635499
 F      1   2   3     2.506215106299   110.77891279   286.95547739
 F      1   2   3     2.509019795754   108.89779928   167.54062612
 F      2   1   3     2.536214237470   107.52624359   121.87142631
 F      2   1   3     2.531534622694   107.86138862   239.29362953
 F      3   2   1     2.538173126057   108.18410594   282.48441679
 F      3   2   1     2.538289905279   109.25047537    40.35465268
 F      4   3   2     2.563374113608   106.89160773   282.42809428
 F      4   3   2     2.540729380445   108.73426390    38.96045116
 F      5   4   3     2.497444529446   114.65423308    48.62436512
 F      6   5   4     2.558006596582   107.52440368   200.08608623
 F      6   5   4     2.550347771511   109.77094360   317.84504911
 F      7   6   5     2.562093113812   107.11467814   300.10045815
 F      7   6   5     2.569559485113   106.41853185    54.14845948
 O      8   7   6     2.341370587060   115.12137835   271.06261378
 O      8   7   6     2.341230917519   114.83230538    90.23312032
 O     24   8   7     5.237035090481   132.93099240   354.84833322
 H     25  24   8     1.816899660215    99.13715286   224.17049555
 H     25  24   8     1.846634152416     5.35701984    21.44378724
 H     23   8   7     3.376838143984   128.60803574     8.75708049
 O     28  23   8     1.847982198139   175.11137084   164.76635285
 H     29  28  23     1.816321224801   103.97721338   195.13028977

---------------------
BASIS SET INFORMATION
---------------------
There are 4 groups of distinct atoms

 Group   1 Type C   : 11s6p2d1f contracted to 5s3p2d1f pattern {62111/411/11/1}
 Group   2 Type F   : 11s6p2d1f contracted to 5s3p2d1f pattern {62111/411/11/1}
 Group   3 Type O   : 11s6p2d1f contracted to 5s3p2d1f pattern {62111/411/11/1}
 Group   4 Type H   : 5s1p contracted to 3s1p pattern {311/1}

Atom   0C    basis set group =>   1
Atom   1C    basis set group =>   1
Atom   2C    basis set group =>   1
Atom   3C    basis set group =>   1
Atom   4C    basis set group =>   1
Atom   5C    basis set group =>   1
Atom   6C    basis set group =>   1
Atom   7C    basis set group =>   1
Atom   8F    basis set group =>   2
Atom   9F    basis set group =>   2
Atom  10F    basis set group =>   2
Atom  11F    basis set group =>   2
Atom  12F    basis set group =>   2
Atom  13F    basis set group =>   2
Atom  14F    basis set group =>   2
Atom  15F    basis set group =>   2
Atom  16F    basis set group =>   2
Atom  17F    basis set group =>   2
Atom  18F    basis set group =>   2
Atom  19F    basis set group =>   2
Atom  20F    basis set group =>   2
Atom  21F    basis set group =>   2
Atom  22O    basis set group =>   3
Atom  23O    basis set group =>   3
Atom  24O    basis set group =>   3
Atom  25H    basis set group =>   4
Atom  26H    basis set group =>   4
Atom  27H    basis set group =>   4
Atom  28O    basis set group =>   3
Atom  29H    basis set group =>   4
---------------------------------
AUXILIARY/J BASIS SET INFORMATION
---------------------------------
There are 4 groups of distinct atoms

 Group   1 Type C   : 12s5p4d2f1g contracted to 6s4p3d1f1g pattern {711111/2111/211/2/1}
 Group   2 Type F   : 12s5p4d2f1g contracted to 6s4p3d1f1g pattern {711111/2111/211/2/1}
 Group   3 Type O   : 12s5p4d2f1g contracted to 6s4p3d1f1g pattern {711111/2111/211/2/1}
 Group   4 Type H   : 5s2p1d contracted to 3s1p1d pattern {311/2/1}

Atom   0C    basis set group =>   1
Atom   1C    basis set group =>   1
Atom   2C    basis set group =>   1
Atom   3C    basis set group =>   1
Atom   4C    basis set group =>   1
Atom   5C    basis set group =>   1
Atom   6C    basis set group =>   1
Atom   7C    basis set group =>   1
Atom   8F    basis set group =>   2
Atom   9F    basis set group =>   2
Atom  10F    basis set group =>   2
Atom  11F    basis set group =>   2
Atom  12F    basis set group =>   2
Atom  13F    basis set group =>   2
Atom  14F    basis set group =>   2
Atom  15F    basis set group =>   2
Atom  16F    basis set group =>   2
Atom  17F    basis set group =>   2
Atom  18F    basis set group =>   2
Atom  19F    basis set group =>   2
Atom  20F    basis set group =>   2
Atom  21F    basis set group =>   2
Atom  22O    basis set group =>   3
Atom  23O    basis set group =>   3
Atom  24O    basis set group =>   3
Atom  25H    basis set group =>   4
Atom  26H    basis set group =>   4
Atom  27H    basis set group =>   4
Atom  28O    basis set group =>   3
Atom  29H    basis set group =>   4


           ************************************************************
           *        Program running with 20 parallel MPI-processes    *
           *              working on a common directory               *
           ************************************************************
------------------------------------------------------------------------------
                             ORCA STARTUP CALCULATIONS
                           -- RI-GTO INTEGRALS CHOSEN --
------------------------------------------------------------------------------
------------------------------------------------------------------------------
                   ___                                                        
                  /   \      - P O W E R E D   B Y -                         
                 /     \                                                     
                 |  |  |   _    _      __       _____    __    __             
                 |  |  |  | |  | |    /  \     |  _  \  |  |  /  |          
                  \  \/   | |  | |   /    \    | | | |  |  | /  /          
                 / \  \   | |__| |  /  /\  \   | |_| |  |  |/  /          
                |  |  |   |  __  | /  /__\  \  |    /   |      \           
                |  |  |   | |  | | |   __   |  |    \   |  |\   \          
                \     /   | |  | | |  |  |  |  | |\  \  |  | \   \       
                 \___/    |_|  |_| |__|  |__|  |_| \__\ |__|  \__/        
                                                                              
                      - O R C A' S   B I G   F R I E N D -                    
                                      &                                       
                       - I N T E G R A L  F E E D E R -                       
                                                                              
 v1 FN, 2020, v2 2021, v3 2022-2024                                           
------------------------------------------------------------------------------


----------------------
SHARK INTEGRAL PACKAGE
----------------------

Number of atoms                             ...     30
Number of basis functions                   ...    830
Number of shells                            ...    302
Maximum angular momentum                    ...      3
Integral batch strategy                     ... SHARK/LIBINT Hybrid
RI-J (if used) integral strategy            ... SPLIT-RIJ (Revised 2003 algorithm where possible)
Printlevel                                  ...      1
Contraction scheme used                     ... SEGMENTED contraction
Prescreening option                         ... SCHWARTZ
   Thresh                                   ... 2.500e-11
   Tcut                                     ... 2.500e-12
   Tpresel                                  ... 2.500e-12 
Coulomb Range Separation                    ... NOT USED
Exchange Range Separation                   ... NOT USED
Multipole approximations                    ... NOT USED
Finite Nucleus Model                        ... NOT USED
CABS basis                                  ... NOT available
Auxiliary Coulomb fitting basis             ... AVAILABLE
   # of basis functions in Aux-J            ...   1318
   # of shells in Aux-J                     ...    410
   Maximum angular momentum in Aux-J        ...      4
Auxiliary J/K fitting basis                 ... NOT available
Auxiliary Correlation fitting basis         ... NOT available
Auxiliary 'external' fitting basis          ... NOT available

Checking pre-screening integrals            ... done (  0.0 sec) Dimension = 302
Check shell pair data                       ... done (  0.0 sec)
Shell pair information
Shell pair cut-off parameter TPreSel        ...   2.5e-12
Total number of shell pairs                 ...     45753
Shell pairs after pre-screening             ...     27870
Total number of primitive shell pairs       ...    148824
Primitive shell pairs kept                  ...     57518
          la=0 lb=0:   5688 shell pairs
          la=1 lb=0:   7780 shell pairs
          la=1 lb=1:   2587 shell pairs
          la=2 lb=0:   4078 shell pairs
          la=2 lb=1:   2849 shell pairs
          la=2 lb=2:    769 shell pairs
          la=3 lb=0:   1863 shell pairs
          la=3 lb=1:   1384 shell pairs
          la=3 lb=2:    698 shell pairs
          la=3 lb=3:    174 shell pairs

Calculating one electron integrals          ... done (  0.0 sec)
Calculating RI/J V-Matrix + Cholesky decomp.... done (  0.1 sec)
Calculating Nuclear repulsion               ... done (  0.0 sec) ENN=   3106.374501527138 Eh

Diagonalization of the overlap matrix:
Smallest eigenvalue                        ... 6.426e-05
Time for diagonalization                   ...    0.125 sec
Threshold for overlap eigenvalues          ... 1.000e-07
Number of eigenvalues below threshold      ... 0
Time for construction of square roots      ...    0.055 sec
Total time needed                          ...    0.186 sec

-------------------
DFT GRID GENERATION
-------------------

General Integration Accuracy     IntAcc      ... 4.388
Radial Grid Type                 RadialGrid  ... OptM3 with GC (2021)
Angular Grid (max. ang.)         AngularGrid ... 4 (Lebedev-302)
Angular grid pruning method      GridPruning ... 4 (adaptive)
Weight generation scheme         WeightScheme... mBecke (2022)
Basis function cutoff            BFCut       ... 1.0000e-11
Integration weight cutoff        WCut        ... 1.0000e-14
Partially contracted basis set               ... off
Rotationally invariant grid construction     ... off
Angular grids for H and He will be reduced by one unit

Total number of grid points                  ...   170384
Total number of batches                      ...     2679
Average number of points per batch           ...       63
Average number of grid points per atom       ...     5679

--------------------
COSX GRID GENERATION
--------------------

GRIDX 1
-------
General Integration Accuracy     IntAcc      ... 3.816
Radial Grid Type                 RadialGrid  ... OptM3 with GC (2021)
Angular Grid (max. ang.)         AngularGrid ... 1 (Lebedev-50)
Angular grid pruning method      GridPruning ... 4 (adaptive)
Weight generation scheme         WeightScheme... mBecke (2022)
Basis function cutoff            BFCut       ... 1.0000e-11
Integration weight cutoff        WCut        ... 1.0000e-14
Partially contracted basis set               ... on
Rotationally invariant grid construction     ... off
Angular grids for H and He will be reduced by one unit

Total number of grid points                  ...    21474
Total number of batches                      ...      182
Average number of points per batch           ...      117
Average number of grid points per atom       ...      716
UseSFitting                                  ... on

GRIDX 2
-------
General Integration Accuracy     IntAcc      ... 4.020
Radial Grid Type                 RadialGrid  ... OptM3 with GC (2021)
Angular Grid (max. ang.)         AngularGrid ... 2 (Lebedev-110)
Angular grid pruning method      GridPruning ... 4 (adaptive)
Weight generation scheme         WeightScheme... mBecke (2022)
Basis function cutoff            BFCut       ... 1.0000e-11
Integration weight cutoff        WCut        ... 1.0000e-14
Partially contracted basis set               ... on
Rotationally invariant grid construction     ... off
Angular grids for H and He will be reduced by one unit

Total number of grid points                  ...    49677
Total number of batches                      ...      400
Average number of points per batch           ...      124
Average number of grid points per atom       ...     1656
UseSFitting                                  ... on

GRIDX 3
-------
General Integration Accuracy     IntAcc      ... 4.338
Radial Grid Type                 RadialGrid  ... OptM3 with GC (2021)
Angular Grid (max. ang.)         AngularGrid ... 3 (Lebedev-194)
Angular grid pruning method      GridPruning ... 4 (adaptive)
Weight generation scheme         WeightScheme... mBecke (2022)
Basis function cutoff            BFCut       ... 1.0000e-11
Integration weight cutoff        WCut        ... 1.0000e-14
Partially contracted basis set               ... on
Rotationally invariant grid construction     ... off
Angular grids for H and He will be reduced by one unit

Total number of grid points                  ...   109709
Total number of batches                      ...      873
Average number of points per batch           ...      125
Average number of grid points per atom       ...     3657
UseSFitting                                  ... on
Initializing property integral containers    ... done (  0.0 sec)

SHARK setup successfully completed in   3.1 seconds

Maximum memory used throughout the entire STARTUP-calculation: 68.2 MB


           ************************************************************
           *        Program running with 20 parallel MPI-processes    *
           *              working on a common directory               *
           ************************************************************
-------------------------------------------------------------------------------
                                 ORCA GUESS
                   Start orbitals & Density for SCF / CASSCF
-------------------------------------------------------------------------------

------------
SCF SETTINGS
------------
Hamiltonian:
 Density Functional     Method          .... DFT(GTOs)
  Functional kind                       .... Exchange
  Functional name                       .... Re-regularized SCAN exchange by Furness et al
  Functional family                     .... MGGA
  Functional refs                              
    [ 0] J. W. Furness, A. D. Kaplan, J. Ning, J. P. Perdew, and J. Sun.,  J. Phys. Chem. Lett. 11, 8208-8215 (2020), doi: 10.1021/acs.jpclett.0c02405
    [ 1] J. W. Furness, A. D. Kaplan, J. Ning, J. P. Perdew, and J. Sun.,  J. Phys. Chem. Lett. 11, 9248-9248 (2020), doi: 10.1021/acs.jpclett.0c03077
  Functional external parameters        .... 6
    Parameter  0 _c1        =  6.670000e-01 : c1 parameter        
    Parameter  1 _c2        =  8.000000e-01 : c2 parameter        
    Parameter  2 _d         =  1.240000e+00 : d parameter         
    Parameter  3 _k1        =  6.500000e-02 : k1 parameter        
    Parameter  4 _eta       =  1.000000e-03 : eta parameter       
    Parameter  5 _dp2       =  3.610000e-01 : dp2 parameter       
  Functional kind                       .... Correlation
  Functional name                       .... Re-regularized SCAN correlation by Furness et al
  Functional family                     .... MGGA
  Functional refs                              
    [ 0] J. W. Furness, A. D. Kaplan, J. Ning, J. P. Perdew, and J. Sun.,  J. Phys. Chem. Lett. 11, 8208-8215 (2020), doi: 10.1021/acs.jpclett.0c02405
    [ 1] J. W. Furness, A. D. Kaplan, J. Ning, J. P. Perdew, and J. Sun.,  J. Phys. Chem. Lett. 11, 9248-9248 (2020), doi: 10.1021/acs.jpclett.0c03077
  Functional external parameters        .... 1
    Parameter  0 _eta       =  1.000000e-03 : Regularization parameter
 Gradients option       PostSCFGGA      .... off
 Hybrid DFT is turned on
   Fraction HF Exchange ScalHFX         ....  0.100000
   Scaling of DF-GGA-X  ScalDFX         ....  0.900000
   Scaling of DF-GGA-C  ScalDFC         ....  1.000000
   Scaling of DF-LDA-C  ScalLDAC        ....  1.000000
   Perturbative correction              ....  0.000000
   NL short-range parameter             .... 11.900000
 RI-approximation to the Coulomb term is turned on
   Number of AuxJ basis functions       .... 1318
   RIJ-COSX (HFX calculated with COS-X)).... on


General Settings:
 Integral files         IntName         .... rf_mecn_2H2O_freq_r2s_con_02
 Hartree-Fock type      HFTyp           .... UHF
 Total Charge           Charge          ....   -1
 Multiplicity           Mult            ....    2
 Number of Electrons    NEL             ....  211
 Basis Dimension        Dim             ....  830
 Nuclear Repulsion      ENuc            ....   3106.3745015271 Eh

Convergence Acceleration:
 AO-DIIS                CNVDIIS         .... on
   Start iteration      DIISMaxIt       ....     0
   Startup error        DIISStart       ....  0.200000
   # of expansion vecs  DIISMaxEq       ....     5
   Bias factor          DIISBfac        ....   1.050
   Max. coefficient     DIISMaxC        ....  10.000
 MO-DIIS                CNVKDIIS        .... off
 Trust-Rad. Augm. Hess. CNVTRAH         .... auto
   Auto Start mean grad. ratio tolernc. ....  1.125000
   Auto Start start iteration           ....    50
   Auto Start num. interpolation iter.  ....    10
   Max. Number of Micro iterations      ....    24
   Max. Number of Macro iterations      .... Maxiter - #DIIS iter
   Number of Davidson start vectors     ....     2
   Converg. threshold    (grad. norm)   ....   1.000e-05
   Grad. Scal. Fac. for Micro threshold ....   0.100
   Minimum threshold for Micro iter.    ....   1.000e-02
   NR start threshold (gradient norm)   ....   1.000e-04
   Initial trust radius                 ....   0.400
   Minimum AH scaling param. (alpha)    ....   1.000
   Maximum AH scaling param. (alpha)    .... 1000.000
   Quad. conv. algorithm                .... NR
   White noise on init. David. guess    .... on
   Maximum white noise                  ....   0.010
   Pseudo random numbers                .... off
   Inactive MOs                         .... canonical
   Orbital update algorithm             .... Taylor
   Preconditioner                       .... Diag
   Full preconditioner red. dimension   ....   250
 SOSCF                  CNVSOSCF        .... on
   Start iteration      SOSCFMaxIt      ....   150
   Startup grad/error   SOSCFStart      ....  0.001000
   Hessian update       SOSCFHessUp     .... L-BFGS
 Level Shifting         CNVShift        .... on
   Level shift para.    LevelShift      ....    0.2500
   Turn off err/grad.   ShiftErr        ....    0.0000
 Zerner damping         CNVZerner       .... off
 Static damping         CNVDamp         .... on
   Fraction old density DampFac         ....    0.8500
   Max. Damping (<1)    DampMax         ....    0.9800
   Min. Damping (>=0)   DampMin         ....    0.0000
   Turn off err/grad.   DampErr         ....    0.0300

SCF Procedure:
 Maximum # iterations   MaxIter         ....  1500
 SCF integral mode      SCFMode         .... Direct
   Integral package                     .... SHARK and LIBINT hybrid scheme
 Reset frequency        DirectResetFreq ....    20
 Integral Threshold     Thresh          ....  2.500e-11 Eh
 Primitive CutOff       TCut            ....  2.500e-12 Eh

Convergence Tolerance:
 Convergence Check Mode ConvCheckMode   .... Total+1el-Energy
 Convergence forced     ConvForced      .... 0
 Energy Change          TolE            ....  1.000e-08 Eh
 1-El. energy change                    ....  1.000e-05 Eh
 Orbital Gradient       TolG            ....  1.000e-05
 Orbital Rotation angle TolX            ....  1.000e-05
 DIIS Error             TolErr          ....  5.000e-07

------------------------------
INITIAL GUESS: MODEL POTENTIAL
------------------------------
Loading Hartree-Fock densities                     ... done
Calculating cut-offs                               ... done
Initializing the effective Hamiltonian             ... done
Setting up the integral package (SHARK)            ... done
Starting the Coulomb interaction                   ... done (   0.2 sec)
Making the grid                                    ... done (   0.4 sec)
Mapping shells                                     ... done
Starting the XC term evaluation                    ... done (   0.2 sec)
  promolecular density results
     # of electrons  =    210.000493938
     EX              =   -214.736485476
     EC              =     -7.330344585
     EX+EC           =   -222.066830061
Transforming the Hamiltonian                       ... done (   0.1 sec)
Diagonalizing the Hamiltonian                      ... done (   0.1 sec)
Back transforming the eigenvectors                 ... done (   0.1 sec)
Now organizing SCF variables                       ... done
                      ------------------
                      INITIAL GUESS DONE (   1.2 sec)
                      ------------------
             **** ENERGY FILE WAS UPDATED (rf_mecn_2H2O_freq_r2s_con_02.en.tmp) ****
Finished Guess after   1.9 sec
Maximum memory used throughout the entire GUESS-calculation: 57.0 MB


           ************************************************************
           *        Program running with 20 parallel MPI-processes    *
           *              working on a common directory               *
           ************************************************************

-------------------------------------------------------------------------------------------
                                      ORCA LEAN-SCF
                              memory conserving SCF solver
-------------------------------------------------------------------------------------------

--------------------
CPCM SOLVATION MODEL
--------------------
CPCM parameters:
  Epsilon                                         ...      35.6880
  Refrac                                          ...       1.3442
  Rsolv                                           ...       1.3000
  Surface type                                    ... GAUSSIAN VDW
  Discretization scheme                           ... Constant charge density
    Threshold for H atoms                         ...       5.0000 (charges/Ang^2)
    Threshold for non-H atoms                     ...       5.0000 (charges/Ang^2)
  Epsilon function type                           ...         CPCM
Solvent:                                          ... ACETONITRILE
SMD-CDS solvent descriptors:
  Soln                                            ...       1.3442
  Soln25                                          ...       1.3416
  Sola                                            ...       0.0700
  Solb                                            ...       0.3200
  Solg                                            ...      41.2500
  Solc                                            ...       0.0000
  Solh                                            ...       0.0000
Radii:
  Scheme                                          ... Element-dependent radii
  Radius for C  used is    3.4960 Bohr (=   1.8500 Ang.)
  Radius for F  used is    3.2692 Bohr (=   1.7300 Ang.)
  Radius for O  used is    4.0969 Bohr (=   2.1680 Ang.)
  Radius for H  used is    2.2677 Bohr (=   1.2000 Ang.)
Calculating surface                               ...        done! (  0.0s)
Cavity surface points                             ...         2560
Cavity Volume                                     ...    2545.0351
Cavity Surface-area                               ...    1293.7756
Calculating surface distance matrix               ...        done! (  0.0s)
Performing Cholesky decomposition & store         ...        done! (  0.2s)
Overall time for CPCM initialization              ...                 0.2s

----------------------------------------D-I-I-S--------------------------------------------
Iteration    Energy (Eh)           Delta-E    RMSDP     MaxDP     DIISErr   Damp  Time(sec)
-------------------------------------------------------------------------------------------
               ***  Starting incremental Fock matrix formation  ***
    1    -2005.3939054861616569     0.00e+00  2.29e-04  1.47e-02  1.64e-01  0.850   8.7
Warning: op=0 Small HOMO/LUMO gap (   0.081) - skipping pre-diagonalization
         Will do a full diagonalization
    2    -2005.5688610755473746    -1.75e-01  2.56e-04  3.19e-02  1.17e-01  0.850   5.5
                               ***Turning on AO-DIIS***
    3    -2005.6678861475070335    -9.90e-02  1.32e-04  1.85e-02  7.43e-02  0.850   4.7
    4    -2005.7284075357197253    -6.05e-02  8.01e-05  8.62e-03  5.63e-02  0.850   4.6
    5    -2005.7716579783668749    -4.33e-02  5.77e-05  4.86e-03  4.60e-02  0.850   4.5
    6    -2005.8058228609802427    -3.42e-02  4.74e-05  4.76e-03  3.89e-02  0.850   4.3
    7    -2005.8340688501525619    -2.82e-02  4.19e-05  4.49e-03  3.33e-02  0.850   4.3
    8    -2005.8577808329487198    -2.37e-02  3.67e-05  4.04e-03  2.83e-02  0.850   4.2
    9    -2005.8775478802522230    -1.98e-02  2.10e-04  2.34e-02  2.36e-02  0.000   4.2
   10    -2005.9813015403256031    -1.04e-01  1.42e-05  1.42e-03  3.25e-03  0.000   4.6
                              *** Initializing SOSCF ***
---------------------------------------S-O-S-C-F--------------------------------------
Iteration    Energy (Eh)           Delta-E    RMSDP     MaxDP     MaxGrad    Time(sec)
--------------------------------------------------------------------------------------
   11    -2005.9814473282917788    -1.46e-04  7.11e-06  8.45e-04  8.27e-04     5.1
               *** Restarting incremental Fock matrix formation ***
   12    -2005.9814560973786683    -8.77e-06  8.96e-06  6.41e-04  6.58e-04     7.6
   13    -2005.9814624971991179    -6.40e-06  5.30e-06  5.72e-04  3.44e-04     5.3
   14    -2005.9814695100353674    -7.01e-06  2.41e-06  1.99e-04  1.62e-04     5.3
   15    -2005.9814700891333814    -5.79e-07  9.23e-07  6.32e-05  7.20e-05     4.9
   16    -2005.9814701206446443    -3.15e-08  6.85e-07  6.59e-05  5.38e-05     4.3
   17    -2005.9814702277449214    -1.07e-07  3.91e-07  3.21e-05  3.37e-05     4.4
   18    -2005.9814702315047725    -3.76e-09  2.42e-07  2.07e-05  3.31e-05     3.9
                 **** Energy Check signals convergence ****

               *****************************************************
               *                     SUCCESS                       *
               *           SCF CONVERGED AFTER  18 CYCLES          *
               *****************************************************

Recomputing exchange energy using gridx3       ... done (    8.574 sec)
Old exchange energy                            :    -21.707104292 Eh
New exchange energy                            :    -21.707122557 Eh
Exchange energy change after final integration :     -0.000018264 Eh
Total energy after final integration           :  -2005.981488496 Eh

SMD CDS free energy correction energy :                 2.56164     Kcal/mol
Total Energy after SMD CDS correction =             -2005.977406268 Eh
             **** ENERGY FILE WAS UPDATED (rf_mecn_2H2O_freq_r2s_con_02.en.tmp) ****

----------------
TOTAL SCF ENERGY
----------------

Total Energy       :      -2005.97740626822406 Eh          -54585.42029 eV

Components:
Nuclear Repulsion  :       3106.37450152713836 Eh           84528.74755 eV
Electronic Energy  :      -5112.27555501005827 Eh         -139112.09017 eV
One Electron Energy:      -8997.97393057916452 Eh         -244847.31845 eV
Two Electron Energy:       3885.69837556910625 Eh          105735.22827 eV
CPCM Dielectric    :         -0.08041674858520 Eh              -2.18825 eV
SMD CDS (Gcds)     :          0.00408222758136 Eh               0.11108 eV

Virial components:
Potential Energy   :      -4005.23875000068392 Eh         -108988.08723 eV
Kinetic Energy     :       1999.26134373245986 Eh           54402.66694 eV
Virial Ratio       :          2.00335927194152

DFT components:
N(Alpha)           :      105.999918780597 electrons
N(Beta)            :      104.999901504468 electrons
N(Total)           :      210.999820285065 electrons
E(X)               :     -196.402153872243 Eh       
E(C)               :       -7.300442984429 Eh       
E(XC)              :     -203.702596856672 Eh       

CPCM Solvation Model Properties:
Surface-charge          :          0.99098468121981
Corrected charge        :          1.00000000000000
Outlying charge corr.   :          0.00000420281985 Eh               0.00011 eV
Free-energy (cav+disp)  :          0.00408222758136 Eh               0.11108 eV

---------------
SCF CONVERGENCE
---------------

  Last Energy change         ...    3.7599e-09  Tolerance :   1.0000e-08
  Last MAX-Density change    ...    2.0744e-05  Tolerance :   1.0000e-07
  Last RMS-Density change    ...    2.4245e-07  Tolerance :   5.0000e-09
  Last DIIS Error            ...    8.2726e-04  Tolerance :   5.0000e-07
  Last Orbital Gradient      ...    3.3115e-05  Tolerance :   1.0000e-05
  Last Orbital Rotation      ...    1.0294e-04  Tolerance :   1.0000e-05


----------------------
UHF SPIN CONTAMINATION
----------------------

Warning: in a DFT calculation there is little theoretical justification to 
         calculate <S**2> as in Hartree-Fock theory. We will do it anyways
         but you should keep in mind that the values have only limited relevance

Expectation value of <S**2>     :     0.757064
Ideal value S*(S+1) for S=0.5   :     0.750000
Deviation                       :     0.007064

----------------
ORBITAL ENERGIES
----------------
                 SPIN UP ORBITALS
  NO   OCC          E(Eh)            E(eV) 
   0   1.0000     -24.737830      -673.1506 
   1   1.0000     -24.731622      -672.9816 
   2   1.0000     -24.730413      -672.9488 
   3   1.0000     -24.730099      -672.9402 
   4   1.0000     -24.729882      -672.9343 
   5   1.0000     -24.729708      -672.9296 
   6   1.0000     -24.729164      -672.9148 
   7   1.0000     -24.728917      -672.9080 
   8   1.0000     -24.725107      -672.8044 
   9   1.0000     -24.717097      -672.5864 
  10   1.0000     -24.709265      -672.3733 
  11   1.0000     -24.709139      -672.3699 
  12   1.0000     -24.695163      -671.9895 
  13   1.0000     -24.694643      -671.9754 
  14   1.0000     -19.075380      -519.0675 
  15   1.0000     -19.074817      -519.0522 
  16   1.0000     -19.071872      -518.9720 
  17   1.0000     -19.071490      -518.9616 
  18   1.0000     -10.439057      -284.0612 
  19   1.0000     -10.383759      -282.5565 
  20   1.0000     -10.382529      -282.5230 
  21   1.0000     -10.381497      -282.4949 
  22   1.0000     -10.364012      -282.0191 
  23   1.0000     -10.331851      -281.1440 
  24   1.0000     -10.301377      -280.3147 
  25   1.0000     -10.254788      -279.0470 
  26   1.0000      -1.360702       -37.0266 
  27   1.0000      -1.331614       -36.2351 
  28   1.0000      -1.314642       -35.7732 
  29   1.0000      -1.309352       -35.6293 
  30   1.0000      -1.303433       -35.4682 
  31   1.0000      -1.291115       -35.1330 
  32   1.0000      -1.277753       -34.7694 
  33   1.0000      -1.271644       -34.6032 
  34   1.0000      -1.266038       -34.4507 
  35   1.0000      -1.262563       -34.3561 
  36   1.0000      -1.255286       -34.1581 
  37   1.0000      -1.248124       -33.9632 
  38   1.0000      -1.239347       -33.7244 
  39   1.0000      -1.219966       -33.1970 
  40   1.0000      -1.052174       -28.6311 
  41   1.0000      -0.978678       -26.6312 
  42   1.0000      -0.975470       -26.5439 
  43   1.0000      -0.963658       -26.2225 
  44   1.0000      -0.851337       -23.1661 
  45   1.0000      -0.828827       -22.5535 
  46   1.0000      -0.790957       -21.5230 
  47   1.0000      -0.753047       -20.4915 
  48   1.0000      -0.712338       -19.3837 
  49   1.0000      -0.682782       -18.5794 
  50   1.0000      -0.656452       -17.8630 
  51   1.0000      -0.636992       -17.3334 
  52   1.0000      -0.634796       -17.2737 
  53   1.0000      -0.627315       -17.0701 
  54   1.0000      -0.613487       -16.6938 
  55   1.0000      -0.610217       -16.6048 
  56   1.0000      -0.609007       -16.5719 
  57   1.0000      -0.600291       -16.3348 
  58   1.0000      -0.592687       -16.1278 
  59   1.0000      -0.589152       -16.0316 
  60   1.0000      -0.582555       -15.8521 
  61   1.0000      -0.571687       -15.5564 
  62   1.0000      -0.569591       -15.4994 
  63   1.0000      -0.560596       -15.2546 
  64   1.0000      -0.544808       -14.8250 
  65   1.0000      -0.517677       -14.0867 
  66   1.0000      -0.504111       -13.7176 
  67   1.0000      -0.501186       -13.6380 
  68   1.0000      -0.495569       -13.4851 
  69   1.0000      -0.489597       -13.3226 
  70   1.0000      -0.486650       -13.2424 
  71   1.0000      -0.485067       -13.1993 
  72   1.0000      -0.482962       -13.1421 
  73   1.0000      -0.474560       -12.9134 
  74   1.0000      -0.468096       -12.7375 
  75   1.0000      -0.467281       -12.7154 
  76   1.0000      -0.463732       -12.6188 
  77   1.0000      -0.460147       -12.5212 
  78   1.0000      -0.456607       -12.4249 
  79   1.0000      -0.449828       -12.2404 
  80   1.0000      -0.448443       -12.2028 
  81   1.0000      -0.446512       -12.1502 
  82   1.0000      -0.444375       -12.0921 
  83   1.0000      -0.437609       -11.9079 
  84   1.0000      -0.435483       -11.8501 
  85   1.0000      -0.432730       -11.7752 
  86   1.0000      -0.428342       -11.6558 
  87   1.0000      -0.427107       -11.6222 
  88   1.0000      -0.425181       -11.5698 
  89   1.0000      -0.423541       -11.5251 
  90   1.0000      -0.420313       -11.4373 
  91   1.0000      -0.411997       -11.2110 
  92   1.0000      -0.409255       -11.1364 
  93   1.0000      -0.403669       -10.9844 
  94   1.0000      -0.395743       -10.7687 
  95   1.0000      -0.391712       -10.6590 
  96   1.0000      -0.362964        -9.8767 
  97   1.0000      -0.348506        -9.4833 
  98   1.0000      -0.345428        -9.3996 
  99   1.0000      -0.338417        -9.2088 
 100   1.0000      -0.273875        -7.4525 
 101   1.0000      -0.271305        -7.3826 
 102   1.0000      -0.267428        -7.2771 
 103   1.0000      -0.260878        -7.0989 
 104   1.0000      -0.247259        -6.7282 
 105   1.0000      -0.240203        -6.5363 
 106   0.0000      -0.009924        -0.2700 
 107   0.0000       0.006656         0.1811 
 108   0.0000       0.017254         0.4695 
 109   0.0000       0.038994         1.0611 
 110   0.0000       0.072684         1.9778 
 111   0.0000       0.078066         2.1243 
 112   0.0000       0.091670         2.4945 
 113   0.0000       0.095190         2.5902 
 114   0.0000       0.107543         2.9264 
 115   0.0000       0.116777         3.1777 
 116   0.0000       0.129279         3.5178 

                 SPIN DOWN ORBITALS
  NO   OCC          E(Eh)            E(eV) 
   0   1.0000     -24.732830      -673.0145 
   1   1.0000     -24.731625      -672.9817 
   2   1.0000     -24.730410      -672.9487 
   3   1.0000     -24.730102      -672.9403 
   4   1.0000     -24.729855      -672.9336 
   5   1.0000     -24.729579      -672.9261 
   6   1.0000     -24.729119      -672.9135 
   7   1.0000     -24.728908      -672.9078 
   8   1.0000     -24.725003      -672.8015 
   9   1.0000     -24.715653      -672.5471 
  10   1.0000     -24.708760      -672.3595 
  11   1.0000     -24.708714      -672.3583 
  12   1.0000     -24.695163      -671.9895 
  13   1.0000     -24.694629      -671.9750 
  14   1.0000     -19.075379      -519.0675 
  15   1.0000     -19.074816      -519.0521 
  16   1.0000     -19.071670      -518.9665 
  17   1.0000     -19.071274      -518.9557 
  18   1.0000     -10.439020      -284.0602 
  19   1.0000     -10.383685      -282.5544 
  20   1.0000     -10.382493      -282.5220 
  21   1.0000     -10.381929      -282.5066 
  22   1.0000     -10.365105      -282.0488 
  23   1.0000     -10.330964      -281.1198 
  24   1.0000     -10.284523      -279.8561 
  25   1.0000     -10.254691      -279.0443 
  26   1.0000      -1.360666       -37.0256 
  27   1.0000      -1.331042       -36.2195 
  28   1.0000      -1.314083       -35.7580 
  29   1.0000      -1.307833       -35.5880 
  30   1.0000      -1.301723       -35.4217 
  31   1.0000      -1.284233       -34.9458 
  32   1.0000      -1.277344       -34.7583 
  33   1.0000      -1.271593       -34.6018 
  34   1.0000      -1.266008       -34.4498 
  35   1.0000      -1.262325       -34.3496 
  36   1.0000      -1.255139       -34.1541 
  37   1.0000      -1.246399       -33.9162 
  38   1.0000      -1.238287       -33.6955 
  39   1.0000      -1.219856       -33.1940 
  40   1.0000      -1.051830       -28.6217 
  41   1.0000      -0.978596       -26.6290 
  42   1.0000      -0.975466       -26.5438 
  43   1.0000      -0.963322       -26.2133 
  44   1.0000      -0.841978       -22.9114 
  45   1.0000      -0.819019       -22.2866 
  46   1.0000      -0.789493       -21.4832 
  47   1.0000      -0.745518       -20.2866 
  48   1.0000      -0.708511       -19.2796 
  49   1.0000      -0.681975       -18.5575 
  50   1.0000      -0.651810       -17.7367 
  51   1.0000      -0.635195       -17.2845 
  52   1.0000      -0.633798       -17.2465 
  53   1.0000      -0.627146       -17.0655 
  54   1.0000      -0.612335       -16.6625 
  55   1.0000      -0.608989       -16.5714 
  56   1.0000      -0.602688       -16.4000 
  57   1.0000      -0.599273       -16.3071 
  58   1.0000      -0.591575       -16.0976 
  59   1.0000      -0.587177       -15.9779 
  60   1.0000      -0.581645       -15.8274 
  61   1.0000      -0.570217       -15.5164 
  62   1.0000      -0.568060       -15.4577 
  63   1.0000      -0.558662       -15.2020 
  64   1.0000      -0.544162       -14.8074 
  65   1.0000      -0.504653       -13.7323 
  66   1.0000      -0.500947       -13.6315 
  67   1.0000      -0.498006       -13.5514 
  68   1.0000      -0.491347       -13.3702 
  69   1.0000      -0.486630       -13.2419 
  70   1.0000      -0.486149       -13.2288 
  71   1.0000      -0.483245       -13.1498 
  72   1.0000      -0.480140       -13.0653 
  73   1.0000      -0.472879       -12.8677 
  74   1.0000      -0.466840       -12.7034 
  75   1.0000      -0.465941       -12.6789 
  76   1.0000      -0.462942       -12.5973 
  77   1.0000      -0.459719       -12.5096 
  78   1.0000      -0.456155       -12.4126 
  79   1.0000      -0.448753       -12.2112 
  80   1.0000      -0.447888       -12.1877 
  81   1.0000      -0.444017       -12.0823 
  82   1.0000      -0.441143       -12.0041 
  83   1.0000      -0.437183       -11.8963 
  84   1.0000      -0.435130       -11.8405 
  85   1.0000      -0.432348       -11.7648 
  86   1.0000      -0.427614       -11.6360 
  87   1.0000      -0.426519       -11.6062 
  88   1.0000      -0.424709       -11.5569 
  89   1.0000      -0.422569       -11.4987 
  90   1.0000      -0.419571       -11.4171 
  91   1.0000      -0.411524       -11.1981 
  92   1.0000      -0.407971       -11.1015 
  93   1.0000      -0.403316       -10.9748 
  94   1.0000      -0.394884       -10.7453 
  95   1.0000      -0.389596       -10.6014 
  96   1.0000      -0.359298        -9.7770 
  97   1.0000      -0.348400        -9.4804 
  98   1.0000      -0.344583        -9.3766 
  99   1.0000      -0.336061        -9.1447 
 100   1.0000      -0.273732        -7.4486 
 101   1.0000      -0.271283        -7.3820 
 102   1.0000      -0.260520        -7.0891 
 103   1.0000      -0.246927        -6.7192 
 104   1.0000      -0.246511        -6.7079 
 105   0.0000      -0.118879        -3.2349 
 106   0.0000      -0.007405        -0.2015 
 107   0.0000       0.009290         0.2528 
 108   0.0000       0.021408         0.5825 
 109   0.0000       0.043369         1.1801 
 110   0.0000       0.073808         2.0084 
 111   0.0000       0.081000         2.2041 
 112   0.0000       0.092250         2.5102 
 113   0.0000       0.101063         2.7501 
 114   0.0000       0.115236         3.1357 
 115   0.0000       0.128104         3.4859 
*Only the first 10 virtual orbitals were printed.

                    ********************************
                    * MULLIKEN POPULATION ANALYSIS *
                    ********************************

--------------------------------------------
MULLIKEN ATOMIC CHARGES AND SPIN POPULATIONS
--------------------------------------------
   0 C :    0.472187    0.001381
   1 C :    0.329149    0.002754
   2 C :    0.299100    0.014329
   3 C :    0.384687   -0.009037
   4 C :    0.068205    0.847644
   5 C :    0.372404   -0.036231
   6 C :    0.299577    0.031777
   7 C :    0.352094    0.002621
   8 F :   -0.156498   -0.000063
   9 F :   -0.154898    0.000032
  10 F :   -0.153847    0.000467
  11 F :   -0.163535   -0.000042
  12 F :   -0.160552    0.000212
  13 F :   -0.168877    0.000682
  14 F :   -0.166796    0.002146
  15 F :   -0.174658    0.024137
  16 F :   -0.173246    0.001195
  17 F :   -0.153709    0.087471
  18 F :   -0.185800    0.007286
  19 F :   -0.182946    0.007354
  20 F :   -0.209583    0.000601
  21 F :   -0.213205    0.000573
  22 O :   -0.530888    0.006112
  23 O :   -0.534407    0.006570
  24 O :   -0.742039    0.000013
  25 H :    0.337383   -0.000003
  26 H :    0.356272    0.000003
  27 H :    0.356107   -0.000050
  28 O :   -0.737323    0.000015
  29 H :    0.335643    0.000053
Sum of atomic charges         :   -1.0000000
Sum of atomic spin populations:    1.0000000

-----------------------------------------------------
MULLIKEN REDUCED ORBITAL CHARGES AND SPIN POPULATIONS
-----------------------------------------------------
CHARGE
  0 C s       :     3.021496  s :     3.021496
      pz      :     0.633969  p :     2.107749
      px      :     0.660966
      py      :     0.812814
      dz2     :     0.083141  d :     0.357956
      dxz     :     0.073424
      dyz     :     0.066123
      dx2y2   :     0.072468
      dxy     :     0.062801
      f0      :     0.006564  f :     0.040611
      f+1     :     0.007155
      f-1     :     0.004486
      f+2     :     0.006487
      f-2     :     0.007039
      f+3     :     0.004919
      f-3     :     0.003962

  1 C s       :     3.101783  s :     3.101783
      pz      :     0.597238  p :     2.252884
      px      :     0.734497
      py      :     0.921148
      dz2     :     0.078279  d :     0.288108
      dxz     :     0.055262
      dyz     :     0.064290
      dx2y2   :     0.032565
      dxy     :     0.057711
      f0      :     0.006181  f :     0.028076
      f+1     :     0.004327
      f-1     :     0.003050
      f+2     :     0.005226
      f-2     :     0.005007
      f+3     :     0.002316
      f-3     :     0.001969

  2 C s       :     3.148801  s :     3.148801
      pz      :     0.651193  p :     2.233900
      px      :     0.712673
      py      :     0.870034
      dz2     :     0.071356  d :     0.290206
      dxz     :     0.061290
      dyz     :     0.056192
      dx2y2   :     0.044773
      dxy     :     0.056595
      f0      :     0.004839  f :     0.027993
      f+1     :     0.005911
      f-1     :     0.002807
      f+2     :     0.004787
      f-2     :     0.003817
      f+3     :     0.003196
      f-3     :     0.002637

  3 C s       :     3.057093  s :     3.057093
      pz      :     0.666419  p :     2.233136
      px      :     0.673619
      py      :     0.893098
      dz2     :     0.056847  d :     0.297516
      dxz     :     0.073500
      dyz     :     0.065479
      dx2y2   :     0.041099
      dxy     :     0.060591
      f0      :     0.004509  f :     0.027567
      f+1     :     0.007026
      f-1     :     0.003335
      f+2     :     0.003138
      f-2     :     0.002889
      f+3     :     0.002920
      f-3     :     0.003750

  4 C s       :     3.247310  s :     3.247310
      pz      :     0.988366  p :     2.512973
      px      :     0.609642
      py      :     0.914965
      dz2     :     0.013711  d :     0.153526
      dxz     :     0.037223
      dyz     :     0.013462
      dx2y2   :     0.027566
      dxy     :     0.061565
      f0      :     0.002343  f :     0.017986
      f+1     :     0.001957
      f-1     :     0.001636
      f+2     :     0.003038
      f-2     :     0.001035
      f+3     :     0.002804
      f-3     :     0.005173

  5 C s       :     3.055438  s :     3.055438
      pz      :     0.906767  p :     2.252262
      px      :     0.599048
      py      :     0.746448
      dz2     :     0.057449  d :     0.292350
      dxz     :     0.056881
      dyz     :     0.045888
      dx2y2   :     0.069657
      dxy     :     0.062475
      f0      :     0.002535  f :     0.027545
      f+1     :     0.003906
      f-1     :     0.003364
      f+2     :     0.003864
      f-2     :     0.003516
      f+3     :     0.004724
      f-3     :     0.005637

  6 C s       :     3.141253  s :     3.141253
      pz      :     0.877313  p :     2.267834
      px      :     0.579268
      py      :     0.811252
      dz2     :     0.046439  d :     0.264590
      dxz     :     0.050621
      dyz     :     0.036535
      dx2y2   :     0.069403
      dxy     :     0.061592
      f0      :     0.002578  f :     0.026746
      f+1     :     0.003264
      f-1     :     0.002968
      f+2     :     0.003475
      f-2     :     0.003508
      f+3     :     0.005219
      f-3     :     0.005734

  7 C s       :     3.007704  s :     3.007704
      pz      :     0.802508  p :     2.357837
      px      :     0.686295
      py      :     0.869034
      dz2     :     0.010158  d :     0.257514
      dxz     :     0.074252
      dyz     :     0.022571
      dx2y2   :     0.075695
      dxy     :     0.074839
      f0      :     0.002461  f :     0.024852
      f+1     :     0.002291
      f-1     :     0.001333
      f+2     :     0.002399
      f-2     :     0.003380
      f+3     :     0.006317
      f-3     :     0.006671

  8 F s       :     3.924538  s :     3.924538
      pz      :     1.669112  p :     5.213856
      px      :     1.662725
      py      :     1.882019
      dz2     :     0.003208  d :     0.017338
      dxz     :     0.006916
      dyz     :     0.002261
      dx2y2   :     0.002646
      dxy     :     0.002307
      f0      :     0.000086  f :     0.000767
      f+1     :     0.000221
      f-1     :     0.000038
      f+2     :     0.000186
      f-2     :     0.000131
      f+3     :     0.000048
      f-3     :     0.000056

  9 F s       :     3.923134  s :     3.923134
      pz      :     1.601492  p :     5.213500
      px      :     1.806007
      py      :     1.806001
      dz2     :     0.004870  d :     0.017483
      dxz     :     0.004701
      dyz     :     0.004614
      dx2y2   :     0.001351
      dxy     :     0.001947
      f0      :     0.000126  f :     0.000781
      f+1     :     0.000179
      f-1     :     0.000171
      f+2     :     0.000098
      f-2     :     0.000159
      f+3     :     0.000027
      f-3     :     0.000021

 10 F s       :     3.922991  s :     3.922991
      pz      :     1.829994  p :     5.212668
      px      :     1.679596
      py      :     1.703078
      dz2     :     0.002117  d :     0.017409
      dxz     :     0.003207
      dyz     :     0.002710
      dx2y2   :     0.003535
      dxy     :     0.005841
      f0      :     0.000083  f :     0.000780
      f+1     :     0.000077
      f-1     :     0.000056
      f+2     :     0.000062
      f-2     :     0.000182
      f+3     :     0.000142
      f-3     :     0.000176

 11 F s       :     3.928124  s :     3.928124
      pz      :     1.595773  p :     5.217468
      px      :     1.734453
      py      :     1.887242
      dz2     :     0.004600  d :     0.017221
      dxz     :     0.006276
      dyz     :     0.002923
      dx2y2   :     0.001620
      dxy     :     0.001802
      f0      :     0.000116  f :     0.000722
      f+1     :     0.000249
      f-1     :     0.000071
      f+2     :     0.000123
      f-2     :     0.000118
      f+3     :     0.000020
      f-3     :     0.000026

 12 F s       :     3.926653  s :     3.926653
      pz      :     1.627715  p :     5.215840
      px      :     1.721575
      py      :     1.866550
      dz2     :     0.003991  d :     0.017324
      dxz     :     0.006115
      dyz     :     0.003130
      dx2y2   :     0.001856
      dxy     :     0.002232
      f0      :     0.000099  f :     0.000735
      f+1     :     0.000217
      f-1     :     0.000078
      f+2     :     0.000128
      f-2     :     0.000147
      f+3     :     0.000030
      f-3     :     0.000037

 13 F s       :     3.931336  s :     3.931336
      pz      :     1.545389  p :     5.219531
      px      :     1.831102
      py      :     1.843039
      dz2     :     0.005964  d :     0.017289
      dxz     :     0.004413
      dyz     :     0.004665
      dx2y2   :     0.000972
      dxy     :     0.001275
      f0      :     0.000169  f :     0.000721
      f+1     :     0.000175
      f-1     :     0.000179
      f+2     :     0.000070
      f-2     :     0.000106
      f+3     :     0.000012
      f-3     :     0.000009

 14 F s       :     3.928639  s :     3.928639
      pz      :     1.773888  p :     5.220230
      px      :     1.608131
      py      :     1.838211
      dz2     :     0.002383  d :     0.017209
      dxz     :     0.005349
      dyz     :     0.001993
      dx2y2   :     0.003452
      dxy     :     0.004032
      f0      :     0.000077  f :     0.000718
      f+1     :     0.000122
      f-1     :     0.000034
      f+2     :     0.000133
      f-2     :     0.000155
      f+3     :     0.000084
      f-3     :     0.000112

 15 F s       :     3.926934  s :     3.926934
      pz      :     1.478681  p :     5.230829
      px      :     1.885890
      py      :     1.866258
      dz2     :     0.007707  d :     0.016214
      dxz     :     0.003069
      dyz     :     0.004572
      dx2y2   :     0.000427
      dxy     :     0.000439
      f0      :     0.000273  f :     0.000681
      f+1     :     0.000123
      f-1     :     0.000213
      f+2     :     0.000034
      f-2     :     0.000034
      f+3     :     0.000002
      f-3     :     0.000002

 16 F s       :     3.931500  s :     3.931500
      pz      :     1.840602  p :     5.223934
      px      :     1.490960
      py      :     1.892372
      dz2     :     0.002183  d :     0.017102
      dxz     :     0.004723
      dyz     :     0.000632
      dx2y2   :     0.005570
      dxy     :     0.003994
      f0      :     0.000076  f :     0.000710
      f+1     :     0.000118
      f-1     :     0.000010
      f+2     :     0.000150
      f-2     :     0.000053
      f+3     :     0.000159
      f-3     :     0.000144

 17 F s       :     3.932626  s :     3.932626
      pz      :     1.840485  p :     5.201842
      px      :     1.466452
      py      :     1.894905
      dz2     :     0.002291  d :     0.018477
      dxz     :     0.005207
      dyz     :     0.000265
      dx2y2   :     0.006364
      dxy     :     0.004350
      f0      :     0.000081  f :     0.000764
      f+1     :     0.000139
      f-1     :     0.000012
      f+2     :     0.000134
      f-2     :     0.000021
      f+3     :     0.000209
      f-3     :     0.000169

 18 F s       :     3.926446  s :     3.926446
      pz      :     1.844636  p :     5.242347
      px      :     1.729222
      py      :     1.668489
      dz2     :     0.002278  d :     0.016318
      dxz     :     0.002481
      dyz     :     0.003126
      dx2y2   :     0.003077
      dxy     :     0.005356
      f0      :     0.000073  f :     0.000689
      f+1     :     0.000060
      f-1     :     0.000076
      f+2     :     0.000042
      f-2     :     0.000162
      f+3     :     0.000147
      f-3     :     0.000129

 19 F s       :     3.927957  s :     3.927957
      pz      :     1.863074  p :     5.237780
      px      :     1.505944
      py      :     1.868763
      dz2     :     0.002298  d :     0.016511
      dxz     :     0.004461
      dyz     :     0.000648
      dx2y2   :     0.005280
      dxy     :     0.003824
      f0      :     0.000071  f :     0.000698
      f+1     :     0.000129
      f-1     :     0.000013
      f+2     :     0.000122
      f-2     :     0.000052
      f+3     :     0.000162
      f-3     :     0.000148

 20 F s       :     3.930913  s :     3.930913
      pz      :     1.848481  p :     5.261760
      px      :     1.735512
      py      :     1.677767
      dz2     :     0.002321  d :     0.016228
      dxz     :     0.002545
      dyz     :     0.002952
      dx2y2   :     0.003122
      dxy     :     0.005287
      f0      :     0.000068  f :     0.000682
      f+1     :     0.000059
      f-1     :     0.000074
      f+2     :     0.000042
      f-2     :     0.000158
      f+3     :     0.000154
      f-3     :     0.000129

 21 F s       :     3.926312  s :     3.926312
      pz      :     1.875120  p :     5.270289
      px      :     1.523798
      py      :     1.871372
      dz2     :     0.002247  d :     0.015934
      dxz     :     0.004053
      dyz     :     0.000661
      dx2y2   :     0.004899
      dxy     :     0.004073
      f0      :     0.000062  f :     0.000670
      f+1     :     0.000119
      f-1     :     0.000015
      f+2     :     0.000105
      f-2     :     0.000051
      f+3     :     0.000154
      f-3     :     0.000164

 22 O s       :     3.847452  s :     3.847452
      pz      :     1.571135  p :     4.653582
      px      :     1.477421
      py      :     1.605026
      dz2     :     0.002832  d :     0.028009
      dxz     :     0.005232
      dyz     :     0.004054
      dx2y2   :     0.007616
      dxy     :     0.008275
      f0      :     0.000203  f :     0.001845
      f+1     :     0.000170
      f-1     :     0.000112
      f+2     :     0.000040
      f-2     :     0.000358
      f+3     :     0.000508
      f-3     :     0.000454

 23 O s       :     3.843234  s :     3.843234
      pz      :     1.560799  p :     4.661443
      px      :     1.342789
      py      :     1.757854
      dz2     :     0.003207  d :     0.027880
      dxz     :     0.008575
      dyz     :     0.000796
      dx2y2   :     0.007461
      dxy     :     0.007841
      f0      :     0.000177  f :     0.001850
      f+1     :     0.000308
      f-1     :     0.000024
      f+2     :     0.000364
      f-2     :     0.000069
      f+3     :     0.000422
      f-3     :     0.000485

 24 O s       :     3.807922  s :     3.807922
      pz      :     1.886093  p :     4.913359
      px      :     1.400150
      py      :     1.627115
      dz2     :     0.003104  d :     0.019543
      dxz     :     0.000695
      dyz     :     0.003573
      dx2y2   :     0.001820
      dxy     :     0.010350
      f0      :     0.000248  f :     0.001216
      f+1     :     0.000250
      f-1     :     0.000127
      f+2     :     0.000051
      f-2     :     0.000235
      f+3     :     0.000058
      f-3     :     0.000247

 25 H s       :     0.614770  s :     0.614770
      pz      :     0.017255  p :     0.047846
      px      :     0.014808
      py      :     0.015783

 26 H s       :     0.590025  s :     0.590025
      pz      :     0.014919  p :     0.053703
      px      :     0.023354
      py      :     0.015430

 27 H s       :     0.589445  s :     0.589445
      pz      :     0.015848  p :     0.054447
      px      :     0.027356
      py      :     0.011243

 28 O s       :     3.805037  s :     3.805037
      pz      :     1.788612  p :     4.911748
      px      :     1.562469
      py      :     1.560667
      dz2     :     0.002040  d :     0.019331
      dxz     :     0.001987
      dyz     :     0.004346
      dx2y2   :     0.009745
      dxy     :     0.001213
      f0      :     0.000304  f :     0.001208
      f+1     :     0.000101
      f-1     :     0.000079
      f+2     :     0.000460
      f-2     :     0.000064
      f+3     :     0.000138
      f-3     :     0.000062

 29 H s       :     0.616406  s :     0.616406
      pz      :     0.017068  p :     0.047951
      px      :     0.012488
      py      :     0.018395


SPIN
  0 C s       :     0.000625  s :     0.000625
      pz      :     0.000122  p :     0.000717
      px      :     0.000416
      py      :     0.000180
      dz2     :    -0.000010  d :     0.000031
      dxz     :     0.000011
      dyz     :    -0.000002
      dx2y2   :    -0.000032
      dxy     :     0.000063
      f0      :     0.000001  f :     0.000008
      f+1     :    -0.000001
      f-1     :    -0.000000
      f+2     :    -0.000000
      f-2     :    -0.000000
      f+3     :     0.000002
      f-3     :     0.000007

  1 C s       :    -0.000083  s :    -0.000083
      pz      :     0.000302  p :     0.002293
      px      :     0.001393
      py      :     0.000597
      dz2     :     0.000041  d :     0.000518
      dxz     :     0.000044
      dyz     :     0.000109
      dx2y2   :     0.000327
      dxy     :    -0.000003
      f0      :     0.000004  f :     0.000027
      f+1     :     0.000005
      f-1     :     0.000005
      f+2     :     0.000000
      f-2     :     0.000004
      f+3     :    -0.000002
      f-3     :     0.000010

  2 C s       :    -0.000845  s :    -0.000845
      pz      :     0.010302  p :     0.014589
      px      :     0.003524
      py      :     0.000762
      dz2     :     0.000016  d :     0.000562
      dxz     :     0.000137
      dyz     :     0.000190
      dx2y2   :     0.000086
      dxy     :     0.000133
      f0      :    -0.000004  f :     0.000024
      f+1     :     0.000001
      f-1     :     0.000029
      f+2     :    -0.000005
      f-2     :    -0.000001
      f+3     :    -0.000000
      f-3     :     0.000004

  3 C s       :    -0.017938  s :    -0.017938
[...]
 43:    418.68   0.006425   32.47  0.004789  ( 0.068427  0.002507 -0.010031)
 44:    425.05   0.004977   25.15  0.003654  ( 0.050659  0.032484  0.005708)
 45:    445.85   0.012885   65.12  0.009019  (-0.071576 -0.033627 -0.052584)
 46:    463.88   0.003194   16.14  0.002149  ( 0.022740  0.040021  0.005462)
 47:    517.02   0.001452    7.34  0.000876  (-0.012195 -0.011229 -0.024522)
 48:    535.51   0.004783   24.17  0.002787  ( 0.031998 -0.041706 -0.004869)
 49:    557.66   0.001798    9.09  0.001006  ( 0.006645 -0.008330  0.029881)
 50:    572.92   0.003535   17.86  0.001925  (-0.012330 -0.031819  0.027584)
 51:    583.51   0.005278   26.67  0.002823  (-0.027857 -0.042437  0.015678)
 52:    585.45   0.006735   34.03  0.003590  (-0.012184  0.048354  0.033216)
 53:    606.57   0.006243   31.55  0.003212  (-0.000408  0.052702  0.020832)
 54:    627.94   0.004729   23.90  0.002350  ( 0.008319  0.046416  0.011253)
 55:    661.84   0.001151    5.82  0.000543  (-0.005115 -0.015682  0.016448)
 56:    683.31   0.022346  112.93  0.010205  ( 0.036561  0.033145 -0.088148)
 57:    695.83   0.022862  115.54  0.010253  (-0.028241  0.078118 -0.057908)
 58:    699.30   0.035449  179.15  0.015819  ( 0.041173  0.086672  0.081314)
 59:    711.81   0.005568   28.14  0.002441  (-0.004650  0.015678 -0.046622)
 60:    734.03   0.019856  100.34  0.008441  (-0.020140  0.065643 -0.061047)
 61:    782.42   0.006565   33.17  0.002618  (-0.016569  0.045982 -0.015142)
 62:    817.29   0.022922  115.84  0.008752  ( 0.037149  0.072097  0.046629)
 63:    892.09   0.011697   59.11  0.004092  (-0.006970  0.040188 -0.049277)
 64:    996.30   0.000155    0.78  0.000048  (-0.001711 -0.005224 -0.004267)
 65:   1070.17   0.045687  230.88  0.013322  (-0.020736  0.089961  0.069278)
 66:   1118.64   0.069524  351.34  0.019395  (-0.087205 -0.043962  0.099285)
 67:   1131.97   0.038088  192.48  0.010500  (-0.072836  0.061782 -0.037123)
 68:   1137.44   0.032069  162.06  0.008798  ( 0.079557 -0.044524  0.022059)
 69:   1139.89   0.010418   52.65  0.002852  (-0.047802 -0.020800  0.011600)
 70:   1152.83   0.064297  324.93  0.017405  ( 0.116664  0.056762 -0.023926)
 71:   1168.61   0.041098  207.69  0.010975  ( 0.048688 -0.029311 -0.088005)
 72:   1172.57   0.017907   90.49  0.004766  ( 0.042833  0.025835  0.047577)
 73:   1184.71   0.091053  460.15  0.023984  ( 0.062161  0.041821  0.135541)
 74:   1192.47   0.112566  568.86  0.029458  (-0.168238  0.024507  0.023524)
 75:   1208.69   0.074636  377.18  0.019270  (-0.022025 -0.035890 -0.132274)
 76:   1211.36   0.030935  156.33  0.007969  ( 0.070097 -0.002800  0.055207)
 77:   1231.64   0.009037   45.67  0.002290  (-0.027076  0.033607 -0.020669)
 78:   1281.79   0.004201   21.23  0.001023  ( 0.003758  0.025154  0.019390)
 79:   1344.72   0.028312  143.08  0.006570  (-0.039107  0.061322 -0.035784)
 80:   1348.27   0.013178   66.59  0.003050  (-0.028422  0.047070  0.005158)
 81:   1382.54   0.062724  316.98  0.014158  ( 0.038870  0.096760  0.057310)
 82:   1415.32   0.011974   60.51  0.002640  (-0.007668  0.046726  0.019950)
 83:   1663.58   0.023412  118.32  0.004392  (-0.020230  0.062800 -0.006215)
 84:   1676.74   0.039019  197.18  0.007262  (-0.066641  0.052425  0.008510)
 85:   1736.23   0.212409  1073.43  0.038178  (-0.189172  0.046889 -0.013901)
 86:   3490.18   0.325818  1646.55  0.029132  (-0.166489  0.025427 -0.027692)
 87:   3514.48   0.072014  363.93  0.006394  (-0.067634  0.037912  0.019565)
 88:   3851.74   0.018948   95.76  0.001535  ( 0.036315  0.011716 -0.008894)
 89:   3856.12   0.013207   66.74  0.001069  ( 0.019911  0.019541  0.017044)

* The epsilon (eps) is given for a Dirac delta lineshape.
** The dipole moment derivative (T) already includes vibrational overlap.

The first frequency considered to be a vibration is 6
The total number of vibrations considered is 84


--------------------------
THERMOCHEMISTRY AT 298.15K
--------------------------

Temperature         ...   298.15 K
Pressure            ...     1.00 atm
Total Mass          ...   430.09 AMU
Quasi RRHO          ...     True
Cut-Off Frequency   ...     1.00 cm^-1

Throughout the following assumptions are being made:
  (1) The electronic state is orbitally nondegenerate
      but the spin degeneracy is treated
  (2) There are no thermally accessible electronically excited states
  (3) Hindered rotations indicated by low frequency modes are not
      treated as such but are treated as vibrations and this may
      cause some error
  (4) All equations used are the standard statistical mechanics
      equations for an ideal gas
  (5) All vibrations are strictly harmonic

freq.      15.41  E(vib)   ...       0.57 
freq.      18.83  E(vib)   ...       0.57 
freq.      30.09  E(vib)   ...       0.55 
freq.      35.18  E(vib)   ...       0.54 
freq.      46.07  E(vib)   ...       0.53 
freq.      48.19  E(vib)   ...       0.53 
freq.      57.38  E(vib)   ...       0.51 
freq.      60.51  E(vib)   ...       0.51 
freq.      61.65  E(vib)   ...       0.51 
freq.      68.85  E(vib)   ...       0.50 
freq.      85.87  E(vib)   ...       0.48 
freq.      91.44  E(vib)   ...       0.47 
freq.     109.54  E(vib)   ...       0.45 
freq.     118.71  E(vib)   ...       0.44 
freq.     128.01  E(vib)   ...       0.43 
freq.     152.86  E(vib)   ...       0.40 
freq.     156.61  E(vib)   ...       0.40 
freq.     165.38  E(vib)   ...       0.39 
freq.     181.79  E(vib)   ...       0.37 
freq.     185.57  E(vib)   ...       0.37 
freq.     193.29  E(vib)   ...       0.36 
freq.     206.78  E(vib)   ...       0.35 
freq.     216.37  E(vib)   ...       0.34 
freq.     230.03  E(vib)   ...       0.32 
freq.     238.35  E(vib)   ...       0.32 
freq.     245.36  E(vib)   ...       0.31 
freq.     275.61  E(vib)   ...       0.28 
freq.     282.86  E(vib)   ...       0.28 
freq.     288.85  E(vib)   ...       0.27 
freq.     312.79  E(vib)   ...       0.25 
freq.     337.68  E(vib)   ...       0.24 
freq.     348.34  E(vib)   ...       0.23 
freq.     350.71  E(vib)   ...       0.23 
freq.     362.73  E(vib)   ...       0.22 
freq.     374.69  E(vib)   ...       0.21 
freq.     377.80  E(vib)   ...       0.21 
freq.     396.99  E(vib)   ...       0.20 
freq.     418.68  E(vib)   ...       0.18 
freq.     425.05  E(vib)   ...       0.18 
freq.     445.85  E(vib)   ...       0.17 
freq.     463.88  E(vib)   ...       0.16 
freq.     517.02  E(vib)   ...       0.13 
freq.     535.51  E(vib)   ...       0.12 
freq.     557.66  E(vib)   ...       0.12 
freq.     572.92  E(vib)   ...       0.11 
freq.     583.51  E(vib)   ...       0.11 
freq.     585.45  E(vib)   ...       0.11 
freq.     606.57  E(vib)   ...       0.10 
freq.     627.94  E(vib)   ...       0.09 
freq.     661.84  E(vib)   ...       0.08 
freq.     683.31  E(vib)   ...       0.08 
freq.     695.83  E(vib)   ...       0.07 
freq.     699.30  E(vib)   ...       0.07 
freq.     711.81  E(vib)   ...       0.07 
freq.     734.03  E(vib)   ...       0.06 
freq.     782.42  E(vib)   ...       0.05 
freq.     817.29  E(vib)   ...       0.05 
freq.     892.09  E(vib)   ...       0.03 
freq.     996.30  E(vib)   ...       0.02 
freq.    1070.17  E(vib)   ...       0.02 
freq.    1118.64  E(vib)   ...       0.01 
freq.    1131.97  E(vib)   ...       0.01 
freq.    1137.44  E(vib)   ...       0.01 
freq.    1139.89  E(vib)   ...       0.01 
freq.    1152.83  E(vib)   ...       0.01 
freq.    1168.61  E(vib)   ...       0.01 
freq.    1172.57  E(vib)   ...       0.01 
freq.    1184.71  E(vib)   ...       0.01 
freq.    1192.47  E(vib)   ...       0.01 
freq.    1208.69  E(vib)   ...       0.01 
freq.    1211.36  E(vib)   ...       0.01 
freq.    1231.64  E(vib)   ...       0.01 
freq.    1281.79  E(vib)   ...       0.01 
freq.    1344.72  E(vib)   ...       0.01 
freq.    1348.27  E(vib)   ...       0.01 
freq.    1382.54  E(vib)   ...       0.01 
freq.    1415.32  E(vib)   ...       0.00 
freq.    1663.58  E(vib)   ...       0.00 
freq.    1676.74  E(vib)   ...       0.00 
freq.    1736.23  E(vib)   ...       0.00 
freq.    3490.18  E(vib)   ...       0.00 
freq.    3514.48  E(vib)   ...       0.00 
freq.    3851.74  E(vib)   ...       0.00 
freq.    3856.12  E(vib)   ...       0.00 

------------
INNER ENERGY
------------

The inner energy is: U= E(el) + E(ZPE) + E(vib) + E(rot) + E(trans)
    E(el)   - is the total energy from the electronic structure calculation
              = E(kin-el) + E(nuc-el) + E(el-el) + E(nuc-nuc)
    E(ZPE)  - the the zero temperature vibrational energy from the frequency calculation
    E(vib)  - the the finite temperature correction to E(ZPE) due to population
              of excited vibrational states
    E(rot)  - is the rotational thermal energy
    E(trans)- is the translational thermal energy

Summary of contributions to the inner energy U:
Electronic energy                ...  -2005.98770905 Eh
Zero point energy                ...      0.14250879 Eh      89.43 kcal/mol
Thermal vibrational correction   ...      0.02622394 Eh      16.46 kcal/mol
Thermal rotational correction    ...      0.00141627 Eh       0.89 kcal/mol
Thermal translational correction ...      0.00141627 Eh       0.89 kcal/mol
-----------------------------------------------------------------------
Total thermal energy                  -2005.81614378 Eh


Summary of corrections to the electronic energy:
(perhaps to be used in another calculation)
Total thermal correction                  0.02905648 Eh      18.23 kcal/mol
Non-thermal (ZPE) correction              0.14250879 Eh      89.43 kcal/mol
-----------------------------------------------------------------------
Total correction                          0.17156527 Eh     107.66 kcal/mol


--------
ENTHALPY
--------

The enthalpy is H = U + kB*T
                kB is Boltzmann's constant
Total thermal energy              ...  -2005.81614378 Eh 
Thermal Enthalpy correction       ...      0.00094421 Eh       0.59 kcal/mol
-----------------------------------------------------------------------
Total Enthalpy                    ...  -2005.81519957 Eh


Note: Only C1 symmetry has been detected, increase convergence thresholds 
      if your molecule has a higher symmetry. Symmetry factor of 1.0 is   
      used for the rotational entropy correction. 
 

Note: Rotational entropy computed according to Herzberg 
Infrared and Raman Spectra, Chapter V,1, Van Nostrand Reinhold, 1945 
Point Group:  C1, Symmetry Number:   1  
Rotational constants in cm-1:     0.011894     0.004064     0.003769 

Vibrational entropy computed according to the QRRHO of S. Grimme
Chem.Eur.J. 2012 18 9955 using a reference frequency of 100.0 cm-1


-------
ENTROPY
-------

The entropy contributions are T*S = T*(S(el)+S(vib)+S(rot)+S(trans))
     S(el)   - electronic entropy
     S(vib)  - vibrational entropy
     S(rot)  - rotational entropy
     S(trans)- translational entropy
The entropies will be listed as multiplied by the temperature to get
units of energy

Electronic entropy                ...      0.00065446 Eh      0.41 kcal/mol
Vibrational entropy               ...      0.04852039 Eh     30.45 kcal/mol
Rotational entropy                ...      0.01683693 Eh     10.57 kcal/mol
Translational entropy             ...      0.02093733 Eh     13.14 kcal/mol
-----------------------------------------------------------------------
Final entropy term                ...      0.08694910 Eh     54.56 kcal/mol

In case the symmetry of your molecule has not been determined correctly
or in case you have a reason to use a different symmetry number we print 
out the resulting rotational entropy values for sn=1,12:

 non-linear molecules -----------------------------------
|  sn= 1 | S(rot)=       0.01683693 Eh     10.57 kcal/mol|
|  sn= 2 | S(rot)=       0.01618247 Eh     10.15 kcal/mol|
|  sn= 3 | S(rot)=       0.01579964 Eh      9.91 kcal/mol|
|  sn= 4 | S(rot)=       0.01552801 Eh      9.74 kcal/mol|
|  sn= 5 | S(rot)=       0.01531732 Eh      9.61 kcal/mol|
|  sn= 6 | S(rot)=       0.01514518 Eh      9.50 kcal/mol|
|  sn= 7 | S(rot)=       0.01499963 Eh      9.41 kcal/mol|
|  sn= 8 | S(rot)=       0.01487356 Eh      9.33 kcal/mol|
|  sn= 9 | S(rot)=       0.01476235 Eh      9.26 kcal/mol|
|  sn=10 | S(rot)=       0.01466287 Eh      9.20 kcal/mol|
|  sn=11 | S(rot)=       0.01457288 Eh      9.14 kcal/mol|
|  sn=12 | S(rot)=       0.01449072 Eh      9.09 kcal/mol|
 linear molecules ---------------------------------------
|  Dinfh | S(rot)=       0.01059534 Eh      6.65 kcal/mol|
|  Cinfv | S(rot)=       0.01124980 Eh      7.06 kcal/mol|
 --------------------------------------------------------


-------------------
GIBBS FREE ENERGY
-------------------

The Gibbs free energy is G = H - T*S

Total enthalpy                    ...  -2005.81519957 Eh 
Total entropy correction          ...     -0.08694910 Eh    -54.56 kcal/mol
-----------------------------------------------------------------------
Final Gibbs free energy         ...  -2005.90214867 Eh

For completeness - the Gibbs free energy minus the electronic energy
G-E(el)                           ...      0.08556038 Eh     53.69 kcal/mol


Maximum memory used throughout the entire PROP-calculation: 708.9 MB

--------------------------------
SUGGESTED CITATIONS FOR THIS RUN
--------------------------------

Below you find a list of papers that are relevant to this ORCA run
We neither can nor want to force you to cite these papers, but we appreciate if you do
You receive ORCA, which is the product of decades of hard work by many enthusiastic individuals, for free
The only thing we kindly ask in return is that you cite our papers,
We deeply appreciate it, if you show your appreciation for ORCA by not just citing the generic ORCA reference.

Please note that relegating all ORCA citations to the supporting information does *not* help us.
SI sections are not indexed - citations you put there will not count into any citation statistics
But we need these citations in order to attract the funding resources that allow us to do what we are doing

Therefore, if you are a happy ORCA user, please consider citing a few of the papers listed below in the main body of your paper

In addition to the list printed below, the program has created the file rf_mecn_2H2O_freq_r2s_con_02.bibtex that contains the list in bibtex format
You can import this file easily into all common literature databanks and citation aid programs


List of essential papers. We consider these as the minimum necessary citations

  1. Neese,F.
     Software update: the ORCA program system, version 5.0
     WIRES Comput. Molec. Sci., 2022 12(1)e1606
     doi.org/10.1002/wcms.1606

List of papers to cite with high priority. The work reported in these papers was absolutely
necessary for this run to complete.
Our perspective: the developers of density functionals and basis sets usually get cited in chemistry papers
Good! But without the algorithms to do something with them, the functionals or basis sets would not do anything.
Hence, in our opinion, the algorithm design and method developments papers are equally worthy of getting cited

  1. Neese,F.
     An improvement of the resolution of the identity approximation for the formation of the Coulomb matrix
     J. Comp. Chem., 2003 24(14)1740-1747
     doi.org/10.1002/jcc.10318
  2. Neese,F.; Wennmohs,F.; Hansen,A.; Becker,U.
     Efficient, approximate and parallel Hartree-Fock and hybrid DFT calculations. A 'chain-of-spheres' algorithm for the Hartree-Fock exchange
     Chem. Phys., 2009 356(1-3)98-109
     doi.org/10.1016/j.chemphys.2008.10.036
  3. Bykov,D.; Petrenko,T.; Izsak,R.; Kossmann,S.; Becker,U.; Valeev,E.; Neese,F.
     Efficient implementation of the analytic second derivatives of Hartree-Fock and hybrid DFT energies: a detailed analysis of different approximations
     Molec. Phys., 2015 113 1961-1977
     doi.org/10.1080/00268976.2015.1025114
  4. Garcia-Rates,M.; Neese,F.
     Efficient implementation of the analytical second derivatives of hartree-fock and hybrid DFT energies within the framework of the conductor-like polarizable continuum model
     J. Comput. Chem., 2019 40 1816-1828
     doi.org/10.1002/jcc.25833
  5. Garcia-Rates,M.; Neese,F.
     Effect of the Solute Cavity on the Solvation Energy and its Derivatives within the Framework of the Gaussian Charge Scheme
     J. Comput. Chem., 2020 41 922-939
     doi.org/10.1002/jcc.26139
  6. Helmich-Paris,B.; de Souza,B.; Neese,F.; Izsák,R.
     An improved chain of spheres for exchange algorithm
     J. Chem. Phys., 2021 155 104109
     doi.org/doi: 10.1063/5.0058766.
  7. Neese,F.
     The SHARK Integral Generation and Digestion System
     J. Comp. Chem., 2022  1-16
     doi.org/10.1002/jcc.26942
  8. Lehtola,S.; Steigemann,C.; Oliveira,M.; Marques,M.
     Recent developments in Libxc - A comprehensive library of functionals for density functional theory
     Software X, 2018 7 
     doi.org/10.1016/j.softx.2017.11.002
  9. Grimme,S.; Antony,J.; Ehrlich,S.; Krieg,H.
     A consistent and accurate ab initio parametrization of density functional dispersion correction (DFT-D) for the 94 elements H-Pu
     J. Chem. Phys., 2010 132 154104
     doi.org/10.1063/1.3382344
 10. Grimme,S.; Ehrlich,S.; Goerigk,L.
     Effect of the damping function in dispersion corrected density functional theory
     J. Comput. Chem., 2011 32(7)1456-1465
     doi.org/10.1002/jcc.21759
 11. Bursch,M.; Neugebauer,H.; Ehlert,S.; Grimme,S.
     Dispersion corrected r2SCAN based global hybrid functionals: r2SCANh, r2SCAN0, and r2SCAN50
     J. Phys. Chem., 2022 156(13)134105
     doi.org/10.1063/5.0086040

List of suggested additional citations. These are papers that are important in the 'surrounding' of 
of this run, or papers that preceded the highly important papers. If you like your results we are grateful for a citation.

  1. Izsak,R.; Neese,F.
     An overlap fitted chain of spheres exchange method
     J. Chem. Phys., 2011 135 144105
     doi.org/10.1063/1.3646921
  2. Izsak,R.; Hansen,A.; Neese,F.
     The resolution of identity and chain of spheres approximations for the LPNO-CCSD singles Fock term
     Molec. Phys., 2012 110 2413-2417
     doi.org/10.1080/00268976.2012.687466
  3. Neese,F.
     The ORCA program system
     WIRES Comput. Molec. Sci., 2012 2(1)73-78
     doi.org/10.1002/wcms.81
  4. Izsak,R.; Neese,F.; Klopper,W.
     Robust fitting techniques in the chain of spheres approximation to the Fock exchange: The role of the complementary space
     J. Chem. Phys., 2013 139 
     doi.org/10.1063/1.4819264
  5. Neese,F.
     Software update: the ORCA program system, version 4.0
     WIRES Comput. Molec. Sci., 2018 8(1)1-6
     doi.org/10.1002/wcms.1327
  6. Neese,F.; Wennmohs,F.; Becker,U.; Riplinger,C.
     The ORCA quantum chemistry program package
     J. Chem. Phys., 2020 152 Art. No. L224108
     doi.org/10.1063/5.0004608
  7. Wittmann,L.; Neugebauer,H.; Grimme,S.; Bursch,M.
     Dispersion-corrected r2SCAN based double-hybrid functionals
     J. Chem. Phys., 2023 159(22)224103
     doi.org/10.1063/5.0174988

List of optional additional citations

  1. Neese,F.
     Approximate second-order SCF convergence for spin unrestricted wavefunctions
     Chem. Phys. Lett., 2000 325(1-3)93-98
     doi.org/10.1016/s0009-2614(00)00662-x

Timings for individual modules:

Sum of individual times          ...     1672.744 sec (=  27.879 min)
Startup calculation              ...        3.672 sec (=   0.061 min)   0.2 %
SCF iterations                   ...      104.350 sec (=   1.739 min)   6.2 %
Property integrals               ...      461.991 sec (=   7.700 min)  27.6 %
SCF Response                     ...      761.694 sec (=  12.695 min)  45.5 %
Property calculations            ...      341.038 sec (=   5.684 min)  20.4 %
                             ****ORCA TERMINATED NORMALLY****
TOTAL RUN TIME: 0 days 0 hours 27 minutes 53 seconds 774 msec
