
                                 *****************
                                 * O   R   C   A *
                                 *****************

                                            #,                                       
                                            ###                                      
                                            ####                                     
                                            #####                                    
                                            ######                                   
                                           ########,                                 
                                     ,,################,,,,,                         
                               ,,#################################,,                 
                          ,,##########################################,,             
                       ,#########################################, ''#####,          
                    ,#############################################,,   '####,        
                  ,##################################################,,,,####,       
                ,###########''''           ''''###############################       
              ,#####''   ,,,,##########,,,,          '''####'''          '####       
            ,##' ,,,,###########################,,,                        '##       
           ' ,,###''''                  '''############,,,                           
         ,,##''                                '''############,,,,        ,,,,,,###''
      ,#''                                            '''#######################'''  
     '                                                          ''''####''''         
             ,#######,   #######,   ,#######,      ##                                
            ,#'     '#,  ##    ##  ,#'     '#,    #''#        ,####,   ,####,        
            ##       ##  ##   ,#'  ##            #'  '#       #'       #'  '#        
            ##       ##  #######   ##           ,######,      #####,   #    #        
            '#,     ,#'  ##    ##  '#,     ,#' ,#      #,     #,   #   #,  ,#        
             '#######'   ##     ##  '#######'  #'      '#     '####' # '####'        



                #########################################################
                #                        -***-                          #
                #          Department of theory and spectroscopy        #
                #                                                       #
                #                      Frank Neese                      #
                #                                                       #
                #     Directorship, Architecture, Infrastructure        #
                #                    SHARK, DRIVERS                     #
                #        Core code/Algorithms in most modules           #
                #                                                       #
                #        Max Planck Institute fuer Kohlenforschung      #
                #                Kaiser Wilhelm Platz 1                 #
                #                 D-45470 Muelheim/Ruhr                 #
                #                      Germany                          #
                #                                                       #
                #                  All rights reserved                  #
                #                        -***-                          #
                #########################################################


                         Program Version 6.0.1  -  RELEASE   -


 With contributions from (in alphabetic order):
[Max-Planck-Institut fuer Kohlenforschung]                               
  Daniel Aravena         : Magnetic Suceptibility                        
  Michael Atanasov       : Ab Initio Ligand Field Theory (pilot matlab implementation)
  Alexander A. Auer      : GIAO ZORA, VPT2 properties, NMR spectrum      
  Ute Becker             : All parallelization in ORCA, NUMFREQ, NUMCALC 
  Giovanni Bistoni       : ED, misc. LED, open-shell LED, HFLD           
  Martin Brehm           : Molecular dynamics                            
  Dmytro Bykov           : pre 5.0 version of the SCF Hessian            
  Marcos Casanova-Páez   : Triplet and SCS-CIS(D). UHF-(DLPNO)-IP/EA/STEOM-CCSD. UHF-CVS-IP/STEOM-CCSD   
  Vijay G. Chilkuri      : MRCI spin determinant printing, contributions to CSF-ICE 
  Pauline Colinet        : FMM embedding                                 
  Dipayan Datta          : RHF DLPNO-CCSD density                        
  Achintya Kumar Dutta   : EOM-CC, STEOM-CC                              
  Nicolas Foglia         : Exact transition moments, OPA infrastructure, MCD improvements    
  Dmitry Ganyushin       : Spin-Orbit,Spin-Spin,Magnetic field MRCI      
  Miquel Garcia-Rates    : C-PCM and meta-GGA Hessian, CCSD/C-PCM, Gaussian charge scheme 
  Tiago L. C. Gouveia    : GS-ROHF, GS-ROCIS                             
  Yang Guo               : DLPNO-NEVPT2, F12-NEVPT2, CIM, IAO-localization        
  Andreas Hansen         : Spin unrestricted coupled pair/coupled cluster methods 
  Ingolf Harden          : AUTO-CI MPn and infrastructure                
  Benjamin Helmich-Paris : MC-RPA, TRAH-(SCF,CASSCF), AVAS, COSX integrals, SCF dyn. polar. 
  Lee Huntington         : MR-EOM, pCC                                   
  Robert Izsak           : Overlap fitted RIJCOSX, COSX-SCS-MP3, EOM     
  Riya Kayal             : Wick's Theorem for AUTO-CI, AUTO-CI UHF-CCSDT 
  Emily Kempfer          : AUTO-CI, RHF CISDT and CCSDT                  
  Christian Kollmar      : KDIIS, OOCD, Brueckner-CCSD(T), CCSD density, CASPT2, CASPT2-K, improved NEVPT2 
  Axel Koslowski         : Symmetry handling                             
  Simone Kossmann        : meta-GGA functionals, TD-DFT gradient, OOMP2, (MP2 Hessian; deprecated post 5.0) 
  Lucas Lang             : DCDCAS                                        
  Marvin Lechner         : AUTO-CI (C++ implementation), FIC-MRCC        
  Spencer Leger          : CASSCF response                               
  Dagmar Lenk            : GEPOL surface, SMD, ORCA-2-JSON               
  Dimitrios Liakos       : Extrapolation schemes; Compound Job, initial MDCI parallelization 
  Dimitrios Manganas     : Further ROCIS development; embedding schemes. LFT, Crystal Embedding 
  Dimitrios Pantazis     : SARC Basis sets                               
  Anastasios Papadopoulos: AUTO-CI, single reference methods and gradients 
  Taras Petrenko         : pre 6.0 DFT Hessian and TD-DFT gradient, (ASA, deprecated), ECA, 1-Electron XAS/XES, NRVS 
  Peter Pinski           : DLPNO-MP2, DLPNO-MP2 Gradient                 
  Christoph Reimann      : Effective Core Potentials                     
  Marius Retegan         : Local ZFS, SOC                                
  Christoph Riplinger    : Optimizer, TS searches, QM/MM, DLPNO-CCSD(T), (RO)-DLPNO pert. Triples 
  Michael Roemelt        : Original ROCIS implementation                 
  Masaaki Saitow         : Open-shell DLPNO-CCSD energy and density      
  Barbara Sandhoefer     : DKH picture change effects                    
  Kantharuban Sivalingam : CASSCF convergence/infrastructure, NEVPT2 and variants, FIC-MRCI 
  Bernardo de Souza      : ESD, SOC TD-DFT                               
  Georgi L. Stoychev     : AutoAux, RI-MP2 NMR, DLPNO-MP2 response, X2C  
  Van Anh Tran           : RI-MP2 g-tensors                              
  Willem Van den Heuvel  : Paramagnetic NMR                              
  Zikuan Wang            : NOTCH, Electric field optimization            
  Frank Wennmohs         : Technical directorship and infrastructure     
  Hang Xu                : AUTO-CI-Response properties                   
                                                                         
[FACCTs GmbH]                                                            
  Markus Bursch, Miquel Garcia-Rates, Christoph Riplinger, Bernardo de Souza, Georgi L. Stoychev 
                                                                 
  APM, Basis sets (HGBS, AHGBS, def-TZVP (Ac-Lr), def2-XVPD (La-Lu)), CI-OPT, improved COSX, DLPNO-Multilevel,           
  DOCKER, DRACO, updates on ESD, GOAT, IRC, LR-CPCM, MBIS, meta-GGA TD-DFT gradient, ML-optimized integration grids, 
  MM, NACMEs, nearIR, NEB, NEB-TS, NL-DFT gradient (VV10), 2- and 3-layer-ONIOM, interface openCOSMO-RS, QMMM,   
  Crystal-QMMM, SF, symmetry and pop. for TD-DFT, r2SCAN hybrids, SOLVATOR                                   
                                                                         
[Other institutions]                                                     
  V. Asgeirsson          : NEB                                           
  Christoph Bannwarth    : sTDA-DFT, sTD-DFT, PBEh-3c, B97-3c, D3        
  Sebastian Ehlert       : rSCAN, r2SCAN, r2SCAN-3c, D4, dhf basis sets  
  Marvin Friede          : D4 for Fr, Ra, Ac-Lr                          
  Lars Goerigk           : TD-DFT with DH, B97 family of functionals     
  Stefan Grimme          : VdW corrections, initial TS optimization, DFT functionals, gCP, sTDA/sTD-DF 
  Waldemar Hujo          : DFT-NL                                        
  H. Jonsson             : NEB                                           
  Holger Kruse           : gCP                                           
  Marcel Mueller         : wB97X-3c, vDZP basis set                      
  Hagen Neugebauer       : wr2SCAN                                       
  Tobias Risthaus        : range-separated hybrid DFT                    
  Lukas Wittmann         : regularized MP2, r2SCAN double-hybrids, wr2SCAN        
                                                                         
We gratefully acknowledge several colleagues who have allowed us to      
interface, adapt or use parts of their codes:                            
  Ed Valeev, F. Pavosevic, A. Kumar             : LibInt (2-el integral package), F12 methods 
  Garnet Chan, S. Sharma, J. Yang, R. Olivares  : DMRG                   
  Ulf Ekstrom                                   : XCFun DFT Library      
  Mihaly Kallay                                 : mrcc  (arbitrary order and MRCC methods)
  Frank Weinhold                                : gennbo (NPA and NBO analysis)           
  Simon Mueller                                 : openCOSMO-RS                            
  Christopher J. Cramer and Donald G. Truhlar   : smd solvation model                     
  S Lehtola, MJT Oliveira, MAL Marques          : LibXC Library                           
  Liviu Ungur et al                             : ANISO software                          


 Your calculation uses the libint2 library for the computation of 2-el integrals
 For citations please refer to: http://libint.valeyev.net

 Your ORCA version has been built with support for libXC version: 6.2.2
 For citations please refer to: https://libxc.gitlab.io

 This ORCA versions uses:
   CBLAS   interface :  Fast vector & matrix operations
   LAPACKE interface :  Fast linear algebra routines
   SCALAPACK package :  Parallel linear algebra routines
   Shared memory     :  Shared parallel matrices
   BLAS/LAPACK       :  OpenBLAS 0.3.27  USE64BITINT DYNAMIC_ARCH NO_AFFINITY SkylakeX SINGLE_THREADED
        Core in use  :  SkylakeX
   Copyright (c) 2011-2014, The OpenBLAS Project


NOTE: MaxCore=8000 MB was set to SCF,MP2,MDCI,CIPSI,MRCI and CIS
      => If you want to overwrite this, your respective input block should be placed after the MaxCore statement
Your calculation utilizes the atom-pairwise dispersion correction
with the Becke-Johnson damping scheme (D3BJ)


Your calculation utilizes the SMD solvation module
Please cite in your paper:
A.V. Marenich, C.J. Cramer, D.G. Truhlar J. Phys. Chem. B, 113, (2009), 6378 

Warning: RI is on but no J-basis has been assigned. Assigning Def2/J (nothing to worry about!)
================================================================================

----- Orbital basis set information -----
Your calculation utilizes the basis: def2-TZVP
   F. Weigend and R. Ahlrichs, Phys. Chem. Chem. Phys. 7, 3297 (2005).

----- AuxJ basis set information -----
Your calculation utilizes the auxiliary basis: def2/J
   F. Weigend, Phys. Chem. Chem. Phys. 8, 1057 (2006).

================================================================================
                                        WARNINGS
                       Please study these warnings very carefully!
================================================================================

WARNING: Old DensityContainer found on disk!
         Will remove this file - 
         If you want to keep old densities, please start your calculation with a different basename. 



WARNING: SCAN, rSCAN, or r2SCAN functional requested.
  ===> : libXC variant has now been activated.



WARNING: your system is open-shell and RHF/RKS was chosen
  ===> : WILL SWITCH to UHF/UKS


================================================================================
                                       INPUT FILE
================================================================================
NAME = rf_mecn_2H2O_freq_r2s_sw_004.inp
|  1> !r2scanh def2-TZVP freq d3 TightSCF SlowConv defgrid2
|  2>  
|  3> %pal
|  4> nprocs 20
|  5> end
|  6>  
|  7> %scf
|  8> MaxIter 1500
|  9> end
| 10>  
| 11> %maxcore 8000
| 12>  
| 13> !CPCM
| 14> %cpcm smd true
| 15> SMDsolvent "ACETONITRILE"
| 16> end
| 17>  
| 18> * xyz -2 2
| 19> 6        7.313427000     27.768920000      2.850998000
| 20> 6        6.810116000     26.325526000      3.038166000
| 21> 6        7.247644000     25.173428000      2.097130000
| 22> 6        6.787514000     23.682303000      2.188473000
| 23> 6        7.209078000     22.507122000      1.256274000
| 24> 6        6.754687000     21.035010000      1.457811000
| 25> 6        7.056455000     19.958228000      0.382642000
| 26> 6        6.732321000     18.510306000      0.835337000
| 27> 9        6.951023000     28.246732000      1.659323000
| 28> 9        8.643008000     27.824789000      2.945878000
| 29> 9        6.815424000     28.613611000      3.782245000
| 30> 9        7.177325000     25.978463000      4.305839000
| 31> 9        5.449631000     26.409243000      2.976918000
| 32> 9        6.879697000     25.589996000      0.834116000
| 33> 9        8.621618000     25.143530000      2.186110000
| 34> 9        7.159304000     23.279035000      3.459063000
| 35> 9        5.411463000     23.734948000      2.108998000
| 36> 9        6.799968000     22.865094000     -0.003470000
| 37> 9        8.580765000     22.482940000      1.285359000
| 38> 9        7.311291000     20.607873000      2.624088000
| 39> 9        5.400524000     21.045347000      1.618172000
| 40> 9        6.345025000     20.282593000     -0.731698000
| 41> 9        8.377437000     20.070456000      0.050216000
| 42> 8        7.654413000     17.902431000      1.411054000
| 43> 8        5.569882000     18.124242000      0.610143000
| 44> 8        3.415917000     19.134863000     -0.741994000
| 45> 1        2.752381000     18.547126000     -0.370523000
| 46> 1        4.245075000     18.871872000     -0.289835000
| 47> 1        9.177143000     18.574134000      1.975484000
| 48> 8       10.029318000     18.889408000      2.346689000
| 49> 1       10.025342000     19.831271000      2.155213000
| 50> *
| 51> 
| 52>                          ****END OF INPUT****
================================================================================

                       ****************************
                       * Single Point Calculation *
                       ****************************

---------------------------------
CARTESIAN COORDINATES (ANGSTROEM)
---------------------------------
  C      7.313427   27.768920    2.850998
  C      6.810116   26.325526    3.038166
  C      7.247644   25.173428    2.097130
  C      6.787514   23.682303    2.188473
  C      7.209078   22.507122    1.256274
  C      6.754687   21.035010    1.457811
  C      7.056455   19.958228    0.382642
  C      6.732321   18.510306    0.835337
  F      6.951023   28.246732    1.659323
  F      8.643008   27.824789    2.945878
  F      6.815424   28.613611    3.782245
  F      7.177325   25.978463    4.305839
  F      5.449631   26.409243    2.976918
  F      6.879697   25.589996    0.834116
  F      8.621618   25.143530    2.186110
  F      7.159304   23.279035    3.459063
  F      5.411463   23.734948    2.108998
  F      6.799968   22.865094   -0.003470
  F      8.580765   22.482940    1.285359
  F      7.311291   20.607873    2.624088
  F      5.400524   21.045347    1.618172
  F      6.345025   20.282593   -0.731698
  F      8.377437   20.070456    0.050216
  O      7.654413   17.902431    1.411054
  O      5.569882   18.124242    0.610143
  O      3.415917   19.134863   -0.741994
  H      2.752381   18.547126   -0.370523
  H      4.245075   18.871872   -0.289835
  H      9.177143   18.574134    1.975484
  O     10.029318   18.889408    2.346689
  H     10.025342   19.831271    2.155213

----------------------------
CARTESIAN COORDINATES (A.U.)
----------------------------
  NO LB      ZA    FRAG     MASS         X           Y           Z
   0 C     6.0000    0    12.011   13.820374   52.475654    5.387605
   1 C     6.0000    0    12.011   12.869254   49.748034    5.741302
   2 C     6.0000    0    12.011   13.696062   47.570885    3.963001
   3 C     6.0000    0    12.011   12.826543   44.753067    4.135615
   4 C     6.0000    0    12.011   13.623183   42.532297    2.374014
   5 C     6.0000    0    12.011   12.764509   39.750408    2.754864
   6 C     6.0000    0    12.011   13.334767   37.715585    0.723089
   7 C     6.0000    0    12.011   12.722243   34.979409    1.578558
   8 F     9.0000    0    18.998   13.135530   53.378588    3.135666
   9 F     9.0000    0    18.998   16.332918   52.581231    5.566903
  10 F     9.0000    0    18.998   12.879285   54.071888    7.147407
  11 F     9.0000    0    18.998   13.563179   49.092180    8.136856
  12 F     9.0000    0    18.998   10.298310   49.906237    5.625560
  13 F     9.0000    0    18.998   13.000743   48.358084    1.576251
  14 F     9.0000    0    18.998   16.292497   47.514386    4.131149
  15 F     9.0000    0    18.998   13.529124   43.991001    6.536682
  16 F     9.0000    0    18.998   10.226183   44.852552    3.985429
  17 F     9.0000    0    18.998   12.850077   43.208766   -0.006557
  18 F     9.0000    0    18.998   16.215296   42.486599    2.428976
  19 F     9.0000    0    18.998   13.816338   38.943236    4.958808
  20 F     9.0000    0    18.998   10.205511   39.769942    3.057902
  21 F     9.0000    0    18.998   11.990360   38.328546   -1.382709
  22 F     9.0000    0    18.998   15.831062   37.927665    0.094894
  23 O     8.0000    0    15.999   14.464744   33.830692    2.666506
  24 O     8.0000    0    15.999   10.525552   34.249854    1.153003
  25 O     8.0000    0    15.999    6.455148   36.159651   -1.402165
  26 H     1.0000    0     1.008    5.201246   35.048989   -0.700187
  27 H     1.0000    0     1.008    8.022029   35.662670   -0.547709
  28 H     1.0000    0     1.008   17.342287   35.100026    3.733124
  29 O     8.0000    0    15.999   18.952664   35.695808    4.434600
  30 H     1.0000    0     1.008   18.945151   37.475671    4.072762

--------------------------------
INTERNAL COORDINATES (ANGSTROEM)
--------------------------------
 C      0   0   0     0.000000000000     0.00000000     0.00000000
 C      1   0   0     1.540045474063     0.00000000     0.00000000
 C      2   1   0     1.550583537151   122.03271212     0.00000000
 C      3   2   1     1.563175270459   126.17408904   180.65988894
 C      4   3   2     1.558127582856   127.21890484   179.89241903
 C      5   4   3     1.553770280252   123.90812949   177.02004329
 C      6   5   4     1.551293582759   120.72066996   171.60591173
 C      7   6   5     1.551281319125   113.88930127   171.02406353
 F      1   2   3     1.334065317811   110.82200799    60.69094550
 F      1   2   3     1.334132375412   110.87351259   299.98866706
 F      1   2   3     1.352305752594   112.41934388   180.30300343
 F      2   1   3     1.364657470056   105.26697362   122.42647100
 F      2   1   3     1.364433687952   105.24270690   237.52680674
 F      3   2   1     1.379897915655   104.82946114   302.70444712
 F      3   2   1     1.377176780040   104.97707907    57.92127196
 F      4   3   2     1.383926237927   104.62748736   302.00277956
 F      4   3   2     1.379349167633   104.70710752    57.04446936
 F      5   4   3     1.372031300816   105.77503059   299.65798750
 F      5   4   3     1.372208414315   105.72769398    54.95466102
 F      6   5   4     1.361049620813   106.79131704   294.26144375
 F      6   5   4     1.363664157503   107.36619777    49.80123466
 F      7   6   5     1.361285764902   107.47525105   293.92227661
 F      7   6   5     1.366782943186   107.43252518    48.35435028
 O      8   7   6     1.245478115495   115.83274852   270.97777412
 O      8   7   6     1.245400408886   115.56900075    88.89825825
 O     25   8   7     2.736639269914   135.19557244     7.21744097
 H     26  25   8     0.961095993284    97.27303964   195.29449443
 H     26  25   8     0.980364736374     6.95856074     0.02820248
 H     24   8   7     1.757405132008   127.11411990     9.92885965
 O     29  24   8     0.981525892540   175.21316881   153.45724223
 H     30  29  24     0.961137231576   103.64069467   207.44106042

---------------------------
INTERNAL COORDINATES (A.U.)
---------------------------
 C      0   0   0     0.000000000000     0.00000000     0.00000000
 C      1   0   0     2.910264179763     0.00000000     0.00000000
 C      2   1   0     2.930178232982   122.03271212     0.00000000
 C      3   2   1     2.953973160485   126.17408904   180.65988894
 C      4   3   2     2.944434413307   127.21890484   179.89241903
 C      5   4   3     2.936200304702   123.90812949   177.02004329
 C      6   5   4     2.931520024724   120.72066996   171.60591173
 C      7   6   5     2.931496849814   113.88930127   171.02406353
 F      1   2   3     2.521018095425   110.82200799    60.69094550
 F      1   2   3     2.521144815926   110.87351259   299.98866706
 F      1   2   3     2.555487521729   112.41934388   180.30300343
 F      2   1   3     2.578828885015   105.26697362   122.42647100
 F      2   1   3     2.578405998125   105.24270690   237.52680674
 F      3   2   1     2.607629153357   104.82946114   302.70444712
 F      3   2   1     2.602486952270   104.97707907    57.92127196
 F      4   3   2     2.615241579231   104.62748736   302.00277956
 F      4   3   2     2.606592169879   104.70710752    57.04446936
 F      5   4   3     2.592763405711   105.77503059   299.65798750
 F      5   4   3     2.593098101718   105.72769398    54.95466102
 F      6   5   4     2.572011038013   106.79131704   294.26144375
 F      6   5   4     2.576951796326   107.36619777    49.80123466
 F      7   6   5     2.572457285670   107.47525105   293.92227661
 F      7   6   5     2.582845447136   107.43252518    48.35435028
 O      8   7   6     2.353612544079   115.83274852   270.97777412
 O      8   7   6     2.353465699868   115.56900075    88.89825825
 O     25   8   7     5.171498747472   135.19557244     7.21744097
 H     26  25   8     1.816208215715    97.27303964   195.29449443
 H     26  25   8     1.852620863101     6.95856074     0.02820248
 H     24   8   7     3.321014405843   127.11411990     9.92885965
 O     29  24   8     1.854815130253   175.21316881   153.45724223
 H     30  29  24     1.816286144793   103.64069467   207.44106042

---------------------
BASIS SET INFORMATION
---------------------
There are 4 groups of distinct atoms

 Group   1 Type C   : 11s6p2d1f contracted to 5s3p2d1f pattern {62111/411/11/1}
 Group   2 Type F   : 11s6p2d1f contracted to 5s3p2d1f pattern {62111/411/11/1}
 Group   3 Type O   : 11s6p2d1f contracted to 5s3p2d1f pattern {62111/411/11/1}
 Group   4 Type H   : 5s1p contracted to 3s1p pattern {311/1}

Atom   0C    basis set group =>   1
Atom   1C    basis set group =>   1
Atom   2C    basis set group =>   1
Atom   3C    basis set group =>   1
Atom   4C    basis set group =>   1
Atom   5C    basis set group =>   1
Atom   6C    basis set group =>   1
Atom   7C    basis set group =>   1
Atom   8F    basis set group =>   2
Atom   9F    basis set group =>   2
Atom  10F    basis set group =>   2
Atom  11F    basis set group =>   2
Atom  12F    basis set group =>   2
Atom  13F    basis set group =>   2
Atom  14F    basis set group =>   2
Atom  15F    basis set group =>   2
Atom  16F    basis set group =>   2
Atom  17F    basis set group =>   2
Atom  18F    basis set group =>   2
Atom  19F    basis set group =>   2
Atom  20F    basis set group =>   2
Atom  21F    basis set group =>   2
Atom  22F    basis set group =>   2
Atom  23O    basis set group =>   3
Atom  24O    basis set group =>   3
Atom  25O    basis set group =>   3
Atom  26H    basis set group =>   4
Atom  27H    basis set group =>   4
Atom  28H    basis set group =>   4
Atom  29O    basis set group =>   3
Atom  30H    basis set group =>   4
---------------------------------
AUXILIARY/J BASIS SET INFORMATION
---------------------------------
There are 4 groups of distinct atoms

 Group   1 Type C   : 12s5p4d2f1g contracted to 6s4p3d1f1g pattern {711111/2111/211/2/1}
 Group   2 Type F   : 12s5p4d2f1g contracted to 6s4p3d1f1g pattern {711111/2111/211/2/1}
 Group   3 Type O   : 12s5p4d2f1g contracted to 6s4p3d1f1g pattern {711111/2111/211/2/1}
 Group   4 Type H   : 5s2p1d contracted to 3s1p1d pattern {311/2/1}

Atom   0C    basis set group =>   1
Atom   1C    basis set group =>   1
Atom   2C    basis set group =>   1
Atom   3C    basis set group =>   1
Atom   4C    basis set group =>   1
Atom   5C    basis set group =>   1
Atom   6C    basis set group =>   1
Atom   7C    basis set group =>   1
Atom   8F    basis set group =>   2
Atom   9F    basis set group =>   2
Atom  10F    basis set group =>   2
Atom  11F    basis set group =>   2
Atom  12F    basis set group =>   2
Atom  13F    basis set group =>   2
Atom  14F    basis set group =>   2
Atom  15F    basis set group =>   2
Atom  16F    basis set group =>   2
Atom  17F    basis set group =>   2
Atom  18F    basis set group =>   2
Atom  19F    basis set group =>   2
Atom  20F    basis set group =>   2
Atom  21F    basis set group =>   2
Atom  22F    basis set group =>   2
Atom  23O    basis set group =>   3
Atom  24O    basis set group =>   3
Atom  25O    basis set group =>   3
Atom  26H    basis set group =>   4
Atom  27H    basis set group =>   4
Atom  28H    basis set group =>   4
Atom  29O    basis set group =>   3
Atom  30H    basis set group =>   4

Checking for AutoStart:
The File: rf_mecn_2H2O_freq_r2s_sw_004.gbw exists
Trying to determine its content:
     ... Fine, the file contains calculation information
     ... Fine, the calculation information was read
     ... Fine, the file contains a basis set
     ... Fine, the basis set was read
     ... Fine, the file contains a geometry
     ... Fine, the geometry was read
     ... Fine, the file contains a set of orbitals
     ... Fine, the orbitals can be read
     => possible old guess file was deleted
     => GBW file was renamed to GES file
     => GES file is set as startup file
     => Guess is set to MORead
     ... now leaving AutoStart



           ************************************************************
           *        Program running with 20 parallel MPI-processes    *
           *              working on a common directory               *
           ************************************************************
------------------------------------------------------------------------------
                             ORCA STARTUP CALCULATIONS
                           -- RI-GTO INTEGRALS CHOSEN --
------------------------------------------------------------------------------
------------------------------------------------------------------------------
                   ___                                                        
                  /   \      - P O W E R E D   B Y -                         
                 /     \                                                     
                 |  |  |   _    _      __       _____    __    __             
                 |  |  |  | |  | |    /  \     |  _  \  |  |  /  |          
                  \  \/   | |  | |   /    \    | | | |  |  | /  /          
                 / \  \   | |__| |  /  /\  \   | |_| |  |  |/  /          
                |  |  |   |  __  | /  /__\  \  |    /   |      \           
                |  |  |   | |  | | |   __   |  |    \   |  |\   \          
                \     /   | |  | | |  |  |  |  | |\  \  |  | \   \       
                 \___/    |_|  |_| |__|  |__|  |_| \__\ |__|  \__/        
                                                                              
                      - O R C A' S   B I G   F R I E N D -                    
                                      &                                       
                       - I N T E G R A L  F E E D E R -                       
                                                                              
 v1 FN, 2020, v2 2021, v3 2022-2024                                           
------------------------------------------------------------------------------


----------------------
SHARK INTEGRAL PACKAGE
----------------------

Number of atoms                             ...     31
Number of basis functions                   ...    861
Number of shells                            ...    313
Maximum angular momentum                    ...      3
Integral batch strategy                     ... SHARK/LIBINT Hybrid
RI-J (if used) integral strategy            ... SPLIT-RIJ (Revised 2003 algorithm where possible)
Printlevel                                  ...      1
Contraction scheme used                     ... SEGMENTED contraction
Prescreening option                         ... SCHWARTZ
   Thresh                                   ... 2.500e-11
   Tcut                                     ... 2.500e-12
   Tpresel                                  ... 2.500e-12 
Coulomb Range Separation                    ... NOT USED
Exchange Range Separation                   ... NOT USED
Multipole approximations                    ... NOT USED
Finite Nucleus Model                        ... NOT USED
CABS basis                                  ... NOT available
Auxiliary Coulomb fitting basis             ... AVAILABLE
   # of basis functions in Aux-J            ...   1367
   # of shells in Aux-J                     ...    425
   Maximum angular momentum in Aux-J        ...      4
Auxiliary J/K fitting basis                 ... NOT available
Auxiliary Correlation fitting basis         ... NOT available
Auxiliary 'external' fitting basis          ... NOT available

Checking pre-screening integrals            ... done (  0.0 sec) Dimension = 313
Check shell pair data                       ... done (  0.0 sec)
Shell pair information
Shell pair cut-off parameter TPreSel        ...   2.5e-12
Total number of shell pairs                 ...     49141
Shell pairs after pre-screening             ...     27793
Total number of primitive shell pairs       ...    159936
Primitive shell pairs kept                  ...     57574
          la=0 lb=0:   5618 shell pairs
          la=1 lb=0:   7772 shell pairs
          la=1 lb=1:   2595 shell pairs
          la=2 lb=0:   4072 shell pairs
          la=2 lb=1:   2865 shell pairs
          la=2 lb=2:    764 shell pairs
          la=3 lb=0:   1840 shell pairs
          la=3 lb=1:   1377 shell pairs
          la=3 lb=2:    722 shell pairs
          la=3 lb=3:    168 shell pairs

Calculating one electron integrals          ... done (  0.0 sec)
Calculating RI/J V-Matrix + Cholesky decomp.... done (  0.1 sec)
Calculating Nuclear repulsion               ... done (  0.0 sec) ENN=   3238.712489114931 Eh

Diagonalization of the overlap matrix:
Smallest eigenvalue                        ... 8.806e-05
Time for diagonalization                   ...    0.168 sec
Threshold for overlap eigenvalues          ... 1.000e-07
Number of eigenvalues below threshold      ... 0
Time for construction of square roots      ...    0.073 sec
Total time needed                          ...    0.248 sec

-------------------
DFT GRID GENERATION
-------------------

General Integration Accuracy     IntAcc      ... 4.388
Radial Grid Type                 RadialGrid  ... OptM3 with GC (2021)
Angular Grid (max. ang.)         AngularGrid ... 4 (Lebedev-302)
Angular grid pruning method      GridPruning ... 4 (adaptive)
Weight generation scheme         WeightScheme... mBecke (2022)
Basis function cutoff            BFCut       ... 1.0000e-11
Integration weight cutoff        WCut        ... 1.0000e-14
Partially contracted basis set               ... off
Rotationally invariant grid construction     ... off
Angular grids for H and He will be reduced by one unit

Total number of grid points                  ...   176523
Total number of batches                      ...     2774
Average number of points per batch           ...       63
Average number of grid points per atom       ...     5694

--------------------
COSX GRID GENERATION
--------------------

GRIDX 1
-------
General Integration Accuracy     IntAcc      ... 3.816
Radial Grid Type                 RadialGrid  ... OptM3 with GC (2021)
Angular Grid (max. ang.)         AngularGrid ... 1 (Lebedev-50)
Angular grid pruning method      GridPruning ... 4 (adaptive)
Weight generation scheme         WeightScheme... mBecke (2022)
Basis function cutoff            BFCut       ... 1.0000e-11
Integration weight cutoff        WCut        ... 1.0000e-14
Partially contracted basis set               ... on
Rotationally invariant grid construction     ... off
Angular grids for H and He will be reduced by one unit

Total number of grid points                  ...    22222
Total number of batches                      ...      187
Average number of points per batch           ...      118
Average number of grid points per atom       ...      717
UseSFitting                                  ... on

GRIDX 2
-------
General Integration Accuracy     IntAcc      ... 4.020
Radial Grid Type                 RadialGrid  ... OptM3 with GC (2021)
Angular Grid (max. ang.)         AngularGrid ... 2 (Lebedev-110)
Angular grid pruning method      GridPruning ... 4 (adaptive)
Weight generation scheme         WeightScheme... mBecke (2022)
Basis function cutoff            BFCut       ... 1.0000e-11
Integration weight cutoff        WCut        ... 1.0000e-14
Partially contracted basis set               ... on
Rotationally invariant grid construction     ... off
Angular grids for H and He will be reduced by one unit

Total number of grid points                  ...    51559
Total number of batches                      ...      416
Average number of points per batch           ...      123
Average number of grid points per atom       ...     1663
UseSFitting                                  ... on

GRIDX 3
-------
General Integration Accuracy     IntAcc      ... 4.338
Radial Grid Type                 RadialGrid  ... OptM3 with GC (2021)
Angular Grid (max. ang.)         AngularGrid ... 3 (Lebedev-194)
Angular grid pruning method      GridPruning ... 4 (adaptive)
Weight generation scheme         WeightScheme... mBecke (2022)
Basis function cutoff            BFCut       ... 1.0000e-11
Integration weight cutoff        WCut        ... 1.0000e-14
Partially contracted basis set               ... on
Rotationally invariant grid construction     ... off
Angular grids for H and He will be reduced by one unit

Total number of grid points                  ...   114032
Total number of batches                      ...      903
Average number of points per batch           ...      126
Average number of grid points per atom       ...     3678
UseSFitting                                  ... on
Initializing property integral containers    ... done (  0.0 sec)

SHARK setup successfully completed in   3.5 seconds

Maximum memory used throughout the entire STARTUP-calculation: 68.6 MB


           ************************************************************
           *        Program running with 20 parallel MPI-processes    *
           *              working on a common directory               *
           ************************************************************
-------------------------------------------------------------------------------
                                 ORCA GUESS
                   Start orbitals & Density for SCF / CASSCF
-------------------------------------------------------------------------------

------------
SCF SETTINGS
------------
Hamiltonian:
 Density Functional     Method          .... DFT(GTOs)
  Functional kind                       .... Exchange
  Functional name                       .... Re-regularized SCAN exchange by Furness et al
  Functional family                     .... MGGA
  Functional refs                              
    [ 0] J. W. Furness, A. D. Kaplan, J. Ning, J. P. Perdew, and J. Sun.,  J. Phys. Chem. Lett. 11, 8208-8215 (2020), doi: 10.1021/acs.jpclett.0c02405
    [ 1] J. W. Furness, A. D. Kaplan, J. Ning, J. P. Perdew, and J. Sun.,  J. Phys. Chem. Lett. 11, 9248-9248 (2020), doi: 10.1021/acs.jpclett.0c03077
  Functional external parameters        .... 6
    Parameter  0 _c1        =  6.670000e-01 : c1 parameter        
    Parameter  1 _c2        =  8.000000e-01 : c2 parameter        
    Parameter  2 _d         =  1.240000e+00 : d parameter         
    Parameter  3 _k1        =  6.500000e-02 : k1 parameter        
    Parameter  4 _eta       =  1.000000e-03 : eta parameter       
    Parameter  5 _dp2       =  3.610000e-01 : dp2 parameter       
  Functional kind                       .... Correlation
  Functional name                       .... Re-regularized SCAN correlation by Furness et al
  Functional family                     .... MGGA
  Functional refs                              
    [ 0] J. W. Furness, A. D. Kaplan, J. Ning, J. P. Perdew, and J. Sun.,  J. Phys. Chem. Lett. 11, 8208-8215 (2020), doi: 10.1021/acs.jpclett.0c02405
    [ 1] J. W. Furness, A. D. Kaplan, J. Ning, J. P. Perdew, and J. Sun.,  J. Phys. Chem. Lett. 11, 9248-9248 (2020), doi: 10.1021/acs.jpclett.0c03077
  Functional external parameters        .... 1
    Parameter  0 _eta       =  1.000000e-03 : Regularization parameter
 Gradients option       PostSCFGGA      .... off
 Hybrid DFT is turned on
   Fraction HF Exchange ScalHFX         ....  0.100000
   Scaling of DF-GGA-X  ScalDFX         ....  0.900000
   Scaling of DF-GGA-C  ScalDFC         ....  1.000000
   Scaling of DF-LDA-C  ScalLDAC        ....  1.000000
   Perturbative correction              ....  0.000000
   NL short-range parameter             .... 11.900000
 RI-approximation to the Coulomb term is turned on
   Number of AuxJ basis functions       .... 1367
   RIJ-COSX (HFX calculated with COS-X)).... on


General Settings:
 Integral files         IntName         .... rf_mecn_2H2O_freq_r2s_sw_004
 Hartree-Fock type      HFTyp           .... UHF
 Total Charge           Charge          ....   -2
 Multiplicity           Mult            ....    2
 Number of Electrons    NEL             ....  221
 Basis Dimension        Dim             ....  861
 Nuclear Repulsion      ENuc            ....   3238.7124891149 Eh

Convergence Acceleration:
 AO-DIIS                CNVDIIS         .... on
   Start iteration      DIISMaxIt       ....     0
   Startup error        DIISStart       ....  0.200000
   # of expansion vecs  DIISMaxEq       ....     5
   Bias factor          DIISBfac        ....   1.050
   Max. coefficient     DIISMaxC        ....  10.000
 MO-DIIS                CNVKDIIS        .... off
 Trust-Rad. Augm. Hess. CNVTRAH         .... auto
   Auto Start mean grad. ratio tolernc. ....  1.125000
   Auto Start start iteration           ....     1
   Auto Start num. interpolation iter.  ....    10
   Max. Number of Micro iterations      ....    24
   Max. Number of Macro iterations      .... Maxiter - #DIIS iter
   Number of Davidson start vectors     ....     2
   Converg. threshold    (grad. norm)   ....   1.000e-05
   Grad. Scal. Fac. for Micro threshold ....   0.100
   Minimum threshold for Micro iter.    ....   1.000e-02
   NR start threshold (gradient norm)   ....   1.000e-04
   Initial trust radius                 ....   0.400
   Minimum AH scaling param. (alpha)    ....   1.000
   Maximum AH scaling param. (alpha)    .... 1000.000
   Quad. conv. algorithm                .... NR
   White noise on init. David. guess    .... on
   Maximum white noise                  ....   0.010
   Pseudo random numbers                .... off
   Inactive MOs                         .... canonical
   Orbital update algorithm             .... Taylor
   Preconditioner                       .... Diag
   Full preconditioner red. dimension   ....   250
 SOSCF                  CNVSOSCF        .... on
   Start iteration      SOSCFMaxIt      ....   150
   Startup grad/error   SOSCFStart      ....  0.001000
   Hessian update       SOSCFHessUp     .... L-BFGS
 Level Shifting         CNVShift        .... on
   Level shift para.    LevelShift      ....    0.2500
   Turn off err/grad.   ShiftErr        ....    0.0000
 Zerner damping         CNVZerner       .... off
 Static damping         CNVDamp         .... on
   Fraction old density DampFac         ....    0.8500
   Max. Damping (<1)    DampMax         ....    0.9800
   Min. Damping (>=0)   DampMin         ....    0.0000
   Turn off err/grad.   DampErr         ....    0.0300

SCF Procedure:
 Maximum # iterations   MaxIter         ....  1500
 SCF integral mode      SCFMode         .... Direct
   Integral package                     .... SHARK and LIBINT hybrid scheme
 Reset frequency        DirectResetFreq ....    20
 Integral Threshold     Thresh          ....  2.500e-11 Eh
 Primitive CutOff       TCut            ....  2.500e-12 Eh

Convergence Tolerance:
 Convergence Check Mode ConvCheckMode   .... Total+1el-Energy
 Convergence forced     ConvForced      .... 0
 Energy Change          TolE            ....  1.000e-08 Eh
 1-El. energy change                    ....  1.000e-05 Eh
 Orbital Gradient       TolG            ....  1.000e-05
 Orbital Rotation angle TolX            ....  1.000e-05
 DIIS Error             TolErr          ....  5.000e-07

---------------------
INITIAL GUESS: MOREAD
---------------------
Guess MOs are being read from file: rf_mecn_2H2O_freq_r2s_sw_004.ges
Input Geometry matches current geometry (good)
Input basis set matches current basis set (good)
MOs were renormalized
MOs were reorthogonalized (Cholesky)
                      ------------------
                      INITIAL GUESS DONE (   1.2 sec)
                      ------------------
             **** ENERGY FILE WAS UPDATED (rf_mecn_2H2O_freq_r2s_sw_004.en.tmp) ****
Finished Guess after   1.9 sec
Maximum memory used throughout the entire GUESS-calculation: 77.8 MB


           ************************************************************
           *        Program running with 20 parallel MPI-processes    *
           *              working on a common directory               *
           ************************************************************

-------------------------------------------------------------------------------------------
                                      ORCA LEAN-SCF
                              memory conserving SCF solver
-------------------------------------------------------------------------------------------

--------------------
CPCM SOLVATION MODEL
--------------------
CPCM parameters:
  Epsilon                                         ...      35.6880
  Refrac                                          ...       1.3442
  Rsolv                                           ...       1.3000
  Surface type                                    ... GAUSSIAN VDW
  Discretization scheme                           ... Constant charge density
    Threshold for H atoms                         ...       5.0000 (charges/Ang^2)
    Threshold for non-H atoms                     ...       5.0000 (charges/Ang^2)
  Epsilon function type                           ...         CPCM
Solvent:                                          ... ACETONITRILE
SMD-CDS solvent descriptors:
  Soln                                            ...       1.3442
  Soln25                                          ...       1.3416
  Sola                                            ...       0.0700
  Solb                                            ...       0.3200
  Solg                                            ...      41.2500
  Solc                                            ...       0.0000
  Solh                                            ...       0.0000
Radii:
  Scheme                                          ... Element-dependent radii
  Radius for C  used is    3.4960 Bohr (=   1.8500 Ang.)
  Radius for F  used is    3.2692 Bohr (=   1.7300 Ang.)
  Radius for O  used is    4.0969 Bohr (=   2.1680 Ang.)
  Radius for H  used is    2.2677 Bohr (=   1.2000 Ang.)
Calculating surface                               ...        done! (  0.0s)
Cavity surface points                             ...         2653
Cavity Volume                                     ...    2623.2187
Cavity Surface-area                               ...    1353.0596
Calculating surface distance matrix               ...        done! (  0.1s)
Performing Cholesky decomposition & store         ...        done! (  0.2s)
Overall time for CPCM initialization              ...                 0.2s

----------------------------------------D-I-I-S--------------------------------------------
Iteration    Energy (Eh)           Delta-E    RMSDP     MaxDP     DIISErr   Damp  Time(sec)
-------------------------------------------------------------------------------------------
               ***  Starting incremental Fock matrix formation  ***
                              *** Initializing SOSCF ***
---------------------------------------S-O-S-C-F--------------------------------------
Iteration    Energy (Eh)           Delta-E    RMSDP     MaxDP     MaxGrad    Time(sec)
--------------------------------------------------------------------------------------
    1    -2105.9226486169009149     0.00e+00  2.12e-07  5.09e-05  2.45e-06    10.0
               *** Restarting incremental Fock matrix formation ***
    2    -2105.9226486171173747    -2.16e-10  1.10e-07  2.97e-05  1.87e-06     9.0
                  *** Gradient check signals convergence ***

               *****************************************************
               *                     SUCCESS                       *
               *           SCF CONVERGED AFTER   2 CYCLES          *
               *****************************************************

Recomputing exchange energy using gridx3       ... done (   10.861 sec)
Old exchange energy                            :    -22.727535938 Eh
New exchange energy                            :    -22.727571989 Eh
Exchange energy change after final integration :     -0.000036051 Eh
Total energy after final integration           :  -2105.922684668 Eh

SMD CDS free energy correction energy :                 2.83159     Kcal/mol
Total Energy after SMD CDS correction =             -2105.918172237 Eh
             **** ENERGY FILE WAS UPDATED (rf_mecn_2H2O_freq_r2s_sw_004.en.tmp) ****

----------------
TOTAL SCF ENERGY
----------------

Total Energy       :      -2105.91817223715725 Eh          -57304.94679 eV

Components:
Nuclear Repulsion  :       3238.71248911493058 Eh           88129.84726 eV
Electronic Energy  :      -5344.40896800532755 Eh         -145428.76147 eV
One Electron Energy:      -9434.50427263534584 Eh         -256725.91295 eV
Two Electron Energy:       4090.09530463001875 Eh          111297.15148 eV
CPCM Dielectric    :         -0.22616972672151 Eh              -6.15439 eV
SMD CDS (Gcds)     :          0.00451243133423 Eh               0.12279 eV

Virial components:
Potential Energy   :      -4204.81732635669050 Eh         -114418.89639 eV
Kinetic Energy     :       2098.89915411953325 Eh           57113.94960 eV
Virial Ratio       :          2.00334414262060

DFT components:
N(Alpha)           :      110.999970547056 electrons
N(Beta)            :      109.999968367042 electrons
N(Total)           :      220.999938914098 electrons
E(X)               :     -205.683138036520 Eh       
E(C)               :       -7.659379750201 Eh       
E(XC)              :     -213.342517786721 Eh       

CPCM Solvation Model Properties:
Surface-charge          :          1.98971590906753
Corrected charge        :          2.00000000000000
Outlying charge corr.   :          0.00000527975080 Eh               0.00014 eV
Free-energy (cav+disp)  :          0.00451243133423 Eh               0.12279 eV

---------------
SCF CONVERGENCE
---------------

  Last Energy change         ...    2.1646e-10  Tolerance :   1.0000e-08
  Last MAX-Density change    ...    2.9700e-05  Tolerance :   1.0000e-07
  Last RMS-Density change    ...    1.1026e-07  Tolerance :   5.0000e-09
  Last DIIS Error            ...    3.7798e-06  Tolerance :   5.0000e-07
  Last Orbital Gradient      ...    1.8740e-06  Tolerance :   1.0000e-05
  Last Orbital Rotation      ...    1.2076e-05  Tolerance :   1.0000e-05


----------------------
UHF SPIN CONTAMINATION
----------------------

Warning: in a DFT calculation there is little theoretical justification to 
         calculate <S**2> as in Hartree-Fock theory. We will do it anyways
         but you should keep in mind that the values have only limited relevance

Expectation value of <S**2>     :     0.754393
Ideal value S*(S+1) for S=0.5   :     0.750000
Deviation                       :     0.004393

----------------
ORBITAL ENERGIES
----------------
                 SPIN UP ORBITALS
  NO   OCC          E(Eh)            E(eV) 
   0   1.0000     -24.710017      -672.3938 
   1   1.0000     -24.709934      -672.3915 
   2   1.0000     -24.703263      -672.2100 
   3   1.0000     -24.693527      -671.9450 
   4   1.0000     -24.693479      -671.9437 
   5   1.0000     -24.685233      -671.7194 
   6   1.0000     -24.683550      -671.6735 
   7   1.0000     -24.679528      -671.5641 
   8   1.0000     -24.679463      -671.5623 
   9   1.0000     -24.678735      -671.5425 
  10   1.0000     -24.678695      -671.5414 
  11   1.0000     -24.675065      -671.4426 
  12   1.0000     -24.674927      -671.4389 
  13   1.0000     -24.673578      -671.4022 
  14   1.0000     -24.672887      -671.3834 
  15   1.0000     -19.068596      -518.8829 
  16   1.0000     -19.067577      -518.8552 
  17   1.0000     -19.057165      -518.5718 
  18   1.0000     -19.057092      -518.5698 
  19   1.0000     -10.409632      -283.2605 
  20   1.0000     -10.339414      -281.3498 
  21   1.0000     -10.327843      -281.0349 
  22   1.0000     -10.323625      -280.9201 
  23   1.0000     -10.323054      -280.9046 
  24   1.0000     -10.317019      -280.7404 
  25   1.0000     -10.312199      -280.6092 
  26   1.0000     -10.238344      -278.5995 
  27   1.0000      -1.331854       -36.2416 
  28   1.0000      -1.280952       -34.8565 
  29   1.0000      -1.277761       -34.7696 
  30   1.0000      -1.262714       -34.3602 
  31   1.0000      -1.254862       -34.1465 
  32   1.0000      -1.252966       -34.0949 
  33   1.0000      -1.245754       -33.8987 
  34   1.0000      -1.242911       -33.8213 
  35   1.0000      -1.235447       -33.6182 
  36   1.0000      -1.221906       -33.2498 
  37   1.0000      -1.217080       -33.1184 
  38   1.0000      -1.207695       -32.8631 
  39   1.0000      -1.202122       -32.7114 
  40   1.0000      -1.198929       -32.6245 
  41   1.0000      -1.194775       -32.5115 
  42   1.0000      -1.035777       -28.1849 
  43   1.0000      -0.970610       -26.4116 
  44   1.0000      -0.967981       -26.3401 
  45   1.0000      -0.946909       -25.7667 
  46   1.0000      -0.794726       -21.6256 
  47   1.0000      -0.783157       -21.3108 
  48   1.0000      -0.756540       -20.5865 
  49   1.0000      -0.724648       -19.7187 
  50   1.0000      -0.685492       -18.6532 
  51   1.0000      -0.653326       -17.7779 
  52   1.0000      -0.626817       -17.0565 
  53   1.0000      -0.599779       -16.3208 
  54   1.0000      -0.598710       -16.2917 
  55   1.0000      -0.597359       -16.2550 
  56   1.0000      -0.582563       -15.8523 
  57   1.0000      -0.575011       -15.6468 
  58   1.0000      -0.570838       -15.5333 
  59   1.0000      -0.563527       -15.3344 
  60   1.0000      -0.560997       -15.2655 
  61   1.0000      -0.548661       -14.9298 
  62   1.0000      -0.548026       -14.9125 
  63   1.0000      -0.543491       -14.7892 
  64   1.0000      -0.534607       -14.5474 
  65   1.0000      -0.529103       -14.3976 
  66   1.0000      -0.523421       -14.2430 
  67   1.0000      -0.514130       -13.9902 
  68   1.0000      -0.495187       -13.4747 
  69   1.0000      -0.478883       -13.0311 
  70   1.0000      -0.468242       -12.7415 
  71   1.0000      -0.467603       -12.7241 
  72   1.0000      -0.462654       -12.5895 
  73   1.0000      -0.448042       -12.1918 
  74   1.0000      -0.445227       -12.1152 
  75   1.0000      -0.443710       -12.0740 
  76   1.0000      -0.442404       -12.0384 
  77   1.0000      -0.438529       -11.9330 
  78   1.0000      -0.435617       -11.8537 
  79   1.0000      -0.433798       -11.8042 
  80   1.0000      -0.430892       -11.7252 
  81   1.0000      -0.429868       -11.6973 
  82   1.0000      -0.426138       -11.5958 
  83   1.0000      -0.421055       -11.4575 
  84   1.0000      -0.418828       -11.3969 
  85   1.0000      -0.411188       -11.1890 
  86   1.0000      -0.408705       -11.1214 
  87   1.0000      -0.406998       -11.0750 
  88   1.0000      -0.406457       -11.0603 
  89   1.0000      -0.402999       -10.9662 
  90   1.0000      -0.397170       -10.8075 
  91   1.0000      -0.396117       -10.7789 
  92   1.0000      -0.391745       -10.6599 
  93   1.0000      -0.390188       -10.6176 
  94   1.0000      -0.389204       -10.5908 
  95   1.0000      -0.384995       -10.4763 
  96   1.0000      -0.383969       -10.4483 
  97   1.0000      -0.379284       -10.3209 
  98   1.0000      -0.376356       -10.2412 
  99   1.0000      -0.368287       -10.0216 
 100   1.0000      -0.357866        -9.7380 
 101   1.0000      -0.341539        -9.2937 
 102   1.0000      -0.339124        -9.2280 
 103   1.0000      -0.331734        -9.0269 
 104   1.0000      -0.300778        -8.1846 
 105   1.0000      -0.267428        -7.2771 
 106   1.0000      -0.264910        -7.2086 
 107   1.0000      -0.248458        -6.7609 
 108   1.0000      -0.235142        -6.3985 
 109   1.0000      -0.232477        -6.3260 
 110   1.0000      -0.066130        -1.7995 
 111   0.0000       0.008913         0.2425 
 112   0.0000       0.039103         1.0641 
 113   0.0000       0.056489         1.5372 
 114   0.0000       0.065928         1.7940 
 115   0.0000       0.082889         2.2555 
 116   0.0000       0.091889         2.5004 
 117   0.0000       0.101501         2.7620 
 118   0.0000       0.122776         3.3409 
 119   0.0000       0.130141         3.5413 
 120   0.0000       0.138047         3.7565 
 121   0.0000       0.140900         3.8341 

                 SPIN DOWN ORBITALS
  NO   OCC          E(Eh)            E(eV) 
   0   1.0000     -24.709994      -672.3931 
   1   1.0000     -24.709910      -672.3908 
   2   1.0000     -24.702097      -672.1782 
   3   1.0000     -24.693157      -671.9350 
   4   1.0000     -24.693103      -671.9335 
   5   1.0000     -24.685066      -671.7148 
   6   1.0000     -24.683311      -671.6670 
   7   1.0000     -24.679081      -671.5519 
   8   1.0000     -24.678829      -671.5451 
   9   1.0000     -24.678278      -671.5301 
  10   1.0000     -24.678020      -671.5231 
  11   1.0000     -24.674945      -671.4394 
  12   1.0000     -24.674743      -671.4339 
  13   1.0000     -24.672904      -671.3838 
  14   1.0000     -24.672157      -671.3635 
  15   1.0000     -19.068599      -518.8829 
  16   1.0000     -19.067581      -518.8552 
  17   1.0000     -19.056675      -518.5585 
  18   1.0000     -19.056617      -518.5569 
  19   1.0000     -10.408304      -283.2244 
  20   1.0000     -10.337376      -281.2943 
  21   1.0000     -10.326337      -280.9939 
  22   1.0000     -10.320435      -280.8333 
  23   1.0000     -10.320394      -280.8322 
  24   1.0000     -10.313530      -280.6454 
  25   1.0000     -10.311446      -280.5887 
  26   1.0000     -10.237842      -278.5858 
  27   1.0000      -1.330883       -36.2152 
  28   1.0000      -1.279419       -34.8148 
  29   1.0000      -1.276538       -34.7364 
  30   1.0000      -1.261131       -34.3171 
  31   1.0000      -1.254226       -34.1292 
  32   1.0000      -1.251596       -34.0577 
  33   1.0000      -1.245647       -33.8958 
  34   1.0000      -1.241128       -33.7728 
  35   1.0000      -1.233681       -33.5702 
  36   1.0000      -1.221139       -33.2289 
  37   1.0000      -1.216488       -33.1023 
  38   1.0000      -1.206715       -32.8364 
  39   1.0000      -1.201180       -32.6858 
  40   1.0000      -1.198588       -32.6152 
  41   1.0000      -1.193578       -32.4789 
  42   1.0000      -1.034848       -28.1596 
  43   1.0000      -0.970553       -26.4101 
  44   1.0000      -0.967975       -26.3399 
  45   1.0000      -0.946148       -25.7460 
  46   1.0000      -0.784653       -21.3515 
  47   1.0000      -0.774723       -21.0813 
  48   1.0000      -0.746920       -20.3247 
  49   1.0000      -0.717455       -19.5229 
  50   1.0000      -0.680946       -18.5295 
  51   1.0000      -0.650501       -17.7010 
  52   1.0000      -0.623981       -16.9794 
  53   1.0000      -0.599044       -16.3008 
  54   1.0000      -0.596110       -16.2210 
  55   1.0000      -0.593409       -16.1475 
  56   1.0000      -0.579491       -15.7688 
  57   1.0000      -0.570356       -15.5202 
  58   1.0000      -0.569241       -15.4898 
  59   1.0000      -0.562404       -15.3038 
  60   1.0000      -0.556615       -15.1463 
  61   1.0000      -0.547510       -14.8985 
  62   1.0000      -0.543774       -14.7968 
  63   1.0000      -0.540829       -14.7167 
  64   1.0000      -0.533673       -14.5220 
  65   1.0000      -0.523943       -14.2572 
  66   1.0000      -0.521164       -14.1816 
  67   1.0000      -0.513251       -13.9663 
  68   1.0000      -0.494954       -13.4684 
  69   1.0000      -0.478854       -13.0303 
  70   1.0000      -0.467251       -12.7145 
  71   1.0000      -0.466440       -12.6925 
  72   1.0000      -0.462155       -12.5759 
  73   1.0000      -0.447398       -12.1743 
  74   1.0000      -0.444479       -12.0949 
  75   1.0000      -0.443323       -12.0634 
  76   1.0000      -0.441781       -12.0215 
  77   1.0000      -0.437812       -11.9135 
  78   1.0000      -0.434961       -11.8359 
  79   1.0000      -0.432897       -11.7797 
  80   1.0000      -0.430006       -11.7011 
  81   1.0000      -0.428932       -11.6718 
  82   1.0000      -0.425573       -11.5804 
  83   1.0000      -0.420121       -11.4321 
  84   1.0000      -0.417801       -11.3689 
  85   1.0000      -0.410287       -11.1645 
  86   1.0000      -0.407709       -11.0943 
  87   1.0000      -0.406476       -11.0608 
  88   1.0000      -0.405566       -11.0360 
  89   1.0000      -0.401930       -10.9371 
  90   1.0000      -0.396565       -10.7911 
  91   1.0000      -0.394764       -10.7421 
  92   1.0000      -0.391292       -10.6476 
  93   1.0000      -0.388514       -10.5720 
  94   1.0000      -0.384385       -10.4597 
  95   1.0000      -0.383892       -10.4462 
  96   1.0000      -0.381489       -10.3808 
  97   1.0000      -0.376638       -10.2488 
  98   1.0000      -0.371199       -10.1008 
  99   1.0000      -0.361015        -9.8237 
 100   1.0000      -0.352488        -9.5917 
 101   1.0000      -0.341102        -9.2819 
 102   1.0000      -0.338296        -9.2055 
 103   1.0000      -0.328105        -8.9282 
 104   1.0000      -0.298275        -8.1165 
 105   1.0000      -0.267214        -7.2713 
 106   1.0000      -0.264887        -7.2079 
 107   1.0000      -0.246378        -6.7043 
 108   1.0000      -0.233757        -6.3609 
 109   1.0000      -0.231936        -6.3113 
 110   0.0000      -0.013651        -0.3715 
 111   0.0000       0.023984         0.6526 
 112   0.0000       0.044753         1.2178 
 113   0.0000       0.061155         1.6641 
 114   0.0000       0.079810         2.1717 
 115   0.0000       0.084118         2.2890 
 116   0.0000       0.095135         2.5887 
 117   0.0000       0.104799         2.8517 
 118   0.0000       0.127789         3.4773 
 119   0.0000       0.136507         3.7146 
 120   0.0000       0.139210         3.7881 
*Only the first 10 virtual orbitals were printed.

                    ********************************
                    * MULLIKEN POPULATION ANALYSIS *
                    ********************************

--------------------------------------------
MULLIKEN ATOMIC CHARGES AND SPIN POPULATIONS
--------------------------------------------
   0 C :    0.446861    0.060448
   1 C :    0.296228    0.109896
   2 C :    0.230316    0.207813
   3 C :    0.241245    0.240303
   4 C :    0.264903    0.167161
   5 C :    0.261263    0.086141
   6 C :    0.316593    0.041697
   7 C :    0.325830    0.021726
   8 F :   -0.176754   -0.000828
   9 F :   -0.176866   -0.000843
  10 F :   -0.185258    0.012748
  11 F :   -0.204168    0.002555
  12 F :   -0.203929    0.002550
  13 F :   -0.225669    0.003912
  14 F :   -0.223869    0.003650
  15 F :   -0.231840    0.004011
  16 F :   -0.228216    0.003530
  17 F :   -0.219619    0.001596
  18 F :   -0.220475    0.001881
  19 F :   -0.211009    0.000608
  20 F :   -0.211722    0.001423
  21 F :   -0.218945    0.000735
  22 F :   -0.223271    0.001366
  23 O :   -0.551516    0.012796
  24 O :   -0.558637    0.013099
  25 O :   -0.749101   -0.000035
  26 H :    0.333607   -0.000000
  27 H :    0.358229   -0.000088
  28 H :    0.357390   -0.000209
  29 O :   -0.743081   -0.000103
  30 H :    0.331478    0.000462
Sum of atomic charges         :   -2.0000000
Sum of atomic spin populations:    1.0000000

-----------------------------------------------------
MULLIKEN REDUCED ORBITAL CHARGES AND SPIN POPULATIONS
-----------------------------------------------------
CHARGE
  0 C s       :     3.040671  s :     3.040671
      pz      :     0.636692  p :     2.132840
      px      :     0.653904
      py      :     0.842244
      dz2     :     0.071260  d :     0.340346
      dxz     :     0.082314
      dyz     :     0.060203
      dx2y2   :     0.062658
      dxy     :     0.063911
      f0      :     0.007744  f :     0.039282
      f+1     :     0.004888
      f-1     :     0.005521
      f+2     :     0.008058
      f-2     :     0.003823
      f+3     :     0.002854
      f-3     :     0.006394

  1 C s       :     3.098860  s :     3.098860
      pz      :     0.731002  p :     2.292991
      px      :     0.649796
      py      :     0.912193
      dz2     :     0.053108  d :     0.285342
      dxz     :     0.065933
      dyz     :     0.050029
      dx2y2   :     0.061590
      dxy     :     0.054682
      f0      :     0.005689  f :     0.026579
      f+1     :     0.004077
      f-1     :     0.003600
      f+2     :     0.004589
      f-2     :     0.001487
      f+3     :     0.002224
      f-3     :     0.004912

  2 C s       :     3.137695  s :     3.137695
      pz      :     0.727069  p :     2.312682
      px      :     0.662821
      py      :     0.922791
      dz2     :     0.050315  d :     0.293636
      dxz     :     0.061796
      dyz     :     0.059212
      dx2y2   :     0.070422
      dxy     :     0.051891
      f0      :     0.005312  f :     0.025671
      f+1     :     0.003761
      f-1     :     0.003235
      f+2     :     0.004692
      f-2     :     0.001675
      f+3     :     0.002098
      f-3     :     0.004897

  3 C s       :     3.132720  s :     3.132720
      pz      :     0.753564  p :     2.309199
      px      :     0.667388
      py      :     0.888246
      dz2     :     0.051633  d :     0.291422
      dxz     :     0.060463
      dyz     :     0.056628
      dx2y2   :     0.071942
      dxy     :     0.050755
      f0      :     0.005288  f :     0.025414
      f+1     :     0.003768
      f-1     :     0.003246
      f+2     :     0.004602
      f-2     :     0.001575
      f+3     :     0.002099
      f-3     :     0.004835

  4 C s       :     3.130043  s :     3.130043
      pz      :     0.739809  p :     2.291814
      px      :     0.648500
      py      :     0.903505
      dz2     :     0.051753  d :     0.287221
      dxz     :     0.063210
      dyz     :     0.053634
      dx2y2   :     0.066780
      dxy     :     0.051844
      f0      :     0.005596  f :     0.026020
      f+1     :     0.003733
      f-1     :     0.003401
      f+2     :     0.004733
      f-2     :     0.001561
      f+3     :     0.002065
      f-3     :     0.004931

  5 C s       :     3.142952  s :     3.142952
      pz      :     0.739429  p :     2.289269
      px      :     0.621665
      py      :     0.928175
      dz2     :     0.051439  d :     0.279785
      dxz     :     0.061250
      dyz     :     0.051011
      dx2y2   :     0.061370
      dxy     :     0.054716
      f0      :     0.005410  f :     0.026730
      f+1     :     0.003459
      f-1     :     0.003122
      f+2     :     0.005497
      f-2     :     0.002063
      f+3     :     0.002124
      f-3     :     0.005055

  6 C s       :     3.109485  s :     3.109485
      pz      :     0.729332  p :     2.289220
      px      :     0.584194
      py      :     0.975693
      dz2     :     0.047586  d :     0.258589
      dxz     :     0.056544
      dyz     :     0.045866
      dx2y2   :     0.054196
      dxy     :     0.054396
      f0      :     0.004706  f :     0.026114
      f+1     :     0.004029
      f-1     :     0.002485
      f+2     :     0.004935
      f-2     :     0.002957
      f+3     :     0.002518
      f-3     :     0.004484

  7 C s       :     3.018793  s :     3.018793
      pz      :     0.802262  p :     2.379337
      px      :     0.691866
      py      :     0.885210
      dz2     :     0.029936  d :     0.251288
      dxz     :     0.056228
      dyz     :     0.021253
      dx2y2   :     0.070566
      dxy     :     0.073305
      f0      :     0.001929  f :     0.024753
      f+1     :     0.003139
      f-1     :     0.001932
      f+2     :     0.003801
      f-2     :     0.002967
      f+3     :     0.006468
      f-3     :     0.004517

  8 F s       :     3.920830  s :     3.920830
      pz      :     1.540600  p :     5.238330
      px      :     1.860733
      py      :     1.836998
      dz2     :     0.006209  d :     0.016841
      dxz     :     0.003910
      dyz     :     0.004835
      dx2y2   :     0.001013
      dxy     :     0.000875
      f0      :     0.000197  f :     0.000753
      f+1     :     0.000163
      f-1     :     0.000209
      f+2     :     0.000080
      f-2     :     0.000085
      f+3     :     0.000008
      f-3     :     0.000010

  9 F s       :     3.920932  s :     3.920932
      pz      :     1.889084  p :     5.238347
      px      :     1.452326
      py      :     1.896937
      dz2     :     0.002377  d :     0.016835
      dxz     :     0.003532
      dyz     :     0.000198
      dx2y2   :     0.006889
      dxy     :     0.003839
      f0      :     0.000063  f :     0.000752
      f+1     :     0.000150
      f-1     :     0.000011
      f+2     :     0.000107
      f-2     :     0.000009
      f+3     :     0.000248
      f-3     :     0.000163

 10 F s       :     3.919100  s :     3.919100
      pz      :     1.694096  p :     5.249456
      px      :     1.842551
      py      :     1.712810
      dz2     :     0.002998  d :     0.016001
      dxz     :     0.002888
      dyz     :     0.005400
      dx2y2   :     0.002332
      dxy     :     0.002382
      f0      :     0.000087  f :     0.000701
      f+1     :     0.000070
      f-1     :     0.000156
      f+2     :     0.000120
      f-2     :     0.000167
      f+3     :     0.000052
      f-3     :     0.000049

 11 F s       :     3.922678  s :     3.922678
      pz      :     1.517036  p :     5.265208
      px      :     1.866274
      py      :     1.881898
      dz2     :     0.006526  d :     0.015629
      dxz     :     0.003736
      dyz     :     0.004102
      dx2y2   :     0.000698
      dxy     :     0.000566
      f0      :     0.000211  f :     0.000654
      f+1     :     0.000163
      f-1     :     0.000166
      f+2     :     0.000051
      f-2     :     0.000053
      f+3     :     0.000004
      f-3     :     0.000005

 12 F s       :     3.922804  s :     3.922804
      pz      :     1.896222  p :     5.264822
      px      :     1.459122
      py      :     1.909478
      dz2     :     0.002232  d :     0.015649
      dxz     :     0.003266
      dyz     :     0.000154
      dx2y2   :     0.006314
      dxy     :     0.003682
      f0      :     0.000055  f :     0.000654
      f+1     :     0.000130
      f-1     :     0.000011
      f+2     :     0.000091
      f-2     :     0.000007
      f+3     :     0.000212
      f-3     :     0.000148

 13 F s       :     3.922671  s :     3.922671
      pz      :     1.538862  p :     5.287571
      px      :     1.870970
      py      :     1.877739
      dz2     :     0.005916  d :     0.014821
      dxz     :     0.003502
      dyz     :     0.004075
      dx2y2   :     0.000727
      dxy     :     0.000601
      f0      :     0.000179  f :     0.000608
      f+1     :     0.000144
      f-1     :     0.000167
      f+2     :     0.000050
      f-2     :     0.000057
      f+3     :     0.000005
      f-3     :     0.000006

 14 F s       :     3.922832  s :     3.922832
      pz      :     1.898584  p :     5.285448
      px      :     1.470799
      py      :     1.916065
      dz2     :     0.002123  d :     0.014974
      dxz     :     0.003116
      dyz     :     0.000185
      dx2y2   :     0.006081
      dxy     :     0.003470
      f0      :     0.000052  f :     0.000615
      f+1     :     0.000121
      f-1     :     0.000010
      f+2     :     0.000086
      f-2     :     0.000006
      f+3     :     0.000205
      f-3     :     0.000135

 15 F s       :     3.921642  s :     3.921642
      pz      :     1.540735  p :     5.295043
      px      :     1.872047
      py      :     1.882261
      dz2     :     0.005854  d :     0.014559
      dxz     :     0.003452
      dyz     :     0.003936
      dx2y2   :     0.000728
      dxy     :     0.000589
      f0      :     0.000179  f :     0.000596
      f+1     :     0.000143
      f-1     :     0.000161
      f+2     :     0.000048
      f-2     :     0.000055
      f+3     :     0.000004
      f-3     :     0.000006

 16 F s       :     3.921589  s :     3.921589
      pz      :     1.899861  p :     5.291191
      px      :     1.474332
      py      :     1.916998
      dz2     :     0.002118  d :     0.014826
      dxz     :     0.003094
      dyz     :     0.000181
      dx2y2   :     0.006028
      dxy     :     0.003405
      f0      :     0.000051  f :     0.000610
      f+1     :     0.000120
      f-1     :     0.000010
      f+2     :     0.000085
      f-2     :     0.000006
      f+3     :     0.000204
      f-3     :     0.000133

 17 F s       :     3.921798  s :     3.921798
      pz      :     1.533472  p :     5.282015
      px      :     1.862201
      py      :     1.886342
      dz2     :     0.006108  d :     0.015176
      dxz     :     0.003777
      dyz     :     0.003904
      dx2y2   :     0.000762
      dxy     :     0.000626
      f0      :     0.000190  f :     0.000630
      f+1     :     0.000164
      f-1     :     0.000154
      f+2     :     0.000053
      f-2     :     0.000058
      f+3     :     0.000005
      f-3     :     0.000006

 18 F s       :     3.924029  s :     3.924029
      pz      :     1.899083  p :     5.280659
      px      :     1.465948
      py      :     1.915628
      dz2     :     0.002168  d :     0.015156
      dxz     :     0.003122
      dyz     :     0.000185
      dx2y2   :     0.006187
      dxy     :     0.003494
      f0      :     0.000052  f :     0.000632
      f+1     :     0.000126
      f-1     :     0.000010
      f+2     :     0.000088
      f-2     :     0.000005
      f+3     :     0.000212
      f-3     :     0.000138

 19 F s       :     3.922850  s :     3.922850
      pz      :     1.575013  p :     5.271627
      px      :     1.828178
      py      :     1.868436
      dz2     :     0.005115  d :     0.015867
      dxz     :     0.004412
      dyz     :     0.004035
      dx2y2   :     0.001154
      dxy     :     0.001151
      f0      :     0.000137  f :     0.000665
      f+1     :     0.000180
      f-1     :     0.000139
      f+2     :     0.000081
      f-2     :     0.000101
      f+3     :     0.000013
      f-3     :     0.000014

 20 F s       :     3.922841  s :     3.922841
      pz      :     1.890200  p :     5.272578
      px      :     1.470130
      py      :     1.912248
      dz2     :     0.002185  d :     0.015644
      dxz     :     0.003373
      dyz     :     0.000235
      dx2y2   :     0.006246
      dxy     :     0.003606
      f0      :     0.000056  f :     0.000658
      f+1     :     0.000127
      f-1     :     0.000009
      f+2     :     0.000098
      f-2     :     0.000012
      f+3     :     0.000214
      f-3     :     0.000142

 21 F s       :     3.924008  s :     3.924008
      pz      :     1.604752  p :     5.278583
      px      :     1.783930
      py      :     1.889900
      dz2     :     0.004343  d :     0.015687
      dxz     :     0.005230
      dyz     :     0.003188
      dx2y2   :     0.001443
      dxy     :     0.001484
      f0      :     0.000108  f :     0.000668
      f+1     :     0.000211
      f-1     :     0.000090
      f+2     :     0.000106
      f-2     :     0.000111
      f+3     :     0.000022
      f-3     :     0.000020

 22 F s       :     3.920522  s :     3.920522
      pz      :     1.872441  p :     5.286719
      px      :     1.500194
      py      :     1.914083
      dz2     :     0.001950  d :     0.015381
      dxz     :     0.003785
      dyz     :     0.000418
      dx2y2   :     0.005638
      dxy     :     0.003590
      f0      :     0.000059  f :     0.000649
      f+1     :     0.000110
      f-1     :     0.000006
      f+2     :     0.000121
      f-2     :     0.000030
      f+3     :     0.000188
      f-3     :     0.000135

 23 O s       :     3.843037  s :     3.843037
      pz      :     1.509464  p :     4.678862
      px      :     1.489279
      py      :     1.680118
      dz2     :     0.005002  d :     0.027792
      dxz     :     0.005817
      dyz     :     0.003982
      dx2y2   :     0.005759
      dxy     :     0.007232
      f0      :     0.000134  f :     0.001825
      f+1     :     0.000346
      f-1     :     0.000130
      f+2     :     0.000252
      f-2     :     0.000342
      f+3     :     0.000318
      f-3     :     0.000303

 24 O s       :     3.837583  s :     3.837583
      pz      :     1.584170  p :     4.691707
      px      :     1.366689
      py      :     1.740848
      dz2     :     0.002929  d :     0.027510
      dxz     :     0.007455
      dyz     :     0.001668
      dx2y2   :     0.007537
      dxy     :     0.007920
      f0      :     0.000190  f :     0.001837
      f+1     :     0.000274
      f-1     :     0.000045
      f+2     :     0.000272
      f-2     :     0.000168
      f+3     :     0.000457
      f-3     :     0.000432

 25 O s       :     3.806622  s :     3.806622
      pz      :     1.810262  p :     4.921811
      px      :     1.364051
      py      :     1.747498
      dz2     :     0.001662  d :     0.019463
      dxz     :     0.006013
      dyz     :     0.004382
      dx2y2   :     0.001425
      dxy     :     0.005982
      f0      :     0.000259  f :     0.001205
      f+1     :     0.000037
      f-1     :     0.000050
      f+2     :     0.000163
      f-2     :     0.000311
      f+3     :     0.000138
      f-3     :     0.000246

 26 H s       :     0.618507  s :     0.618507
      pz      :     0.015753  p :     0.047886
      px      :     0.015383
      py      :     0.016751

 27 H s       :     0.587686  s :     0.587686
      pz      :     0.016833  p :     0.054085
      px      :     0.023282
      py      :     0.013970

 28 H s       :     0.587561  s :     0.587561
      pz      :     0.016478  p :     0.055049
      px      :     0.026084
      py      :     0.012487

 29 O s       :     3.804561  s :     3.804561
      pz      :     1.884729  p :     4.918077
      px      :     1.640276
      py      :     1.393072
      dz2     :     0.002531  d :     0.019249
      dxz     :     0.004077
      dyz     :     0.002344
      dx2y2   :     0.008828
      dxy     :     0.001469
      f0      :     0.000247  f :     0.001194
      f+1     :     0.000081
      f-1     :     0.000216
      f+2     :     0.000192
      f-2     :     0.000089
      f+3     :    -0.000004
      f-3     :     0.000373

 30 H s       :     0.620567  s :     0.620567
      pz      :     0.016107  p :     0.047954
      px      :     0.013129
      py      :     0.018718


SPIN
  0 C s       :     0.013268  s :     0.013268
      pz      :     0.021144  p :     0.038833
      px      :     0.019514
      py      :    -0.001826
      dz2     :    -0.000045  d :     0.008117
      dxz     :    -0.000200
      dyz     :     0.004538
      dx2y2   :     0.002947
      dxy     :     0.000877
      f0      :     0.000054  f :     0.000231
      f+1     :    -0.000036
      f-1     :    -0.000016
      f+2     :     0.000038
      f-2     :     0.000086
      f+3     :     0.000004
      f-3     :     0.000100

  1 C s       :    -0.024500  s :    -0.024500
      pz      :     0.076793  p :     0.107767
      px      :     0.043380
      py      :    -0.012407
      dz2     :     0.005022  d :     0.026700
      dxz     :     0.001309
      dyz     :     0.003511
      dx2y2   :     0.017032
      dxy     :    -0.000175
      f0      :    -0.000074  f :    -0.000070
      f+1     :     0.000011
      f-1     :    -0.000041
      f+2     :    -0.000004
      f-2     :     0.000075
      f+3     :    -0.000053
      f-3     :     0.000016

  2 C s       :    -0.025602  s :    -0.025602
      pz      :     0.100608  p :     0.193235
      px      :     0.082638
      py      :     0.009989
      dz2     :     0.004652  d :     0.040588
      dxz     :     0.001288
      dyz     :     0.011568
      dx2y2   :     0.023245
      dxy     :    -0.000164
      f0      :    -0.000070  f :    -0.000407
      f+1     :    -0.000031
      f-1     :    -0.000136
      f+2     :    -0.000147
      f-2     :     0.000052
      f+3     :    -0.000053
      f-3     :    -0.000024

  3 C s       :    -0.030817  s :    -0.030817
      pz      :     0.135254  p :     0.229474
      px      :     0.094619
      py      :    -0.000398
[...]
 47:    471.77   0.000349    1.76  0.000231  (-0.005954 -0.003835  0.013432)
 48:    482.77   0.001348    6.81  0.000871  (-0.005273 -0.028730  0.004261)
 49:    514.63   0.001845    9.33  0.001119  (-0.002208 -0.030619 -0.013292)
 50:    526.86   0.001168    5.91  0.000692  (-0.005641 -0.023839  0.009590)
 51:    536.25   0.009584   48.43  0.005577  ( 0.015233  0.072577 -0.008822)
 52:    565.93   0.000707    3.57  0.000390  ( 0.012581 -0.012986 -0.007946)
 53:    569.71   0.001304    6.59  0.000714  (-0.005015 -0.014635  0.021798)
 54:    591.47   0.002022   10.22  0.001067  (-0.009567 -0.031227  0.000028)
 55:    600.86   0.000108    0.55  0.000056  (-0.006280  0.002731  0.003042)
 56:    606.40   0.000537    2.71  0.000276  (-0.005875 -0.013648 -0.007458)
 57:    629.77   0.023352  118.01  0.011571  (-0.001739  0.101731  0.034916)
 58:    648.07   0.081738  413.07  0.039359  (-0.012460 -0.192886 -0.044712)
 59:    678.13   0.073288  370.37  0.033726  ( 0.002727  0.177063  0.048653)
 60:    693.82   0.042945  217.03  0.019316  (-0.000814 -0.131937 -0.043676)
 61:    711.33   0.023681  119.67  0.010389  ( 0.011945 -0.064472 -0.078035)
 62:    727.60   0.027486  138.91  0.011789  ( 0.052215 -0.030301 -0.090245)
 63:    740.96   0.035249  178.13  0.014846  (-0.002764  0.115653  0.038239)
 64:    781.92   0.008479   42.85  0.003384  ( 0.015387 -0.043474 -0.035456)
 65:    807.18   0.014921   75.40  0.005769  (-0.021008 -0.070834  0.017601)
 66:    833.34   0.019562   98.86  0.007325  ( 0.017183  0.083729 -0.004424)
 67:    911.89   0.000555    2.81  0.000190  ( 0.004158 -0.010890  0.007362)
 68:    934.73   0.003583   18.11  0.001196  (-0.003081  0.027511  0.020731)
 69:    955.06   0.143844  726.93  0.047000  (-0.001414 -0.212837 -0.041219)
 70:    983.11   0.034384  173.76  0.010914  ( 0.022420 -0.095496  0.035946)
 71:   1006.21   0.133614  675.23  0.041439  (-0.053110 -0.196361  0.007763)
 72:   1024.89   0.219976  1111.67  0.066979  (-0.006615  0.220320  0.135627)
 73:   1030.82   0.026662  134.74  0.008071  (-0.075332  0.037143 -0.031889)
 74:   1059.05   0.124088  627.09  0.036564  ( 0.083695 -0.045225 -0.165874)
 75:   1063.27   0.104697  529.09  0.030728  (-0.141243  0.097986 -0.034308)
 76:   1066.75   0.413813  2091.24  0.121055  (-0.039055 -0.287778 -0.191608)
 77:   1075.12   0.032603  164.76  0.009463  ( 0.088137  0.011784 -0.039451)
 78:   1090.44   0.036526  184.59  0.010453  ( 0.088239  0.012424 -0.050125)
 79:   1097.63   0.236139  1193.35  0.067136  ( 0.158927 -0.204148 -0.014205)
 80:   1116.01   0.092939  469.68  0.025988  (-0.065339 -0.018039 -0.146265)
 81:   1132.65   0.027844  140.71  0.007671  (-0.037024 -0.056148 -0.056108)
 82:   1170.48   0.113532  573.74  0.030269  ( 0.138272 -0.014836  0.104545)
 83:   1171.78   0.290269  1466.90  0.077303  ( 0.047634  0.273040  0.021980)
 84:   1257.73   0.413066  2087.47  0.102488  (-0.038888 -0.316057 -0.032920)
 85:   1387.50   0.167055  844.23  0.037573  ( 0.015258  0.190544  0.032137)
 86:   1672.33   0.041813  211.31  0.007803  (-0.042448  0.056545 -0.052947)
 87:   1683.39   0.097116  490.79  0.018003  ( 0.115154 -0.048775  0.048620)
 88:   1699.93   0.152586  771.11  0.028011  ( 0.157542  0.011652  0.055279)
 89:   3419.78   0.335018  1693.04  0.030571  ( 0.163043 -0.002295  0.063111)
 90:   3450.70   0.136197  688.28  0.012317  ( 0.090111  0.027426  0.058692)
 91:   3853.80   0.020280  102.49  0.001642  (-0.034916 -0.020551 -0.000860)
 92:   3855.87   0.006818   34.45  0.000552  (-0.012892 -0.019635  0.000223)

* The epsilon (eps) is given for a Dirac delta lineshape.
** The dipole moment derivative (T) already includes vibrational overlap.

The first frequency considered to be a vibration is 7
The total number of vibrations considered is 86


--------------------------
THERMOCHEMISTRY AT 298.15K
--------------------------

Temperature         ...   298.15 K
Pressure            ...     1.00 atm
Total Mass          ...   449.09 AMU
Quasi RRHO          ...     True
Cut-Off Frequency   ...     1.00 cm^-1

Throughout the following assumptions are being made:
  (1) The electronic state is orbitally nondegenerate
      but the spin degeneracy is treated
  (2) There are no thermally accessible electronically excited states
  (3) Hindered rotations indicated by low frequency modes are not
      treated as such but are treated as vibrations and this may
      cause some error
  (4) All equations used are the standard statistical mechanics
      equations for an ideal gas
  (5) All vibrations are strictly harmonic

freq.      20.90  E(vib)   ...       0.56 
freq.      24.18  E(vib)   ...       0.56 
freq.      33.77  E(vib)   ...       0.55 
freq.      40.51  E(vib)   ...       0.54 
freq.      45.03  E(vib)   ...       0.53 
freq.      48.44  E(vib)   ...       0.53 
freq.      57.84  E(vib)   ...       0.51 
freq.      59.13  E(vib)   ...       0.51 
freq.      69.68  E(vib)   ...       0.50 
freq.      71.89  E(vib)   ...       0.50 
freq.      81.25  E(vib)   ...       0.48 
freq.      90.70  E(vib)   ...       0.47 
freq.     101.64  E(vib)   ...       0.46 
freq.     104.41  E(vib)   ...       0.46 
freq.     136.37  E(vib)   ...       0.42 
freq.     152.81  E(vib)   ...       0.40 
freq.     162.69  E(vib)   ...       0.39 
freq.     172.38  E(vib)   ...       0.38 
freq.     186.84  E(vib)   ...       0.36 
freq.     202.52  E(vib)   ...       0.35 
freq.     204.14  E(vib)   ...       0.35 
freq.     212.65  E(vib)   ...       0.34 
freq.     230.17  E(vib)   ...       0.32 
freq.     242.90  E(vib)   ...       0.31 
freq.     248.96  E(vib)   ...       0.31 
freq.     252.43  E(vib)   ...       0.30 
freq.     258.54  E(vib)   ...       0.30 
freq.     283.29  E(vib)   ...       0.28 
freq.     322.61  E(vib)   ...       0.25 
freq.     327.81  E(vib)   ...       0.24 
freq.     329.68  E(vib)   ...       0.24 
freq.     332.01  E(vib)   ...       0.24 
freq.     337.32  E(vib)   ...       0.24 
freq.     348.96  E(vib)   ...       0.23 
freq.     361.99  E(vib)   ...       0.22 
freq.     370.43  E(vib)   ...       0.21 
freq.     380.94  E(vib)   ...       0.21 
freq.     419.75  E(vib)   ...       0.18 
freq.     431.83  E(vib)   ...       0.18 
freq.     462.04  E(vib)   ...       0.16 
freq.     471.77  E(vib)   ...       0.15 
freq.     482.77  E(vib)   ...       0.15 
freq.     514.63  E(vib)   ...       0.13 
freq.     526.86  E(vib)   ...       0.13 
freq.     536.25  E(vib)   ...       0.12 
freq.     565.93  E(vib)   ...       0.11 
freq.     569.71  E(vib)   ...       0.11 
freq.     591.47  E(vib)   ...       0.10 
freq.     600.86  E(vib)   ...       0.10 
freq.     606.40  E(vib)   ...       0.10 
freq.     629.77  E(vib)   ...       0.09 
freq.     648.07  E(vib)   ...       0.08 
freq.     678.13  E(vib)   ...       0.08 
freq.     693.82  E(vib)   ...       0.07 
freq.     711.33  E(vib)   ...       0.07 
freq.     727.60  E(vib)   ...       0.06 
freq.     740.96  E(vib)   ...       0.06 
freq.     781.92  E(vib)   ...       0.05 
freq.     807.18  E(vib)   ...       0.05 
freq.     833.34  E(vib)   ...       0.04 
freq.     911.89  E(vib)   ...       0.03 
freq.     934.73  E(vib)   ...       0.03 
freq.     955.06  E(vib)   ...       0.03 
freq.     983.11  E(vib)   ...       0.02 
freq.    1006.21  E(vib)   ...       0.02 
freq.    1024.89  E(vib)   ...       0.02 
freq.    1030.82  E(vib)   ...       0.02 
freq.    1059.05  E(vib)   ...       0.02 
freq.    1063.27  E(vib)   ...       0.02 
freq.    1066.75  E(vib)   ...       0.02 
freq.    1075.12  E(vib)   ...       0.02 
freq.    1090.44  E(vib)   ...       0.02 
freq.    1097.63  E(vib)   ...       0.02 
freq.    1116.01  E(vib)   ...       0.01 
freq.    1132.65  E(vib)   ...       0.01 
freq.    1170.48  E(vib)   ...       0.01 
freq.    1171.78  E(vib)   ...       0.01 
freq.    1257.73  E(vib)   ...       0.01 
freq.    1387.50  E(vib)   ...       0.00 
freq.    1672.33  E(vib)   ...       0.00 
freq.    1683.39  E(vib)   ...       0.00 
freq.    1699.93  E(vib)   ...       0.00 
freq.    3419.78  E(vib)   ...       0.00 
freq.    3450.70  E(vib)   ...       0.00 
freq.    3853.80  E(vib)   ...       0.00 
freq.    3855.87  E(vib)   ...       0.00 

------------
INNER ENERGY
------------

The inner energy is: U= E(el) + E(ZPE) + E(vib) + E(rot) + E(trans)
    E(el)   - is the total energy from the electronic structure calculation
              = E(kin-el) + E(nuc-el) + E(el-el) + E(nuc-nuc)
    E(ZPE)  - the the zero temperature vibrational energy from the frequency calculation
    E(vib)  - the the finite temperature correction to E(ZPE) due to population
              of excited vibrational states
    E(rot)  - is the rotational thermal energy
    E(trans)- is the translational thermal energy

Summary of contributions to the inner energy U:
Electronic energy                ...  -2105.92818956 Eh
Zero point energy                ...      0.13922140 Eh      87.36 kcal/mol
Thermal vibrational correction   ...      0.02673603 Eh      16.78 kcal/mol
Thermal rotational correction    ...      0.00141627 Eh       0.89 kcal/mol
Thermal translational correction ...      0.00141627 Eh       0.89 kcal/mol
-----------------------------------------------------------------------
Total thermal energy                  -2105.75939959 Eh


Summary of corrections to the electronic energy:
(perhaps to be used in another calculation)
Total thermal correction                  0.02956858 Eh      18.55 kcal/mol
Non-thermal (ZPE) correction              0.13922140 Eh      87.36 kcal/mol
-----------------------------------------------------------------------
Total correction                          0.16878997 Eh     105.92 kcal/mol


--------
ENTHALPY
--------

The enthalpy is H = U + kB*T
                kB is Boltzmann's constant
Total thermal energy              ...  -2105.75939959 Eh 
Thermal Enthalpy correction       ...      0.00094421 Eh       0.59 kcal/mol
-----------------------------------------------------------------------
Total Enthalpy                    ...  -2105.75845538 Eh


Note: Only C1 symmetry has been detected, increase convergence thresholds 
      if your molecule has a higher symmetry. Symmetry factor of 1.0 is   
      used for the rotational entropy correction. 
 

Note: Rotational entropy computed according to Herzberg 
Infrared and Raman Spectra, Chapter V,1, Van Nostrand Reinhold, 1945 
Point Group:  C1, Symmetry Number:   1  
Rotational constants in cm-1:     0.013686     0.002983     0.002771 

Vibrational entropy computed according to the QRRHO of S. Grimme
Chem.Eur.J. 2012 18 9955 using a reference frequency of 100.0 cm-1


-------
ENTROPY
-------

The entropy contributions are T*S = T*(S(el)+S(vib)+S(rot)+S(trans))
     S(el)   - electronic entropy
     S(vib)  - vibrational entropy
     S(rot)  - rotational entropy
     S(trans)- translational entropy
The entropies will be listed as multiplied by the temperature to get
units of energy

Electronic entropy                ...      0.00065446 Eh      0.41 kcal/mol
Vibrational entropy               ...      0.04873857 Eh     30.58 kcal/mol
Rotational entropy                ...      0.01706181 Eh     10.71 kcal/mol
Translational entropy             ...      0.02099854 Eh     13.18 kcal/mol
-----------------------------------------------------------------------
Final entropy term                ...      0.08745337 Eh     54.88 kcal/mol

In case the symmetry of your molecule has not been determined correctly
or in case you have a reason to use a different symmetry number we print 
out the resulting rotational entropy values for sn=1,12:

 non-linear molecules -----------------------------------
|  sn= 1 | S(rot)=       0.01706181 Eh     10.71 kcal/mol|
|  sn= 2 | S(rot)=       0.01640735 Eh     10.30 kcal/mol|
|  sn= 3 | S(rot)=       0.01602452 Eh     10.06 kcal/mol|
|  sn= 4 | S(rot)=       0.01575289 Eh      9.89 kcal/mol|
|  sn= 5 | S(rot)=       0.01554221 Eh      9.75 kcal/mol|
|  sn= 6 | S(rot)=       0.01537006 Eh      9.64 kcal/mol|
|  sn= 7 | S(rot)=       0.01522451 Eh      9.55 kcal/mol|
|  sn= 8 | S(rot)=       0.01509844 Eh      9.47 kcal/mol|
|  sn= 9 | S(rot)=       0.01498723 Eh      9.40 kcal/mol|
|  sn=10 | S(rot)=       0.01488775 Eh      9.34 kcal/mol|
|  sn=11 | S(rot)=       0.01479776 Eh      9.29 kcal/mol|
|  sn=12 | S(rot)=       0.01471560 Eh      9.23 kcal/mol|
 linear molecules ---------------------------------------
|  Dinfh | S(rot)=       0.01088574 Eh      6.83 kcal/mol|
|  Cinfv | S(rot)=       0.01154020 Eh      7.24 kcal/mol|
 --------------------------------------------------------


-------------------
GIBBS FREE ENERGY
-------------------

The Gibbs free energy is G = H - T*S

Total enthalpy                    ...  -2105.75845538 Eh 
Total entropy correction          ...     -0.08745337 Eh    -54.88 kcal/mol
-----------------------------------------------------------------------
Final Gibbs free energy         ...  -2105.84590875 Eh

For completeness - the Gibbs free energy minus the electronic energy
G-E(el)                           ...      0.08228081 Eh     51.63 kcal/mol


Maximum memory used throughout the entire PROP-calculation: 753.4 MB

--------------------------------
SUGGESTED CITATIONS FOR THIS RUN
--------------------------------

Below you find a list of papers that are relevant to this ORCA run
We neither can nor want to force you to cite these papers, but we appreciate if you do
You receive ORCA, which is the product of decades of hard work by many enthusiastic individuals, for free
The only thing we kindly ask in return is that you cite our papers,
We deeply appreciate it, if you show your appreciation for ORCA by not just citing the generic ORCA reference.

Please note that relegating all ORCA citations to the supporting information does *not* help us.
SI sections are not indexed - citations you put there will not count into any citation statistics
But we need these citations in order to attract the funding resources that allow us to do what we are doing

Therefore, if you are a happy ORCA user, please consider citing a few of the papers listed below in the main body of your paper

In addition to the list printed below, the program has created the file rf_mecn_2H2O_freq_r2s_sw_004.bibtex that contains the list in bibtex format
You can import this file easily into all common literature databanks and citation aid programs


List of essential papers. We consider these as the minimum necessary citations

  1. Neese,F.
     Software update: the ORCA program system, version 5.0
     WIRES Comput. Molec. Sci., 2022 12(1)e1606
     doi.org/10.1002/wcms.1606

List of papers to cite with high priority. The work reported in these papers was absolutely
necessary for this run to complete.
Our perspective: the developers of density functionals and basis sets usually get cited in chemistry papers
Good! But without the algorithms to do something with them, the functionals or basis sets would not do anything.
Hence, in our opinion, the algorithm design and method developments papers are equally worthy of getting cited

  1. Neese,F.
     An improvement of the resolution of the identity approximation for the formation of the Coulomb matrix
     J. Comp. Chem., 2003 24(14)1740-1747
     doi.org/10.1002/jcc.10318
  2. Neese,F.; Wennmohs,F.; Hansen,A.; Becker,U.
     Efficient, approximate and parallel Hartree-Fock and hybrid DFT calculations. A 'chain-of-spheres' algorithm for the Hartree-Fock exchange
     Chem. Phys., 2009 356(1-3)98-109
     doi.org/10.1016/j.chemphys.2008.10.036
  3. Bykov,D.; Petrenko,T.; Izsak,R.; Kossmann,S.; Becker,U.; Valeev,E.; Neese,F.
     Efficient implementation of the analytic second derivatives of Hartree-Fock and hybrid DFT energies: a detailed analysis of different approximations
     Molec. Phys., 2015 113 1961-1977
     doi.org/10.1080/00268976.2015.1025114
  4. Garcia-Rates,M.; Neese,F.
     Efficient implementation of the analytical second derivatives of hartree-fock and hybrid DFT energies within the framework of the conductor-like polarizable continuum model
     J. Comput. Chem., 2019 40 1816-1828
     doi.org/10.1002/jcc.25833
  5. Garcia-Rates,M.; Neese,F.
     Effect of the Solute Cavity on the Solvation Energy and its Derivatives within the Framework of the Gaussian Charge Scheme
     J. Comput. Chem., 2020 41 922-939
     doi.org/10.1002/jcc.26139
  6. Helmich-Paris,B.; de Souza,B.; Neese,F.; Izsák,R.
     An improved chain of spheres for exchange algorithm
     J. Chem. Phys., 2021 155 104109
     doi.org/doi: 10.1063/5.0058766.
  7. Neese,F.
     The SHARK Integral Generation and Digestion System
     J. Comp. Chem., 2022  1-16
     doi.org/10.1002/jcc.26942
  8. Lehtola,S.; Steigemann,C.; Oliveira,M.; Marques,M.
     Recent developments in Libxc - A comprehensive library of functionals for density functional theory
     Software X, 2018 7 
     doi.org/10.1016/j.softx.2017.11.002
  9. Grimme,S.; Antony,J.; Ehrlich,S.; Krieg,H.
     A consistent and accurate ab initio parametrization of density functional dispersion correction (DFT-D) for the 94 elements H-Pu
     J. Chem. Phys., 2010 132 154104
     doi.org/10.1063/1.3382344
 10. Grimme,S.; Ehrlich,S.; Goerigk,L.
     Effect of the damping function in dispersion corrected density functional theory
     J. Comput. Chem., 2011 32(7)1456-1465
     doi.org/10.1002/jcc.21759
 11. Bursch,M.; Neugebauer,H.; Ehlert,S.; Grimme,S.
     Dispersion corrected r2SCAN based global hybrid functionals: r2SCANh, r2SCAN0, and r2SCAN50
     J. Phys. Chem., 2022 156(13)134105
     doi.org/10.1063/5.0086040

List of suggested additional citations. These are papers that are important in the 'surrounding' of 
of this run, or papers that preceded the highly important papers. If you like your results we are grateful for a citation.

  1. Izsak,R.; Neese,F.
     An overlap fitted chain of spheres exchange method
     J. Chem. Phys., 2011 135 144105
     doi.org/10.1063/1.3646921
  2. Izsak,R.; Hansen,A.; Neese,F.
     The resolution of identity and chain of spheres approximations for the LPNO-CCSD singles Fock term
     Molec. Phys., 2012 110 2413-2417
     doi.org/10.1080/00268976.2012.687466
  3. Neese,F.
     The ORCA program system
     WIRES Comput. Molec. Sci., 2012 2(1)73-78
     doi.org/10.1002/wcms.81
  4. Izsak,R.; Neese,F.; Klopper,W.
     Robust fitting techniques in the chain of spheres approximation to the Fock exchange: The role of the complementary space
     J. Chem. Phys., 2013 139 
     doi.org/10.1063/1.4819264
  5. Neese,F.
     Software update: the ORCA program system, version 4.0
     WIRES Comput. Molec. Sci., 2018 8(1)1-6
     doi.org/10.1002/wcms.1327
  6. Neese,F.; Wennmohs,F.; Becker,U.; Riplinger,C.
     The ORCA quantum chemistry program package
     J. Chem. Phys., 2020 152 Art. No. L224108
     doi.org/10.1063/5.0004608
  7. Wittmann,L.; Neugebauer,H.; Grimme,S.; Bursch,M.
     Dispersion-corrected r2SCAN based double-hybrid functionals
     J. Chem. Phys., 2023 159(22)224103
     doi.org/10.1063/5.0174988

List of optional additional citations

  1. Neese,F.
     Approximate second-order SCF convergence for spin unrestricted wavefunctions
     Chem. Phys. Lett., 2000 325(1-3)93-98
     doi.org/10.1016/s0009-2614(00)00662-x

Timings for individual modules:

Sum of individual times          ...     1990.999 sec (=  33.183 min)
Startup calculation              ...        4.061 sec (=   0.068 min)   0.2 %
SCF iterations                   ...       35.517 sec (=   0.592 min)   1.8 %
Property integrals               ...      528.468 sec (=   8.808 min)  26.5 %
SCF Response                     ...     1090.262 sec (=  18.171 min)  54.8 %
Property calculations            ...      332.692 sec (=   5.545 min)  16.7 %
                             ****ORCA TERMINATED NORMALLY****
TOTAL RUN TIME: 0 days 0 hours 33 minutes 11 seconds 753 msec
