
                                 *****************
                                 * O   R   C   A *
                                 *****************

                                            #,                                       
                                            ###                                      
                                            ####                                     
                                            #####                                    
                                            ######                                   
                                           ########,                                 
                                     ,,################,,,,,                         
                               ,,#################################,,                 
                          ,,##########################################,,             
                       ,#########################################, ''#####,          
                    ,#############################################,,   '####,        
                  ,##################################################,,,,####,       
                ,###########''''           ''''###############################       
              ,#####''   ,,,,##########,,,,          '''####'''          '####       
            ,##' ,,,,###########################,,,                        '##       
           ' ,,###''''                  '''############,,,                           
         ,,##''                                '''############,,,,        ,,,,,,###''
      ,#''                                            '''#######################'''  
     '                                                          ''''####''''         
             ,#######,   #######,   ,#######,      ##                                
            ,#'     '#,  ##    ##  ,#'     '#,    #''#        ######   ,####,        
            ##       ##  ##   ,#'  ##            #'  '#       #        #'  '#        
            ##       ##  #######   ##           ,######,      #####,   #    #        
            '#,     ,#'  ##    ##  '#,     ,#' ,#      #,         ##   #,  ,#        
             '#######'   ##     ##  '#######'  #'      '#     #####' # '####'        



                  #######################################################
                  #                        -***-                        #
                  #          Department of theory and spectroscopy      #
                  #    Directorship and core code : Frank Neese         #
                  #        Max Planck Institute fuer Kohlenforschung    #
                  #                Kaiser Wilhelm Platz 1               #
                  #                 D-45470 Muelheim/Ruhr               #
                  #                      Germany                        #
                  #                                                     #
                  #                  All rights reserved                #
                  #                        -***-                        #
                  #######################################################


                         Program Version 5.0.3 -  RELEASE  -


 With contributions from (in alphabetic order):
   Daniel Aravena         : Magnetic Suceptibility
   Michael Atanasov       : Ab Initio Ligand Field Theory (pilot matlab implementation)
   Alexander A. Auer      : GIAO ZORA, VPT2 properties, NMR spectrum
   Ute Becker             : Parallelization
   Giovanni Bistoni       : ED, misc. LED, open-shell LED, HFLD
   Martin Brehm           : Molecular dynamics
   Dmytro Bykov           : SCF Hessian
   Vijay G. Chilkuri      : MRCI spin determinant printing, contributions to CSF-ICE
   Dipayan Datta          : RHF DLPNO-CCSD density
   Achintya Kumar Dutta   : EOM-CC, STEOM-CC
   Dmitry Ganyushin       : Spin-Orbit,Spin-Spin,Magnetic field MRCI
   Miquel Garcia          : C-PCM and meta-GGA Hessian, CC/C-PCM, Gaussian charge scheme
   Yang Guo               : DLPNO-NEVPT2, F12-NEVPT2, CIM, IAO-localization
   Andreas Hansen         : Spin unrestricted coupled pair/coupled cluster methods
   Benjamin Helmich-Paris : MC-RPA, TRAH-SCF, COSX integrals
   Lee Huntington         : MR-EOM, pCC
   Robert Izsak           : Overlap fitted RIJCOSX, COSX-SCS-MP3, EOM
   Marcus Kettner         : VPT2
   Christian Kollmar      : KDIIS, OOCD, Brueckner-CCSD(T), CCSD density, CASPT2, CASPT2-K
   Simone Kossmann        : Meta GGA functionals, TD-DFT gradient, OOMP2, MP2 Hessian
   Martin Krupicka        : Initial AUTO-CI
   Lucas Lang             : DCDCAS
   Marvin Lechner         : AUTO-CI (C++ implementation), FIC-MRCC
   Dagmar Lenk            : GEPOL surface, SMD
   Dimitrios Liakos       : Extrapolation schemes; Compound Job, initial MDCI parallelization
   Dimitrios Manganas     : Further ROCIS development; embedding schemes
   Dimitrios Pantazis     : SARC Basis sets
   Anastasios Papadopoulos: AUTO-CI, single reference methods and gradients
   Taras Petrenko         : DFT Hessian,TD-DFT gradient, ASA, ECA, R-Raman, ABS, FL, XAS/XES, NRVS
   Peter Pinski           : DLPNO-MP2, DLPNO-MP2 Gradient
   Christoph Reimann      : Effective Core Potentials
   Marius Retegan         : Local ZFS, SOC
   Christoph Riplinger    : Optimizer, TS searches, QM/MM, DLPNO-CCSD(T), (RO)-DLPNO pert. Triples
   Tobias Risthaus        : Range-separated hybrids, TD-DFT gradient, RPA, STAB
   Michael Roemelt        : Original ROCIS implementation
   Masaaki Saitow         : Open-shell DLPNO-CCSD energy and density
   Barbara Sandhoefer     : DKH picture change effects
   Avijit Sen             : IP-ROCIS
   Kantharuban Sivalingam : CASSCF convergence, NEVPT2, FIC-MRCI
   Bernardo de Souza      : ESD, SOC TD-DFT
   Georgi Stoychev        : AutoAux, RI-MP2 NMR, DLPNO-MP2 response
   Willem Van den Heuvel  : Paramagnetic NMR
   Boris Wezisla          : Elementary symmetry handling
   Frank Wennmohs         : Technical directorship


 We gratefully acknowledge several colleagues who have allowed us to
 interface, adapt or use parts of their codes:
   Stefan Grimme, W. Hujo, H. Kruse, P. Pracht,  : VdW corrections, initial TS optimization,
                  C. Bannwarth, S. Ehlert          DFT functionals, gCP, sTDA/sTD-DF
   Ed Valeev, F. Pavosevic, A. Kumar             : LibInt (2-el integral package), F12 methods
   Garnet Chan, S. Sharma, J. Yang, R. Olivares  : DMRG
   Ulf Ekstrom                                   : XCFun DFT Library
   Mihaly Kallay                                 : mrcc  (arbitrary order and MRCC methods)
   Jiri Pittner, Ondrej Demel                    : Mk-CCSD
   Frank Weinhold                                : gennbo (NPA and NBO analysis)
   Christopher J. Cramer and Donald G. Truhlar   : smd solvation model
   Lars Goerigk                                  : TD-DFT with DH, B97 family of functionals
   V. Asgeirsson, H. Jonsson                     : NEB implementation
   FAccTs GmbH                                   : IRC, NEB, NEB-TS, DLPNO-Multilevel, CI-OPT
                                                   MM, QMMM, 2- and 3-layer-ONIOM, Crystal-QMMM,
                                                   LR-CPCM, SF, NACMEs, symmetry and pop. for TD-DFT,
                                                   nearIR, NL-DFT gradient (VV10), updates on ESD,
                                                   ML-optimized integration grids
   S Lehtola, MJT Oliveira, MAL Marques          : LibXC Library
   Liviu Ungur et al                             : ANISO software


 Your calculation uses the libint2 library for the computation of 2-el integrals
 For citations please refer to: http://libint.valeyev.net

 Your ORCA version has been built with support for libXC version: 5.1.0
 For citations please refer to: https://tddft.org/programs/libxc/

 This ORCA versions uses:
   CBLAS   interface :  Fast vector & matrix operations
   LAPACKE interface :  Fast linear algebra routines
   SCALAPACK package :  Parallel linear algebra routines
   Shared memory     :  Shared parallel matrices
   BLAS/LAPACK       :  OpenBLAS 0.3.15  USE64BITINT DYNAMIC_ARCH NO_AFFINITY SkylakeX SINGLE_THREADED
        Core in use  :  SkylakeX
   Copyright (c) 2011-2014, The OpenBLAS Project


Your calculation utilizes the atom-pairwise dispersion correction
with the Becke-Johnson damping scheme (D3BJ)
Cite in your paper:
S.Grimme, S.Ehrlich, L.Goerigk, J Comput Chem, (2011), 32, 1456–1465 
S.Grimme, J.Antony, S.Ehrlich and H.Krieg, J.Chem.Phys., 132, (2010), 154104 
   

Your calculation utilizes the SMD solvation module
Please cite in your paper:
A.V. Marenich, C.J. Cramer, D.G. Truhlar J. Phys. Chem. B, 113, (2009), 6378 

================================================================================

----- Orbital basis set information -----
Your calculation utilizes the basis: def2-TZVP
   F. Weigend and R. Ahlrichs, Phys. Chem. Chem. Phys. 7, 3297 (2005).

----- AuxJ basis set information -----
Your calculation utilizes the auxiliary basis: def2/J
   F. Weigend, Phys. Chem. Chem. Phys. 8, 1057 (2006).

================================================================================
                                        WARNINGS
                       Please study these warnings very carefully!
================================================================================


WARNING: your system is open-shell and RHF/RKS was chosen
  ===> : WILL SWITCH to UHF/UKS


WARNING: Geometry Optimization
  ===> : Switching off AutoStart
         For restart on a previous wavefunction, please use MOREAD

INFO   : the flag for use of the SHARK integral package has been found!

================================================================================
                                       INPUT FILE
================================================================================
NAME = rf_mecn_opt_TPS_C3_D_B.inp
|  1> !TPSSh def2-TZVP opt d3 TightSCF SlowConv defgrid2
|  2>  
|  3> %pal
|  4> nprocs 20
|  5> end
|  6>  
|  7> %scf
|  8> MaxIter 1500
|  9> end
| 10>  
| 11> %maxcore 8000
| 12>  
| 13> !CPCM
| 14> %cpcm smd true
| 15> SMDsolvent "ACETONITRILE"
| 16> end
| 17>  
| 18> * xyz -1 2
| 19> 6        4.790427000     -0.033865800     -0.529943200
| 20> 8        5.449345000     -1.206924000     -0.894594600
| 21> 8        4.978223000      1.323071000     -0.737377200
| 22> 6        3.506687600     -0.338741600      0.376153800
| 23> 6        2.222300000      0.400524800     -0.110681600
| 24> 6        0.900506800     -0.386389800      0.175703000
| 25> 6       -0.395261200      0.487294000      0.065549000
| 26> 6       -1.705693600     -0.364773800     -0.068373600
| 27> 6       -3.005136200      0.445344800      0.258164000
| 28> 6       -4.319880200     -0.214526000     -0.270540800
| 29> 9        3.211587400     -1.692050400      0.412735200
| 30> 9        3.741061800      0.055285800      1.689948800
| 31> 9        2.125696800      1.616867800      0.483236600
| 32> 9        0.794028800     -1.413561400     -0.700839000
| 33> 9        0.958350600     -0.884509000      1.435093400
| 34> 9       -0.498373400      1.260265600      1.173340200
| 35> 9       -0.299075000      1.289512600     -1.020910800
| 36> 9       -1.641790400     -1.418189000      0.779523800
| 37> 9       -1.792381400     -0.831391600     -1.336863600
| 38> 9       -2.918792200      1.679227200     -0.295171200
| 39> 9       -3.119771000      0.573779800      1.598579800
| 40> 9       -4.383115600     -1.504377600      0.089127600
| 41> 9       -5.365669800      0.430528600      0.260394200
| 42> 9       -4.396020400     -0.128550600     -1.602941800
| 43> *
| 44> 
| 45>                          ****END OF INPUT****
================================================================================

                       *****************************
                       * Geometry Optimization Run *
                       *****************************

Geometry optimization settings:
Update method            Update   .... BFGS
Choice of coordinates    CoordSys .... Z-matrix Internals
Initial Hessian          InHess   .... Almoef's Model

Convergence Tolerances:
Energy Change            TolE     ....  5.0000e-06 Eh
Max. Gradient            TolMAXG  ....  3.0000e-04 Eh/bohr
RMS Gradient             TolRMSG  ....  1.0000e-04 Eh/bohr
Max. Displacement        TolMAXD  ....  4.0000e-03 bohr
RMS Displacement         TolRMSD  ....  2.0000e-03 bohr
Strict Convergence                ....  False
------------------------------------------------------------------------------
                        ORCA OPTIMIZATION COORDINATE SETUP
------------------------------------------------------------------------------

The optimization will be done in new redundant internal coordinates
Making redundant internal coordinates   ...  (new redundants) done
Evaluating the initial hessian          ...  (Almloef) done
Evaluating the coordinates              ...  done
Calculating the B-matrix                .... done
Calculating the G-matrix                .... done
Diagonalizing the G-matrix              .... done
Small eigenvalue found = 5.678e-03
Small eigenvalue found = 1.583e-02
The first mode is                       ....   53
The number of degrees of freedom        ....   66

    -----------------------------------------------------------------
                    Redundant Internal Coordinates


    -----------------------------------------------------------------
         Definition                    Initial Value    Approx d2E/dq
    -----------------------------------------------------------------
      1. B(O   1,C   0)                  1.3940         0.551454   
      2. B(O   2,C   0)                  1.3855         0.568952   
      3. B(C   3,C   0)                  1.6006         0.288221   
      4. B(C   4,C   3)                  1.5599         0.334759   
      5. B(C   5,C   4)                  1.5647         0.328824   
      6. B(C   6,C   5)                  1.5667         0.326486   
      7. B(C   7,C   6)                  1.5688         0.323927   
      8. B(C   8,C   7)                  1.5657         0.327637   
      9. B(C   9,C   8)                  1.5632         0.330714   
     10. B(F  10,C   3)                  1.3856         0.528443   
     11. B(F  11,C   3)                  1.3915         0.517117   
     12. B(F  12,C   4)                  1.3570         0.586881   
     13. B(F  13,C   5)                  1.3545         0.592326   
     14. B(F  14,C   5)                  1.3556         0.590092   
     15. B(F  15,C   6)                  1.3547         0.591865   
     16. B(F  16,C   6)                  1.3540         0.593567   
     17. B(F  17,C   7)                  1.3538         0.593973   
     18. B(F  18,C   7)                  1.3544         0.592672   
     19. B(F  19,C   8)                  1.3550         0.591238   
     20. B(F  20,C   8)                  1.3514         0.599114   
     21. B(F  21,C   9)                  1.3406         0.623533   
     22. B(F  22,C   9)                  1.3385         0.628179   
     23. B(F  23,C   9)                  1.3373         0.630929   
     24. A(O   2,C   0,C   3)          112.3347         0.371210   
     25. A(O   1,C   0,C   3)          111.5249         0.369222   
     26. A(O   1,C   0,O   2)          136.1318         0.413163   
     27. A(C   4,C   3,F  11)          107.4072         0.373095   
     28. A(C   4,C   3,F  10)          107.2033         0.374492   
     29. A(C   0,C   3,F  10)          111.8265         0.364982   
     30. A(C   0,C   3,C   4)          113.1687         0.341363   
     31. A(C   0,C   3,F  11)          110.2099         0.363632   
     32. A(F  10,C   3,F  11)          106.7094         0.399684   
     33. A(C   3,C   4,F  12)          110.2926         0.381351   
     34. A(C   3,C   4,C   5)          113.5839         0.349005   
     35. A(C   5,C   4,F  12)          108.0911         0.380169   
     36. A(C   4,C   5,C   6)          113.9128         0.347536   
     37. A(C   6,C   5,F  14)          107.7906         0.380059   
     38. A(C   4,C   5,F  13)          109.2282         0.380779   
     39. A(C   6,C   5,F  13)          108.2026         0.380308   
     40. A(F  13,C   5,F  14)          109.0206         0.417483   
     41. A(C   4,C   5,F  14)          108.5900         0.380529   
     42. A(C   5,C   6,C   7)          113.2023         0.346660   
     43. A(F  15,C   6,F  16)          108.8752         0.417862   
     44. A(C   7,C   6,F  16)          108.2186         0.379927   
     45. A(C   5,C   6,F  16)          109.1523         0.380446   
     46. A(C   7,C   6,F  15)          108.4284         0.379738   
     47. A(C   5,C   6,F  15)          108.8835         0.380256   
     48. A(C   8,C   7,F  18)          108.6915         0.380579   
     49. A(C   6,C   7,F  18)          108.6955         0.379828   
     50. A(C   8,C   7,F  17)          108.1296         0.380723   
     51. A(C   6,C   7,F  17)          109.2524         0.379972   
     52. A(C   6,C   7,C   8)          113.2298         0.346865   
     53. A(F  17,C   7,F  18)          108.7561         0.418014   
     54. A(F  19,C   8,F  20)          108.8987         0.418476   
     55. A(C   7,C   8,C   9)          114.1471         0.348078   
     56. A(C   9,C   8,F  20)          107.7127         0.381912   
     57. A(C   7,C   8,F  20)          109.0521         0.381293   
     58. A(C   9,C   8,F  19)          107.4499         0.381036   
     59. A(C   7,C   8,F  19)          109.4572         0.380419   
     60. A(F  22,C   9,F  23)          108.6464         0.426961   
     61. A(F  21,C   9,F  23)          109.0552         0.426394   
     62. A(C   8,C   9,F  23)          110.9604         0.385362   
     63. A(F  21,C   9,F  22)          108.6877         0.426061   
     64. A(C   8,C   9,F  22)          108.6349         0.385069   
     65. A(C   8,C   9,F  21)          110.7995         0.384572   
     66. D(F  11,C   3,C   0,O   2)    -70.4768         0.006601   
     67. D(F  11,C   3,C   0,O   1)    108.6317         0.006601   
     68. D(F  10,C   3,C   0,O   1)     -9.8890         0.006601   
     69. D(F  10,C   3,C   0,O   2)    171.0025         0.006601   
     70. D(C   4,C   3,C   0,O   1)   -131.0839         0.006601   
     71. D(C   4,C   3,C   0,O   2)     49.8076         0.006601   
     72. D(F  12,C   4,C   3,F  10)    146.3851         0.008543   
     73. D(F  12,C   4,C   3,C   0)    -89.8453         0.008543   
     74. D(C   5,C   4,C   3,C   0)    148.6429         0.008543   
     75. D(F  12,C   4,C   3,F  11)     32.0233         0.008543   
     76. D(C   5,C   4,C   3,F  10)     24.8733         0.008543   
     77. D(C   5,C   4,C   3,F  11)    -89.4885         0.008543   
     78. D(F  13,C   5,C   4,C   3)    -74.9661         0.008276   
     79. D(C   6,C   5,C   4,F  12)     41.2001         0.008276   
     80. D(C   6,C   5,C   4,C   3)    163.9326         0.008276   
     81. D(F  14,C   5,C   4,F  12)    -78.9166         0.008276   
     82. D(F  14,C   5,C   4,C   3)     43.8158         0.008276   
     83. D(F  13,C   5,C   4,F  12)    162.3014         0.008276   
     84. D(F  16,C   6,C   5,C   4)     42.3872         0.008700   
     85. D(F  15,C   6,C   5,F  14)     44.2190         0.008700   
     86. D(F  16,C   6,C   5,F  13)    -79.2837         0.008700   
     87. D(F  15,C   6,C   5,F  13)    161.9826         0.008700   
     88. D(F  15,C   6,C   5,C   4)    -76.3465         0.008700   
     89. D(C   7,C   6,C   5,F  13)     41.3107         0.008700   
     90. D(C   7,C   6,C   5,F  14)    -76.4529         0.008700   
     91. D(F  16,C   6,C   5,F  14)    162.9527         0.008700   
     92. D(C   7,C   6,C   5,C   4)    162.9815         0.008700   
     93. D(F  17,C   7,C   6,C   5)     41.7939         0.008578   
     94. D(C   8,C   7,C   6,F  16)    -76.5134         0.008578   
     95. D(C   8,C   7,C   6,F  15)     41.4341         0.008578   
     96. D(C   8,C   7,C   6,C   5)    162.3638         0.008578   
     97. D(F  18,C   7,C   6,F  16)     44.3783         0.008578   
     98. D(F  18,C   7,C   6,F  15)    162.3257         0.008578   
     99. D(F  18,C   7,C   6,C   5)    -76.7446         0.008578   
    100. D(F  17,C   7,C   6,F  16)    162.9167         0.008578   
    101. D(F  17,C   7,C   6,F  15)    -79.1358         0.008578   
    102. D(F  20,C   8,C   7,F  18)    162.0243         0.008755   
    103. D(F  20,C   8,C   7,F  17)     44.1231         0.008755   
    104. D(F  20,C   8,C   7,C   6)    -77.0818         0.008755   
    105. D(F  19,C   8,C   7,F  18)    -78.9355         0.008755   
    106. D(F  19,C   8,C   7,F  17)    163.1633         0.008755   
    107. D(F  19,C   8,C   7,C   6)     41.9584         0.008755   
    108. D(C   9,C   8,C   7,F  18)     41.5227         0.008755   
    109. D(C   9,C   8,C   7,F  17)    -76.3785         0.008755   
    110. D(C   9,C   8,C   7,C   6)    162.4166         0.008755   
    111. D(F  23,C   9,C   8,F  20)    167.4828         0.008903   
    112. D(F  23,C   9,C   8,F  19)     50.3013         0.008903   
    113. D(F  23,C   9,C   8,C   7)    -71.2711         0.008903   
    114. D(F  22,C   9,C   8,F  20)     48.1091         0.008903   
    115. D(F  22,C   9,C   8,F  19)    -69.0724         0.008903   
    116. D(F  22,C   9,C   8,C   7)    169.3552         0.008903   
    117. D(F  21,C   9,C   8,F  20)    -71.2185         0.008903   
    118. D(F  21,C   9,C   8,F  19)    171.5999         0.008903   
    119. D(F  21,C   9,C   8,C   7)     50.0276         0.008903   
    -----------------------------------------------------------------

Number of atoms                         .... 24
Number of degrees of freedom            .... 119

         *************************************************************
         *                GEOMETRY OPTIMIZATION CYCLE   1            *
         *************************************************************
---------------------------------
CARTESIAN COORDINATES (ANGSTROEM)
---------------------------------
  C      4.790427   -0.033866   -0.529943
  O      5.449345   -1.206924   -0.894595
  O      4.978223    1.323071   -0.737377
  C      3.506688   -0.338742    0.376154
  C      2.222300    0.400525   -0.110682
  C      0.900507   -0.386390    0.175703
  C     -0.395261    0.487294    0.065549
  C     -1.705694   -0.364774   -0.068374
  C     -3.005136    0.445345    0.258164
  C     -4.319880   -0.214526   -0.270541
  F      3.211587   -1.692050    0.412735
  F      3.741062    0.055286    1.689949
  F      2.125697    1.616868    0.483237
  F      0.794029   -1.413561   -0.700839
  F      0.958351   -0.884509    1.435093
  F     -0.498373    1.260266    1.173340
  F     -0.299075    1.289513   -1.020911
  F     -1.641790   -1.418189    0.779524
  F     -1.792381   -0.831392   -1.336864
  F     -2.918792    1.679227   -0.295171
  F     -3.119771    0.573780    1.598580
  F     -4.383116   -1.504378    0.089128
  F     -5.365670    0.430529    0.260394
  F     -4.396020   -0.128551   -1.602942

----------------------------
CARTESIAN COORDINATES (A.U.)
----------------------------
  NO LB      ZA    FRAG     MASS         X           Y           Z
   0 C     6.0000    0    12.011    9.052595   -0.063997   -1.001448
   1 O     8.0000    0    15.999   10.297770   -2.280756   -1.690539
   2 O     8.0000    0    15.999    9.407478    2.500242   -1.393441
   3 C     6.0000    0    12.011    6.626679   -0.640129    0.710828
   4 C     6.0000    0    12.011    4.199538    0.756882   -0.209158
   5 C     6.0000    0    12.011    1.701711   -0.730171    0.332031
   6 C     6.0000    0    12.011   -0.746935    0.920852    0.123870
   7 C     6.0000    0    12.011   -3.223294   -0.689323   -0.129207
   8 C     6.0000    0    12.011   -5.678884    0.841580    0.487859
   9 C     6.0000    0    12.011   -8.163391   -0.405395   -0.511248
  10 F     9.0000    0    18.998    6.069021   -3.197512    0.779956
  11 F     9.0000    0    18.998    7.069582    0.104475    3.193540
  12 F     9.0000    0    18.998    4.016985    3.055437    0.913185
  13 F     9.0000    0    18.998    1.500497   -2.671244   -1.324394
  14 F     9.0000    0    18.998    1.811020   -1.671480    2.711934
  15 F     9.0000    0    18.998   -0.941789    2.381557    2.217292
  16 F     9.0000    0    18.998   -0.565170    2.436826   -1.929242
  17 F     9.0000    0    18.998   -3.102534   -2.679989    1.473086
  18 F     9.0000    0    18.998   -3.387110   -1.571102   -2.526306
  19 F     9.0000    0    18.998   -5.515718    3.173280   -0.557793
  20 F     9.0000    0    18.998   -5.895513    1.084287    3.020878
  21 F     9.0000    0    18.998   -8.282888   -2.842862    0.168427
  22 F     9.0000    0    18.998  -10.139646    0.813581    0.492074
  23 F     9.0000    0    18.998   -8.307275   -0.242925   -3.029121

--------------------------------
INTERNAL COORDINATES (ANGSTROEM)
--------------------------------
 C      0   0   0     0.000000000000     0.00000000     0.00000000
 O      1   0   0     1.393990356793     0.00000000     0.00000000
 O      1   2   0     1.385486802956   136.13177198     0.00000000
 C      1   2   3     1.600608594862   111.52489317   181.18992567
 C      4   1   2     1.559863783763   113.16872737   228.91614990
 C      5   4   1     1.564732561934   113.58394786   148.64287440
 C      6   5   4     1.566675459667   113.91280616   163.93256239
 C      7   6   5     1.568817348692   113.20226571   162.98152714
 C      8   7   6     1.565717094808   113.22984595   162.36375422
 C      9   8   7     1.563173062643   114.14707705   162.41661495
 F      4   1   2     1.385592665621   111.82651119   350.11101305
 F      4   1   2     1.391490625050   110.20991618   108.63170802
 F      5   4   1     1.357041377479   110.29260564   270.15468021
 F      6   5   4     1.354527570075   109.22822656   285.03385927
 F      6   5   4     1.355556277776   108.59004089    43.81583148
 F      7   6   5     1.354739297058   108.88346185   283.65347401
 F      7   6   5     1.353957667090   109.15230848    42.38718856
 F      8   7   6     1.353771473879   109.25240264    41.79387651
 F      8   7   6     1.354368423305   108.69554158   283.25540020
 F      9   8   7     1.355028009646   109.45719767    41.95842364
 F      9   8   7     1.351425618925   109.05210362   282.91820052
 F     10   9   8     1.340551089588   110.79953142    50.02756898
 F     10   9   8     1.338530275591   108.63493714   169.35523750
 F     10   9   8     1.337341214598   110.96044107   288.72891896

---------------------------
INTERNAL COORDINATES (A.U.)
---------------------------
 C      0   0   0     0.000000000000     0.00000000     0.00000000
 O      1   0   0     2.634260007667     0.00000000     0.00000000
 O      1   2   0     2.618190619750   136.13177198     0.00000000
 C      1   2   3     3.024711891890   111.52489317   181.18992567
 C      4   1   2     2.947715357535   113.16872737   228.91614990
 C      5   4   1     2.956916014884   113.58394786   148.64287440
 C      6   5   4     2.960587559506   113.91280616   163.93256239
 C      7   6   5     2.964635143173   113.20226571   162.98152714
 C      8   7   6     2.958776512386   113.22984595   162.36375422
 C      9   8   7     2.953968988318   114.14707705   162.41661495
 F      4   1   2     2.618390671194   111.82651119   350.11101305
 F      4   1   2     2.629536199263   110.20991618   108.63170802
 F      5   4   1     2.564436555835   110.29260564   270.15468021
 F      6   5   4     2.559686148288   109.22822656   285.03385927
 F      6   5   4     2.561630124115   108.59004089    43.81583148
 F      7   6   5     2.560086254300   108.88346185   283.65347401
 F      7   6   5     2.558609187723   109.15230848    42.38718856
 F      8   7   6     2.558257333546   109.25240264    41.79387651
 F      8   7   6     2.559385404477   108.69554158   283.25540020
 F      9   8   7     2.560631842023   109.45719767    41.95842364
 F      9   8   7     2.553824310132   109.05210362   282.91820052
 F     10   9   8     2.533274427850   110.79953142    50.02756898
 F     10   9   8     2.529455642830   108.63493714   169.35523750
 F     10   9   8     2.527208643196   110.96044107   288.72891896

---------------------
BASIS SET INFORMATION
---------------------
There are 3 groups of distinct atoms

 Group   1 Type C   : 11s6p2d1f contracted to 5s3p2d1f pattern {62111/411/11/1}
 Group   2 Type O   : 11s6p2d1f contracted to 5s3p2d1f pattern {62111/411/11/1}
 Group   3 Type F   : 11s6p2d1f contracted to 5s3p2d1f pattern {62111/411/11/1}

Atom   0C    basis set group =>   1
Atom   1O    basis set group =>   2
Atom   2O    basis set group =>   2
Atom   3C    basis set group =>   1
Atom   4C    basis set group =>   1
Atom   5C    basis set group =>   1
Atom   6C    basis set group =>   1
Atom   7C    basis set group =>   1
Atom   8C    basis set group =>   1
Atom   9C    basis set group =>   1
Atom  10F    basis set group =>   3
Atom  11F    basis set group =>   3
Atom  12F    basis set group =>   3
Atom  13F    basis set group =>   3
Atom  14F    basis set group =>   3
Atom  15F    basis set group =>   3
Atom  16F    basis set group =>   3
Atom  17F    basis set group =>   3
Atom  18F    basis set group =>   3
Atom  19F    basis set group =>   3
Atom  20F    basis set group =>   3
Atom  21F    basis set group =>   3
Atom  22F    basis set group =>   3
Atom  23F    basis set group =>   3
---------------------------------
AUXILIARY/J BASIS SET INFORMATION
---------------------------------
There are 3 groups of distinct atoms

 Group   1 Type C   : 12s5p4d2f1g contracted to 6s4p3d1f1g pattern {711111/2111/211/2/1}
 Group   2 Type O   : 12s5p4d2f1g contracted to 6s4p3d1f1g pattern {711111/2111/211/2/1}
 Group   3 Type F   : 12s5p4d2f1g contracted to 6s4p3d1f1g pattern {711111/2111/211/2/1}

Atom   0C    basis set group =>   1
Atom   1O    basis set group =>   2
Atom   2O    basis set group =>   2
Atom   3C    basis set group =>   1
Atom   4C    basis set group =>   1
Atom   5C    basis set group =>   1
Atom   6C    basis set group =>   1
Atom   7C    basis set group =>   1
Atom   8C    basis set group =>   1
Atom   9C    basis set group =>   1
Atom  10F    basis set group =>   3
Atom  11F    basis set group =>   3
Atom  12F    basis set group =>   3
Atom  13F    basis set group =>   3
Atom  14F    basis set group =>   3
Atom  15F    basis set group =>   3
Atom  16F    basis set group =>   3
Atom  17F    basis set group =>   3
Atom  18F    basis set group =>   3
Atom  19F    basis set group =>   3
Atom  20F    basis set group =>   3
Atom  21F    basis set group =>   3
Atom  22F    basis set group =>   3
Atom  23F    basis set group =>   3


           ************************************************************
           *        Program running with 20 parallel MPI-processes    *
           *              working on a common directory               *
           ************************************************************
------------------------------------------------------------------------------
                           ORCA GTO INTEGRAL CALCULATION
                           -- RI-GTO INTEGRALS CHOSEN --
------------------------------------------------------------------------------
------------------------------------------------------------------------------
                   ___                                                        
                  /   \      - P O W E R E D   B Y -                         
                 /     \                                                     
                 |  |  |   _    _      __       _____    __    __             
                 |  |  |  | |  | |    /  \     |  _  \  |  |  /  |          
                  \  \/   | |  | |   /    \    | | | |  |  | /  /          
                 / \  \   | |__| |  /  /\  \   | |_| |  |  |/  /          
                |  |  |   |  __  | /  /__\  \  |    /   |      \           
                |  |  |   | |  | | |   __   |  |    \   |  |\   \          
                \     /   | |  | | |  |  |  |  | |\  \  |  | \   \       
                 \___/    |_|  |_| |__|  |__|  |_| \__\ |__|  \__/        
                                                                              
                      - O R C A' S   B I G   F R I E N D -                    
                                      &                                       
                       - I N T E G R A L  F E E D E R -                       
                                                                              
 v1 FN, 2020, v2 2021                                                         
------------------------------------------------------------------------------


Reading SHARK input file rf_mecn_opt_TPS_C3_D_B.SHARKINP.tmp ... ok
----------------------
SHARK INTEGRAL PACKAGE
----------------------

Number of atoms                             ...     24
Number of basis functions                   ...    744
Number of shells                            ...    264
Maximum angular momentum                    ...      3
Integral batch strategy                     ... SHARK/LIBINT Hybrid
RI-J (if used) integral strategy            ... SPLIT-RIJ (Revised 2003 algorithm where possible)
Printlevel                                  ...      1
Contraction scheme used                     ... SEGMENTED contraction
Coulomb Range Separation                    ... NOT USED
Exchange Range Separation                   ... NOT USED
Finite Nucleus Model                        ... NOT USED
Auxiliary Coulomb fitting basis             ... AVAILABLE
   # of basis functions in Aux-J            ...   1176
   # of shells in Aux-J                     ...    360
   Maximum angular momentum in Aux-J        ...      4
Auxiliary J/K fitting basis                 ... NOT available
Auxiliary Correlation fitting basis         ... NOT available
Auxiliary 'external' fitting basis          ... NOT available
Integral threshold                          ...     2.500000e-11
Primitive cut-off                           ...     2.500000e-12
Primitive pair pre-selection threshold      ...     2.500000e-12

Calculating pre-screening integrals         ... done (  0.1 sec) Dimension = 264
Organizing shell pair data                  ... done (  0.3 sec)
Shell pair information
Total number of shell pairs                 ...     34980
Shell pairs after pre-screening             ...     21558
Total number of primitive shell pairs       ...    115968
Primitive shell pairs kept                  ...     45891
          la=0 lb=0:   4029 shell pairs
          la=1 lb=0:   5862 shell pairs
          la=1 lb=1:   2053 shell pairs
          la=2 lb=0:   3201 shell pairs
          la=2 lb=1:   2374 shell pairs
          la=2 lb=2:    673 shell pairs
          la=3 lb=0:   1456 shell pairs
          la=3 lb=1:   1146 shell pairs
          la=3 lb=2:    615 shell pairs
          la=3 lb=3:    149 shell pairs

Calculating one electron integrals          ... done (  0.1 sec)
Calculating RI/J V-Matrix + Cholesky decomp.... done (  0.1 sec)
Calculating Nuclear repulsion               ... done (  0.0 sec) ENN=   2604.820551691798 Eh

SHARK setup successfully completed in   1.0 seconds

Maximum memory used throughout the entire GTOINT-calculation: 38.4 MB


           ************************************************************
           *        Program running with 20 parallel MPI-processes    *
           *              working on a common directory               *
           ************************************************************
-------------------------------------------------------------------------------
                                 ORCA SCF
-------------------------------------------------------------------------------

------------
SCF SETTINGS
------------
Hamiltonian:
 Density Functional     Method          .... DFT(GTOs)
 Exchange Functional    Exchange        .... TPSS
 Correlation Functional Correlation     .... TPSS
 LDA part of GGA corr.  LDAOpt          .... PW91-LDA
 Gradients option       PostSCFGGA      .... off
 Hybrid DFT is turned on
   Fraction HF Exchange ScalHFX         ....  0.100000
   Scaling of DF-GGA-X  ScalDFX         ....  0.900000
   Scaling of DF-GGA-C  ScalDFC         ....  1.000000
   Scaling of DF-LDA-C  ScalLDAC        ....  1.000000
   Perturbative correction              ....  0.000000
   Density functional embedding theory  .... OFF
   NL short-range parameter             ....  5.200000
 RI-approximation to the Coulomb term is turned on
   Number of AuxJ basis functions       .... 1176
   RIJ-COSX (HFX calculated with COS-X)).... on


General Settings:
 Integral files         IntName         .... rf_mecn_opt_TPS_C3_D_B
 Hartree-Fock type      HFTyp           .... UHF
 Total Charge           Charge          ....   -1
 Multiplicity           Mult            ....    2
 Number of Electrons    NEL             ....  191
 Basis Dimension        Dim             ....  744
 Nuclear Repulsion      ENuc            ....   2604.8205516918 Eh

Convergence Acceleration:
 DIIS                   CNVDIIS         .... on
   Start iteration      DIISMaxIt       ....     0
   Startup error        DIISStart       ....  0.200000
   # of expansion vecs  DIISMaxEq       ....     5
   Bias factor          DIISBfac        ....   1.050
   Max. coefficient     DIISMaxC        ....  10.000
 Trust-Rad. Augm. Hess. CNVTRAH         .... auto
   Auto Start mean grad. ratio tolernc. ....  1.125000
   Auto Start start iteration           ....    20
   Auto Start num. interpolation iter.  ....    10
   Max. Number of Micro iterations      ....    16
   Max. Number of Macro iterations      .... Maxiter - #DIIS iter
   Number of Davidson start vectors     ....     2
   Converg. threshold I  (grad. norm)   ....   1.000e-05
   Converg. threshold II (energy diff.) ....   1.000e-08
   Grad. Scal. Fac. for Micro threshold ....   0.100
   Minimum threshold for Micro iter.    ....   0.010
   NR start threshold (gradient norm)   ....   0.001
   Initial trust radius                 ....   0.400
   Minimum AH scaling param. (alpha)    ....   1.000
   Maximum AH scaling param. (alpha)    .... 1000.000
   Orbital update algorithm             .... Taylor
   White noise on init. David. guess    .... on
   Maximum white noise                  ....   0.010
   Quad. conv. algorithm                .... NR
 SOSCF                  CNVSOSCF        .... off
 Level Shifting         CNVShift        .... on
   Level shift para.    LevelShift      ....    0.2500
   Turn off err/grad.   ShiftErr        ....    0.0000
 Zerner damping         CNVZerner       .... off
 Static damping         CNVDamp         .... on
   Fraction old density DampFac         ....    0.8500
   Max. Damping (<1)    DampMax         ....    0.9800
   Min. Damping (>=0)   DampMin         ....    0.0000
   Turn off err/grad.   DampErr         ....    0.0300
 Fernandez-Rico         CNVRico         .... off

SCF Procedure:
 Maximum # iterations   MaxIter         ....  1500
 SCF integral mode      SCFMode         .... Direct
   Integral package                     .... SHARK and LIBINT hybrid scheme
 Reset frequency        DirectResetFreq ....    20
 Integral Threshold     Thresh          ....  2.500e-11 Eh
 Primitive CutOff       TCut            ....  2.500e-12 Eh

Convergence Tolerance:
 Convergence Check Mode ConvCheckMode   .... Total+1el-Energy
 Convergence forced     ConvForced      .... 0
 Energy Change          TolE            ....  1.000e-08 Eh
 1-El. energy change                    ....  1.000e-05 Eh
 DIIS Error             TolErr          ....  5.000e-07


Diagonalization of the overlap matrix:
Smallest eigenvalue                        ... 6.216e-05
Time for diagonalization                   ...    0.201 sec
Threshold for overlap eigenvalues          ... 1.000e-08
Number of eigenvalues below threshold      ... 0
Time for construction of square roots      ...    0.057 sec
Total time needed                          ...    0.263 sec

Time for model grid setup =    0.319 sec

------------------------------
INITIAL GUESS: MODEL POTENTIAL
------------------------------
Loading Hartree-Fock densities                     ... done
Calculating cut-offs                               ... done
Initializing the effective Hamiltonian             ... done
Setting up the integral package (SHARK)            ... done
Starting the Coulomb interaction                   ... done (   0.2 sec)
Reading the grid                                   ... done
Mapping shells                                     ... done
Starting the XC term evaluation                    ... done (   0.1 sec)
  promolecular density results
     # of electrons  =    190.000886876
     EX              =   -197.020090180
     EC              =     -6.648035697
     EX+EC           =   -203.668125877
Transforming the Hamiltonian                       ... done (   0.1 sec)
Diagonalizing the Hamiltonian                      ... done (   0.1 sec)
Back transforming the eigenvectors                 ... done (   0.0 sec)
Now organizing SCF variables                       ... done
                      ------------------
                      INITIAL GUESS DONE (   1.0 sec)
                      ------------------
-------------------
DFT GRID GENERATION
-------------------

General Integration Accuracy     IntAcc      ... 4.388
Radial Grid Type                 RadialGrid  ... OptM3 with GC (2021)
Angular Grid (max. ang.)         AngularGrid ... 4 (Lebedev-302)
Angular grid pruning method      GridPruning ... 4 (adaptive)
Weight generation scheme         WeightScheme... Becke
Basis function cutoff            BFCut       ... 1.0000e-11
Integration weight cutoff        WCut        ... 1.0000e-14
Angular grids for H and He will be reduced by one unit
Partially contracted basis set               ... off
Rotationally invariant grid construction     ... off

Total number of grid points                  ...   145519
Total number of batches                      ...     2285
Average number of points per batch           ...       63
Average number of grid points per atom       ...     6063
Time for grid setup =    1.076 sec

--------------------
COSX GRID GENERATION
--------------------

GRIDX 1
-------
General Integration Accuracy     IntAcc      ... 3.816
Radial Grid Type                 RadialGrid  ... OptM3 with GC (2021)
Angular Grid (max. ang.)         AngularGrid ... 1 (Lebedev-50)
Angular grid pruning method      GridPruning ... 4 (adaptive)
Weight generation scheme         WeightScheme... Becke
Basis function cutoff            BFCut       ... 1.0000e-11
Integration weight cutoff        WCut        ... 1.0000e-14
Angular grids for H and He will be reduced by one unit
Partially contracted basis set               ... on
Rotationally invariant grid construction     ... off

Total number of grid points                  ...    18285
Total number of batches                      ...      300
Average number of points per batch           ...       60
Average number of grid points per atom       ...      762
UseSFitting                                  ... on

GRIDX 2
-------
General Integration Accuracy     IntAcc      ... 4.020
Radial Grid Type                 RadialGrid  ... OptM3 with GC (2021)
Angular Grid (max. ang.)         AngularGrid ... 2 (Lebedev-110)
Angular grid pruning method      GridPruning ... 4 (adaptive)
Weight generation scheme         WeightScheme... Becke
Basis function cutoff            BFCut       ... 1.0000e-11
Integration weight cutoff        WCut        ... 1.0000e-14
Angular grids for H and He will be reduced by one unit
Partially contracted basis set               ... on
Rotationally invariant grid construction     ... off

Total number of grid points                  ...    43374
Total number of batches                      ...      693
Average number of points per batch           ...       62
Average number of grid points per atom       ...     1807
UseSFitting                                  ... on

GRIDX 3
-------
General Integration Accuracy     IntAcc      ... 4.338
Radial Grid Type                 RadialGrid  ... OptM3 with GC (2021)
Angular Grid (max. ang.)         AngularGrid ... 3 (Lebedev-194)
Angular grid pruning method      GridPruning ... 4 (adaptive)
Weight generation scheme         WeightScheme... Becke
Basis function cutoff            BFCut       ... 1.0000e-11
Integration weight cutoff        WCut        ... 1.0000e-14
Angular grids for H and He will be reduced by one unit
Partially contracted basis set               ... on
Rotationally invariant grid construction     ... off

Total number of grid points                  ...    96109
Total number of batches                      ...     1513
Average number of points per batch           ...       63
Average number of grid points per atom       ...     4005
UseSFitting                                  ... on

Time for X-Grid setup             =    1.695 sec


--------------------
CPCM SOLVATION MODEL
--------------------
CPCM parameters:
  Epsilon                                         ...      35.6880
  Refrac                                          ...       1.3442
  Rsolv                                           ...       1.3000
  Surface type                                    ... GAUSSIAN VDW
  Epsilon function type                           ...         CPCM
Solvent:                                     ... ACETONITRILE
SMD-CDS solvent descriptors:
  Soln                                       ...    1.3442
  Soln25                                     ...    1.3416
  Sola                                       ...    0.0700
  Solb                                       ...    0.3200
  Solg                                       ...   41.2500
  Solc                                       ...    0.0000
  Solh                                       ...    0.0000
Radii:
 Radius for C  used is    3.4960 Bohr (=   1.8500 Ang.)
 Radius for O  used is    4.0969 Bohr (=   2.1680 Ang.)
 Radius for F  used is    3.2692 Bohr (=   1.7300 Ang.)
Calculating surface                               ...        done! (  0.0s)
GEPOL surface points                              ...         1279
GEPOL Volume                                      ...    2153.4989
GEPOL Surface-area                                ...    1119.9697
Calculating surface distance matrix               ...        done! (  0.0s)
Performing Cholesky decomposition & store         ...        done! (  0.1s)
Overall time for CPCM initialization              ...                 0.1s
--------------
SCF ITERATIONS
--------------
ITER       Energy         Delta-E        Max-DP      RMS-DP      [F,P]     Damp
               ***  Starting incremental Fock matrix formation  ***
  0  -1853.4027867748   0.000000000000 0.03913906  0.00018889  0.1571265 0.8500
  1  -1853.5567864885  -0.153999713641 0.06029906  0.00021307  0.1031337 0.8500
                               ***Turning on DIIS***
  2  -1853.6344906366  -0.077704148090 0.04460343  0.00015333  0.0578769 0.8500
  3  -1853.6754864408  -0.040995804212 0.10393359  0.00046129  0.0291633 0.0000
  4  -1853.8439495763  -0.168463135551 0.01229917  0.00003772  0.0359158 0.8500
  5  -1853.8493448129  -0.005395236589 0.01530373  0.00004696  0.0306358 0.8500
  6  -1853.8542998617  -0.004955048815 0.09844165  0.00030230  0.0247951 0.0000
  7  -1853.8687063606  -0.014406498850 0.00462504  0.00002867  0.0079067 0.0000
  8  -1853.8697056081  -0.000999247480 0.00138167  0.00001226  0.0014922 0.0000
  9  -1853.8698283433  -0.000122735200 0.00169366  0.00000838  0.0014473 0.0000
 10  -1853.8698918115  -0.000063468243 0.00074722  0.00000555  0.0010002 0.0000
 11  -1853.8699184830  -0.000026671521 0.00058248  0.00000377  0.0007931 0.0000
               *** Restarting incremental Fock matrix formation ***
                                   *** Resetting DIIS ***
 12  -1853.8699370914  -0.000018608383 0.00043745  0.00000268  0.0005837 0.0000
 13  -1853.8699443135  -0.000007222113 0.00031906  0.00000187  0.0004669 0.0000
 14  -1853.8699487885  -0.000004475013 0.00032614  0.00000205  0.0003421 0.0000
 15  -1853.8699516454  -0.000002856814 0.00021576  0.00000128  0.0002802 0.0000
 16  -1853.8699534384  -0.000001793074 0.00016493  0.00000098  0.0002004 0.0000
 17  -1853.8699543931  -0.000000954704 0.00011974  0.00000074  0.0001500 0.0000
 18  -1853.8699548835  -0.000000490402 0.00009055  0.00000054  0.0001116 0.0000
 19  -1853.8699551924  -0.000000308852 0.00006747  0.00000041  0.0000824 0.0000
 20  -1853.8699553270  -0.000000134621 0.00005106  0.00000031  0.0000607 0.0000
 21  -1853.8699554471  -0.000000120115 0.00003818  0.00000024  0.0000434 0.0000
 22  -1853.8699554906  -0.000000043479 0.00003237  0.00000018  0.0000330 0.0000
 23  -1853.8699554954  -0.000000004776 0.00002150  0.00000014  0.0000235 0.0000
 24  -1853.8699555334  -0.000000038012 0.00001614  0.00000011  0.0000174 0.0000
 25  -1853.8699555944  -0.000000061051 0.00001065  0.00000008  0.0000122 0.0000
 26  -1853.8699555567   0.000000037715 0.00001174  0.00000006  0.0000092 0.0000
 27  -1853.8699555852  -0.000000028426 0.00001246  0.00000007  0.0000068 0.0000
 28  -1853.8699555697   0.000000015422 0.00000913  0.00000006  0.0000048 0.0000
 29  -1853.8699555838  -0.000000014110 0.00000461  0.00000004  0.0000036 0.0000
 30  -1853.8699555512   0.000000032637 0.00001251  0.00000006  0.0000026 0.0000
 31  -1853.8699555932  -0.000000042033 0.00004468  0.00000026  0.0000020 0.0000
               *** Restarting incremental Fock matrix formation ***
                                   *** Resetting DIIS ***
 32  -1853.8699554986   0.000000094598 0.00004427  0.00000025  0.0000014 0.0000
                 **** Energy Check signals convergence ****

               *****************************************************
               *                     SUCCESS                       *
               *           SCF CONVERGED AFTER  33 CYCLES          *
               *****************************************************

Old exchange energy                            =    -19.871897122 Eh
New exchange energy                            =    -19.871910169 Eh
Exchange energy change after final integration =     -0.000013047 Eh
Total energy after final integration           =  -1853.869968552 Eh
Final COS-X integration done in                =    10.616 sec

SMD CDS free energy correction energy :                 3.62328     Kcal/mol
Total Energy after SMD CDS correction =             -1853.864194492 Eh

----------------
TOTAL SCF ENERGY
----------------

Total Energy       :        -1853.86419449 Eh          -50446.20937 eV

Components:
Nuclear Repulsion  :         2604.82055169 Eh           70880.77072 eV
Electronic Energy  :        -4458.68474618 Eh         -121326.98009 eV
One Electron Energy:        -7783.86904243 Eh         -211809.84485 eV
Two Electron Energy:         3325.18429624 Eh           90482.86476 eV
Max COSX asymmetry :            0.00000031 Eh               0.00001 eV
CPCM Dielectric    :           -0.08156847 Eh              -2.21959 eV
SMD CDS (Gcds)     :            0.00577406 Eh               0.15712 eV

Virial components:
Potential Energy   :        -3700.48674631 Eh         -100695.36362 eV
Kinetic Energy     :         1846.62255182 Eh           50249.15425 eV
Virial Ratio       :            2.00392156


DFT components:
N(Alpha)           :       95.999978742163 electrons
N(Beta)            :       94.999977168291 electrons
N(Total)           :      190.999955910454 electrons
E(X)               :     -180.649025722595 Eh       
E(C)               :       -6.696604135647 Eh       
E(XC)              :     -187.345629858242 Eh       
DFET-embed. en.    :        0.000000000000 Eh       
CPCM Solvation Model Properties:
Surface-charge          :            0.98987719
Charge-correction       :           -0.00107283 Eh              -0.02919 eV
Free-energy (cav+disp)  :            0.00577406 Eh               0.15712 eV

---------------
SCF CONVERGENCE
---------------

  Last Energy change         ...   -6.2707e-09  Tolerance :   1.0000e-08
  Last MAX-Density change    ...    0.0000e+00  Tolerance :   1.0000e-07
  Last RMS-Density change    ...    0.0000e+00  Tolerance :   5.0000e-09
  Last DIIS Error            ...    1.0154e-06  Tolerance :   5.0000e-07

             **** THE GBW FILE WAS UPDATED (rf_mecn_opt_TPS_C3_D_B.gbw) ****
             **** DENSITY rf_mecn_opt_TPS_C3_D_B.scfp WAS UPDATED ****
             **** ENERGY FILE WAS UPDATED (rf_mecn_opt_TPS_C3_D_B.en.tmp) ****
----------------------
UHF SPIN CONTAMINATION
----------------------

Warning: in a DFT calculation there is little theoretical justification to 
         calculate <S**2> as in Hartree-Fock theory. We will do it anyways
         but you should keep in mind that the values have only limited relevance

Expectation value of <S**2>     :     0.753986
Ideal value S*(S+1) for S=0.5   :     0.750000
Deviation                       :     0.003986

             **** THE GBW FILE WAS UPDATED (rf_mecn_opt_TPS_C3_D_B.gbw) ****
             **** DENSITY rf_mecn_opt_TPS_C3_D_B.scfp WAS UPDATED ****
----------------
ORBITAL ENERGIES
----------------
                 SPIN UP ORBITALS
  NO   OCC          E(Eh)            E(eV) 
   0   1.0000     -24.660668      -671.0509 
   1   1.0000     -24.659850      -671.0286 
   2   1.0000     -24.659254      -671.0124 
   3   1.0000     -24.659235      -671.0119 
   4   1.0000     -24.658580      -670.9941 
   5   1.0000     -24.658362      -670.9882 
   6   1.0000     -24.658348      -670.9878 
   7   1.0000     -24.654831      -670.8921 
   8   1.0000     -24.654370      -670.8795 
   9   1.0000     -24.645770      -670.6455 
  10   1.0000     -24.644927      -670.6226 
  11   1.0000     -24.644708      -670.6166 
  12   1.0000     -24.616810      -669.8575 
  13   1.0000     -24.613506      -669.7676 
  14   1.0000     -19.013037      -517.3710 
  15   1.0000     -19.009619      -517.2780 
  16   1.0000     -10.396049      -282.8909 
  17   1.0000     -10.343731      -281.4672 
  18   1.0000     -10.343545      -281.4622 
  19   1.0000     -10.337741      -281.3042 
  20   1.0000     -10.330153      -281.0978 
  21   1.0000     -10.294298      -280.1221 
  22   1.0000     -10.254813      -279.0476 
  23   1.0000     -10.226266      -278.2708 
  24   1.0000      -1.320162       -35.9234 
  25   1.0000      -1.295022       -35.2393 
  26   1.0000      -1.279083       -34.8056 
  27   1.0000      -1.273509       -34.6540 
  28   1.0000      -1.266036       -34.4506 
  29   1.0000      -1.236132       -33.6369 
  30   1.0000      -1.235947       -33.6318 
  31   1.0000      -1.230393       -33.4807 
  32   1.0000      -1.228752       -33.4360 
  33   1.0000      -1.221795       -33.2467 
  34   1.0000      -1.221366       -33.2351 
  35   1.0000      -1.218753       -33.1640 
  36   1.0000      -1.210945       -32.9515 
  37   1.0000      -1.173114       -31.9220 
  38   1.0000      -0.934711       -25.4348 
  39   1.0000      -0.876745       -23.8575 
  40   1.0000      -0.821969       -22.3669 
  41   1.0000      -0.798659       -21.7326 
  42   1.0000      -0.769415       -20.9369 
  43   1.0000      -0.727436       -19.7946 
  44   1.0000      -0.684854       -18.6358 
  45   1.0000      -0.658880       -17.9290 
  46   1.0000      -0.635186       -17.2843 
  47   1.0000      -0.619591       -16.8599 
  48   1.0000      -0.614754       -16.7283 
  49   1.0000      -0.608773       -16.5656 
  50   1.0000      -0.596925       -16.2432 
  51   1.0000      -0.591774       -16.1030 
  52   1.0000      -0.589016       -16.0279 
  53   1.0000      -0.576712       -15.6931 
  54   1.0000      -0.575246       -15.6532 
  55   1.0000      -0.560665       -15.2565 
  56   1.0000      -0.559606       -15.2276 
  57   1.0000      -0.549707       -14.9583 
  58   1.0000      -0.544626       -14.8200 
  59   1.0000      -0.530872       -14.4458 
  60   1.0000      -0.522259       -14.2114 
  61   1.0000      -0.485093       -13.2001 
  62   1.0000      -0.481620       -13.1055 
  63   1.0000      -0.477705       -12.9990 
  64   1.0000      -0.475164       -12.9299 
  65   1.0000      -0.470488       -12.8026 
  66   1.0000      -0.468204       -12.7405 
  67   1.0000      -0.463174       -12.6036 
  68   1.0000      -0.456473       -12.4213 
  69   1.0000      -0.454180       -12.3589 
  70   1.0000      -0.446904       -12.1609 
  71   1.0000      -0.445184       -12.1141 
  72   1.0000      -0.439819       -11.9681 
  73   1.0000      -0.437152       -11.8955 
  74   1.0000      -0.433603       -11.7989 
  75   1.0000      -0.426660       -11.6100 
  76   1.0000      -0.423114       -11.5135 
  77   1.0000      -0.422351       -11.4928 
  78   1.0000      -0.418113       -11.3774 
  79   1.0000      -0.415123       -11.2961 
  80   1.0000      -0.413366       -11.2483 
  81   1.0000      -0.412183       -11.2161 
  82   1.0000      -0.409335       -11.1386 
  83   1.0000      -0.405934       -11.0460 
  84   1.0000      -0.402044       -10.9402 
  85   1.0000      -0.391483       -10.6528 
  86   1.0000      -0.384265       -10.4564 
  87   1.0000      -0.375519       -10.2184 
  88   1.0000      -0.363233        -9.8841 
  89   1.0000      -0.347346        -9.4518 
  90   1.0000      -0.329637        -8.9699 
  91   1.0000      -0.316595        -8.6150 
  92   1.0000      -0.264779        -7.2050 
  93   1.0000      -0.231086        -6.2882 
  94   1.0000      -0.223340        -6.0774 
  95   1.0000      -0.218559        -5.9473 
  96   0.0000      -0.024495        -0.6665 
  97   0.0000      -0.018752        -0.5103 
  98   0.0000      -0.002146        -0.0584 
  99   0.0000       0.035556         0.9675 
 100   0.0000       0.043158         1.1744 
 101   0.0000       0.085796         2.3346 
 102   0.0000       0.085992         2.3400 
 103   0.0000       0.099395         2.7047 
 104   0.0000       0.107921         2.9367 
 105   0.0000       0.118234         3.2173 
 106   0.0000       0.122215         3.3256 
 107   0.0000       0.127354         3.4655 
 108   0.0000       0.137816         3.7502 
 109   0.0000       0.149205         4.0601 
 110   0.0000       0.163814         4.4576 
 111   0.0000       0.167991         4.5713 
 112   0.0000       0.181231         4.9316 
 113   0.0000       0.191759         5.2180 
 114   0.0000       0.197992         5.3876 
 115   0.0000       0.201701         5.4886 
 116   0.0000       0.205927         5.6036 
 117   0.0000       0.206633         5.6228 
 118   0.0000       0.211702         5.7607 
 119   0.0000       0.216010         5.8779 
 120   0.0000       0.224429         6.1070 
 121   0.0000       0.226429         6.1615 
 122   0.0000       0.229916         6.2563 
 123   0.0000       0.236606         6.4384 
 124   0.0000       0.242875         6.6090 
 125   0.0000       0.244135         6.6433 
 126   0.0000       0.248690         6.7672 
 127   0.0000       0.250971         6.8293 
 128   0.0000       0.264918         7.2088 
 129   0.0000       0.276513         7.5243 
 130   0.0000       0.283090         7.7033 
 131   0.0000       0.287501         7.8233 
 132   0.0000       0.292558         7.9609 
 133   0.0000       0.298679         8.1275 
 134   0.0000       0.307741         8.3741 
 135   0.0000       0.310420         8.4469 
 136   0.0000       0.318093         8.6557 
 137   0.0000       0.324837         8.8393 
 138   0.0000       0.333347         9.0708 
 139   0.0000       0.338061         9.1991 
 140   0.0000       0.346254         9.4220 
 141   0.0000       0.355262         9.6672 
 142   0.0000       0.374557        10.1922 
 143   0.0000       0.392769        10.6878 
 144   0.0000       0.394012        10.7216 
 145   0.0000       0.417311        11.3556 
 146   0.0000       0.422462        11.4958 
 147   0.0000       0.429650        11.6914 
 148   0.0000       0.433005        11.7827 
 149   0.0000       0.436477        11.8771 
 150   0.0000       0.440805        11.9949 
 151   0.0000       0.453599        12.3430 
 152   0.0000       0.459813        12.5121 
 153   0.0000       0.466000        12.6805 
 154   0.0000       0.475204        12.9310 
 155   0.0000       0.481783        13.1100 
 156   0.0000       0.488501        13.2928 
 157   0.0000       0.493330        13.4242 
 158   0.0000       0.498567        13.5667 
 159   0.0000       0.513261        13.9665 
 160   0.0000       0.517246        14.0750 
 161   0.0000       0.520589        14.1659 
 162   0.0000       0.530587        14.4380 
 163   0.0000       0.540397        14.7049 
 164   0.0000       0.548858        14.9352 
 165   0.0000       0.554560        15.0904 
 166   0.0000       0.579986        15.7822 
 167   0.0000       0.582714        15.8565 
 168   0.0000       0.591421        16.0934 
 169   0.0000       0.618790        16.8381 
 170   0.0000       0.624474        16.9928 
 171   0.0000       0.631163        17.1748 
 172   0.0000       0.649375        17.6704 
 173   0.0000       0.653817        17.7913 
 174   0.0000       0.657472        17.8907 
 175   0.0000       0.664823        18.0908 
 176   0.0000       0.674907        18.3651 
 177   0.0000       0.682921        18.5832 
 178   0.0000       0.688711        18.7408 
 179   0.0000       0.701402        19.0861 
 180   0.0000       0.705522        19.1982 
 181   0.0000       0.708322        19.2744 
 182   0.0000       0.715585        19.4721 
 183   0.0000       0.722987        19.6735 
 184   0.0000       0.728590        19.8259 
 185   0.0000       0.738081        20.0842 
 186   0.0000       0.751410        20.4469 
 187   0.0000       0.754946        20.5431 
 188   0.0000       0.756658        20.5897 
 189   0.0000       0.764433        20.8013 
 190   0.0000       0.772642        21.0247 
 191   0.0000       0.773993        21.0614 
 192   0.0000       0.780189        21.2300 
 193   0.0000       0.794688        21.6246 
 194   0.0000       0.800470        21.7819 
 195   0.0000       0.811547        22.0833 
 196   0.0000       0.820169        22.3179 
 197   0.0000       0.829036        22.5592 
 198   0.0000       0.837423        22.7874 
 199   0.0000       0.841936        22.9102 
 200   0.0000       0.856003        23.2930 
 201   0.0000       0.863453        23.4958 
 202   0.0000       0.870792        23.6954 
 203   0.0000       0.885266        24.0893 
 204   0.0000       0.891059        24.2470 
 205   0.0000       0.898365        24.4457 
 206   0.0000       0.910206        24.7680 
 207   0.0000       0.913407        24.8551 
 208   0.0000       0.916715        24.9451 
 209   0.0000       0.928066        25.2540 
 210   0.0000       0.937935        25.5225 
 211   0.0000       0.949420        25.8350 
 212   0.0000       0.952912        25.9301 
 213   0.0000       0.958986        26.0953 
 214   0.0000       0.967588        26.3294 
 215   0.0000       0.974966        26.5302 
 216   0.0000       0.994075        27.0502 
 217   0.0000       1.007785        27.4232 
 218   0.0000       1.012842        27.5608 
 219   0.0000       1.019142        27.7323 
 220   0.0000       1.028376        27.9835 
 221   0.0000       1.039852        28.2958 
 222   0.0000       1.046004        28.4632 
 223   0.0000       1.073153        29.2020 
 224   0.0000       1.080808        29.4103 
 225   0.0000       1.094656        29.7871 
 226   0.0000       1.096993        29.8507 
 227   0.0000       1.106165        30.1003 
 228   0.0000       1.113776        30.3074 
 229   0.0000       1.125182        30.6178 
 230   0.0000       1.136264        30.9193 
 231   0.0000       1.140073        31.0230 
 232   0.0000       1.148578        31.2544 
 233   0.0000       1.154973        31.4284 
 234   0.0000       1.161413        31.6036 
 235   0.0000       1.172255        31.8987 
 236   0.0000       1.174136        31.9499 
 237   0.0000       1.186545        32.2875 
 238   0.0000       1.202336        32.7172 
 239   0.0000       1.215274        33.0693 
 240   0.0000       1.238402        33.6986 
 241   0.0000       1.240540        33.7568 
 242   0.0000       1.252727        34.0884 
 243   0.0000       1.267897        34.5012 
 244   0.0000       1.274286        34.6751 
 245   0.0000       1.278036        34.7771 
 246   0.0000       1.292993        35.1841 
 247   0.0000       1.298618        35.3372 
 248   0.0000       1.323482        36.0138 
 249   0.0000       1.340600        36.4796 
 250   0.0000       1.359158        36.9846 
 251   0.0000       1.370595        37.2958 
 252   0.0000       1.377844        37.4930 
 253   0.0000       1.389670        37.8148 
 254   0.0000       1.406923        38.2843 
 255   0.0000       1.443829        39.2886 
 256   0.0000       1.452769        39.5319 
 257   0.0000       1.464297        39.8455 
 258   0.0000       1.476035        40.1650 
 259   0.0000       1.503832        40.9213 
 260   0.0000       1.526596        41.5408 
 261   0.0000       1.547117        42.0992 
 262   0.0000       1.554130        42.2900 
 263   0.0000       1.579814        42.9889 
 264   0.0000       1.589998        43.2660 
 265   0.0000       1.624585        44.2072 
 266   0.0000       1.645739        44.7828 
 267   0.0000       1.653547        44.9953 
 268   0.0000       1.673860        45.5480 
 269   0.0000       1.679101        45.6907 
 270   0.0000       1.712317        46.5945 
 271   0.0000       1.732524        47.1444 
 272   0.0000       1.737708        47.2854 
 273   0.0000       1.753653        47.7193 
 274   0.0000       1.773333        48.2548 
 275   0.0000       1.785390        48.5829 
 276   0.0000       1.789703        48.7003 
 277   0.0000       1.801168        49.0123 
 278   0.0000       1.813880        49.3582 
 279   0.0000       1.832889        49.8755 
 280   0.0000       1.840111        50.0720 
 281   0.0000       1.848438        50.2986 
 282   0.0000       1.869946        50.8838 
 283   0.0000       1.872637        50.9570 
 284   0.0000       1.892438        51.4958 
 285   0.0000       1.898239        51.6537 
 286   0.0000       1.902071        51.7580 
 287   0.0000       1.905239        51.8442 
 288   0.0000       1.915711        52.1291 
 289   0.0000       1.916717        52.1565 
 290   0.0000       1.932621        52.5893 
 291   0.0000       1.938164        52.7401 
 292   0.0000       1.941927        52.8425 
 293   0.0000       1.956395        53.2362 
 294   0.0000       1.960656        53.3522 
 295   0.0000       1.976805        53.7916 
 296   0.0000       2.003880        54.5283 
 297   0.0000       2.014138        54.8075 
 298   0.0000       2.021186        54.9993 
 299   0.0000       2.036347        55.4118 
 300   0.0000       2.038736        55.4768 
 301   0.0000       2.042961        55.5918 
 302   0.0000       2.049173        55.7608 
 303   0.0000       2.052687        55.8564 
 304   0.0000       2.059283        56.0359 
 305   0.0000       2.069295        56.3084 
 306   0.0000       2.072544        56.3968 
 307   0.0000       2.075591        56.4797 
 308   0.0000       2.088108        56.8203 
 309   0.0000       2.091311        56.9075 
 310   0.0000       2.106476        57.3201 
 311   0.0000       2.116173        57.5840 
 312   0.0000       2.122120        57.7458 
 313   0.0000       2.126685        57.8700 
 314   0.0000       2.131912        58.0123 
 315   0.0000       2.139758        58.2258 
 316   0.0000       2.153261        58.5932 
 317   0.0000       2.158252        58.7290 
 318   0.0000       2.166601        58.9562 
 319   0.0000       2.181415        59.3593 
 320   0.0000       2.201936        59.9177 
 321   0.0000       2.222358        60.4734 
 322   0.0000       2.237598        60.8881 
 323   0.0000       2.243019        61.0356 
 324   0.0000       2.255807        61.3836 
 325   0.0000       2.260218        61.5037 
 326   0.0000       2.268832        61.7381 
 327   0.0000       2.295304        62.4584 
 328   0.0000       2.307367        62.7866 
 329   0.0000       2.318485        63.0892 
 330   0.0000       2.332017        63.4574 
 331   0.0000       2.336295        63.5738 
 332   0.0000       2.359251        64.1985 
 333   0.0000       2.361244        64.2527 
 334   0.0000       2.376568        64.6697 
 335   0.0000       2.397244        65.2323 
 336   0.0000       2.408886        65.5491 
 337   0.0000       2.415243        65.7221 
 338   0.0000       2.427101        66.0448 
 339   0.0000       2.433330        66.2143 
 340   0.0000       2.441421        66.4344 
 341   0.0000       2.447149        66.5903 
 342   0.0000       2.452751        66.7427 
 343   0.0000       2.461504        66.9809 
 344   0.0000       2.465987        67.1029 
 345   0.0000       2.474134        67.3246 
 346   0.0000       2.480458        67.4967 
 347   0.0000       2.489050        67.7305 
 348   0.0000       2.501503        68.0693 
 349   0.0000       2.506421        68.2032 
 350   0.0000       2.522161        68.6315 
 351   0.0000       2.540114        69.1200 
 352   0.0000       2.545547        69.2679 
 353   0.0000       2.568052        69.8802 
 354   0.0000       2.592075        70.5339 
 355   0.0000       2.599467        70.7351 
 356   0.0000       2.617218        71.2181 
 357   0.0000       2.626281        71.4647 
 358   0.0000       2.631609        71.6097 
 359   0.0000       2.653066        72.1936 
 360   0.0000       2.674543        72.7780 
 361   0.0000       2.683263        73.0153 
 362   0.0000       2.729583        74.2757 
 363   0.0000       2.753698        74.9319 
 364   0.0000       2.760013        75.1038 
 365   0.0000       2.777523        75.5802 
 366   0.0000       2.796806        76.1050 
 367   0.0000       2.820698        76.7551 
 368   0.0000       2.841697        77.3265 
 369   0.0000       2.857047        77.7442 
 370   0.0000       2.869079        78.0716 
 371   0.0000       2.884392        78.4883 
 372   0.0000       2.898470        78.8714 
 373   0.0000       2.899657        78.9037 
 374   0.0000       2.909658        79.1758 
 375   0.0000       2.921902        79.5090 
 376   0.0000       2.927928        79.6730 
 377   0.0000       2.932946        79.8095 
 378   0.0000       2.941068        80.0305 
 379   0.0000       2.957630        80.4812 
 380   0.0000       2.967705        80.7554 
 381   0.0000       2.973676        80.9178 
 382   0.0000       2.992863        81.4399 
 383   0.0000       3.004586        81.7589 
 384   0.0000       3.006336        81.8066 
 385   0.0000       3.013621        82.0048 
 386   0.0000       3.023042        82.2612 
 387   0.0000       3.029076        82.4253 
 388   0.0000       3.035195        82.5919 
 389   0.0000       3.045246        82.8654 
 390   0.0000       3.056607        83.1745 
 391   0.0000       3.062714        83.3407 
 392   0.0000       3.069014        83.5121 
 393   0.0000       3.079023        83.7845 
 394   0.0000       3.090629        84.1003 
 395   0.0000       3.092430        84.1493 
 396   0.0000       3.092970        84.1640 
 397   0.0000       3.104797        84.4858 
 398   0.0000       3.112352        84.6914 
 399   0.0000       3.122528        84.9683 
 400   0.0000       3.123832        85.0038 
 401   0.0000       3.129642        85.1619 
 402   0.0000       3.135049        85.3090 
 403   0.0000       3.145338        85.5890 
 404   0.0000       3.150536        85.7304 
 405   0.0000       3.160438        85.9999 
 406   0.0000       3.171100        86.2900 
 407   0.0000       3.173457        86.3542 
 408   0.0000       3.183828        86.6364 
 409   0.0000       3.191896        86.8559 
 410   0.0000       3.197769        87.0157 
 411   0.0000       3.207724        87.2866 
 412   0.0000       3.215821        87.5069 
 413   0.0000       3.220786        87.6420 
 414   0.0000       3.229445        87.8777 
 415   0.0000       3.242724        88.2390 
 416   0.0000       3.247442        88.3674 
 417   0.0000       3.256089        88.6027 
 418   0.0000       3.265757        88.8658 
 419   0.0000       3.269719        88.9736 
 420   0.0000       3.279942        89.2518 
 421   0.0000       3.286978        89.4432 
 422   0.0000       3.293687        89.6258 
 423   0.0000       3.311216        90.1028 
 424   0.0000       3.314125        90.1819 
 425   0.0000       3.318186        90.2924 
 426   0.0000       3.334143        90.7266 
 427   0.0000       3.341778        90.9344 
 428   0.0000       3.355285        91.3020 
 429   0.0000       3.373871        91.8077 
 430   0.0000       3.384008        92.0835 
 431   0.0000       3.395983        92.4094 
 432   0.0000       3.413724        92.8921 
 433   0.0000       3.418937        93.0340 
 434   0.0000       3.451087        93.9089 
 435   0.0000       3.462440        94.2178 
 436   0.0000       3.485272        94.8391 
 437   0.0000       3.497861        95.1816 
 438   0.0000       3.513084        95.5959 
 439   0.0000       3.527942        96.0002 
 440   0.0000       3.533905        96.1624 
 441   0.0000       3.566420        97.0472 
 442   0.0000       3.580484        97.4299 
 443   0.0000       3.590741        97.7090 
 444   0.0000       3.613816        98.3369 
 445   0.0000       3.617812        98.4457 
 446   0.0000       3.624578        98.6298 
 447   0.0000       3.660438        99.6056 
 448   0.0000       3.679472       100.1235 
 449   0.0000       3.695344       100.5554 
 450   0.0000       3.712824       101.0311 
 451   0.0000       3.720932       101.2517 
 452   0.0000       3.739731       101.7633 
 453   0.0000       3.752446       102.1093 
 454   0.0000       3.779989       102.8587 
 455   0.0000       3.782290       102.9213 
 456   0.0000       3.786838       103.0451 
 457   0.0000       3.802068       103.4595 
 458   0.0000       3.812464       103.7424 
 459   0.0000       3.827900       104.1624 
 460   0.0000       3.841879       104.5428 
 461   0.0000       3.857160       104.9587 
 462   0.0000       3.868661       105.2716 
 463   0.0000       3.871176       105.3401 
 464   0.0000       3.877183       105.5035 
 465   0.0000       3.891181       105.8844 
 466   0.0000       3.902843       106.2018 
 467   0.0000       3.918081       106.6164 
 468   0.0000       3.931467       106.9806 
 469   0.0000       3.941619       107.2569 
 470   0.0000       3.945391       107.3595 
 471   0.0000       3.963969       107.8651 
 472   0.0000       3.966545       107.9352 
 473   0.0000       3.976432       108.2042 
 474   0.0000       3.995868       108.7331 
 475   0.0000       4.002019       108.9005 
 476   0.0000       4.010298       109.1257 
 477   0.0000       4.019267       109.3698 
 478   0.0000       4.026616       109.5698 
 479   0.0000       4.035136       109.8016 
 480   0.0000       4.043804       110.0375 
 481   0.0000       4.056278       110.3769 
 482   0.0000       4.068224       110.7020 
 483   0.0000       4.083226       111.1102 
 484   0.0000       4.096012       111.4581 
 485   0.0000       4.101056       111.5954 
 486   0.0000       4.108233       111.7907 
 487   0.0000       4.120751       112.1313 
 488   0.0000       4.126271       112.2815 
 489   0.0000       4.132062       112.4391 
 490   0.0000       4.137586       112.5894 
 491   0.0000       4.143135       112.7404 
 492   0.0000       4.170090       113.4739 
 493   0.0000       4.174951       113.6062 
 494   0.0000       4.198160       114.2377 
 495   0.0000       4.202961       114.3684 
 496   0.0000       4.222779       114.9077 
 497   0.0000       4.239239       115.3556 
 498   0.0000       4.262843       115.9979 
 499   0.0000       4.272718       116.2666 
 500   0.0000       4.308659       117.2446 
 501   0.0000       4.310189       117.2862 
 502   0.0000       4.340803       118.1193 
 503   0.0000       4.367466       118.8448 
 504   0.0000       4.420838       120.2971 
 505   0.0000       4.552027       123.8670 
 506   0.0000       4.597300       125.0989 
 507   0.0000       4.613038       125.5271 
 508   0.0000       4.681053       127.3779 
 509   0.0000       4.758656       129.4896 
 510   0.0000       4.782603       130.1412 
 511   0.0000       4.828206       131.3822 
 512   0.0000       4.942979       134.5053 
 513   0.0000       4.972500       135.3086 
 514   0.0000       5.015712       136.4845 
 515   0.0000       5.143434       139.9600 
 516   0.0000       5.166898       140.5984 
 517   0.0000       5.203607       141.5973 
 518   0.0000       5.231190       142.3479 
 519   0.0000       5.248723       142.8250 
 520   0.0000       5.252395       142.9249 
 521   0.0000       5.253351       142.9510 
 522   0.0000       5.265107       143.2708 
 523   0.0000       5.270287       143.4118 
 524   0.0000       5.324990       144.9003 
 525   0.0000       5.333013       145.1187 
 526   0.0000       5.347894       145.5236 
 527   0.0000       5.361313       145.8888 
 528   0.0000       5.376771       146.3094 
 529   0.0000       5.393590       146.7670 
 530   0.0000       5.447506       148.2342 
 531   0.0000       5.466405       148.7484 
 532   0.0000       5.503072       149.7462 
 533   0.0000       5.530782       150.5002 
 534   0.0000       5.570911       151.5922 
 535   0.0000       5.643949       153.5797 
 536   0.0000       5.736170       156.0891 
 537   0.0000       5.774460       157.1310 
 538   0.0000       5.876273       159.9015 
 539   0.0000       5.943282       161.7249 
 540   0.0000       6.192076       168.4950 
 541   0.0000       6.252272       170.1330 
 542   0.0000       6.344624       172.6460 
 543   0.0000       6.399528       174.1400 
 544   0.0000       6.420387       174.7076 
 545   0.0000       6.450010       175.5137 
 546   0.0000       6.756222       183.8461 
 547   0.0000       6.805651       185.1912 
 548   0.0000       6.808853       185.2783 
 549   0.0000       6.847793       186.3379 
 550   0.0000       6.851752       186.4457 
 551   0.0000       6.854893       186.5311 
 552   0.0000       6.855999       186.5612 
 553   0.0000       6.856353       186.5709 
 554   0.0000       6.856749       186.5816 
 555   0.0000       6.858294       186.6237 
 556   0.0000       6.861898       186.7217 
 557   0.0000       6.862256       186.7315 
 558   0.0000       6.863344       186.7611 
 559   0.0000       6.863989       186.7786 
 560   0.0000       6.865477       186.8191 
 561   0.0000       6.866606       186.8499 
 562   0.0000       6.867493       186.8740 
 563   0.0000       6.869439       186.9269 
 564   0.0000       6.869907       186.9397 
 565   0.0000       6.872519       187.0108 
 566   0.0000       6.874843       187.0740 
 567   0.0000       6.875899       187.1027 
 568   0.0000       6.876373       187.1156 
 569   0.0000       6.879455       187.1995 
 570   0.0000       6.880412       187.2255 
 571   0.0000       6.881926       187.2667 
 572   0.0000       6.883253       187.3028 
 573   0.0000       6.883690       187.3147 
 574   0.0000       6.885855       187.3736 
 575   0.0000       6.887466       187.4175 
 576   0.0000       6.889061       187.4609 
 577   0.0000       6.891176       187.5184 
 578   0.0000       6.892117       187.5440 
 579   0.0000       6.893761       187.5888 
 580   0.0000       6.899953       187.7573 
 581   0.0000       6.903589       187.8562 
 582   0.0000       6.905859       187.9180 
 583   0.0000       6.907687       187.9677 
 584   0.0000       6.911431       188.0696 
 585   0.0000       6.915303       188.1750 
[...]
      dxy     :    -0.000011
      f0      :     0.000000  f :     0.000015
      f+1     :     0.000002
      f-1     :     0.000007
      f+2     :    -0.000001
      f-2     :     0.000006
      f+3     :     0.000003
      f-3     :    -0.000002
  2 O s       :     0.001224  s :     0.001224
      pz      :     0.018930  p :     0.035610
      px      :     0.008952
      py      :     0.007729
      dz2     :     0.000053  d :     0.000131
      dxz     :     0.000076
      dyz     :     0.000030
      dx2y2   :    -0.000004
      dxy     :    -0.000023
      f0      :    -0.000007  f :    -0.000013
      f+1     :     0.000003
      f-1     :     0.000002
      f+2     :    -0.000005
      f-2     :    -0.000008
      f+3     :     0.000001
      f-3     :     0.000001
  3 C s       :    -0.001498  s :    -0.001498
      pz      :    -0.002395  p :    -0.005562
      px      :    -0.008506
      py      :     0.005339
      dz2     :     0.008427  d :     0.042390
      dxz     :     0.012329
      dyz     :     0.001083
      dx2y2   :     0.002331
      dxy     :     0.018220
      f0      :     0.000173  f :     0.009662
      f+1     :     0.002633
      f-1     :     0.000794
      f+2     :     0.002762
      f-2     :     0.000061
      f+3     :     0.000583
      f-3     :     0.002657
  4 C s       :     0.035579  s :     0.035579
      pz      :     0.290079  p :     0.608984
      px      :     0.030451
      py      :     0.288453
      dz2     :     0.003439  d :     0.005926
      dxz     :     0.001339
      dyz     :     0.003724
      dx2y2   :    -0.001085
      dxy     :    -0.001492
      f0      :     0.000590  f :     0.000168
      f+1     :    -0.000232
      f-1     :    -0.000229
      f+2     :     0.000582
      f-2     :    -0.000241
      f+3     :    -0.000130
      f-3     :    -0.000172
  5 C s       :    -0.001229  s :    -0.001229
      pz      :     0.006255  p :     0.000512
      px      :    -0.008107
      py      :     0.002364
      dz2     :     0.002129  d :     0.058403
      dxz     :     0.016468
      dyz     :     0.006758
      dx2y2   :     0.020030
      dxy     :     0.013018
      f0      :     0.002201  f :     0.008614
      f+1     :     0.000166
      f-1     :     0.001095
      f+2     :     0.000803
      f-2     :     0.001194
      f+3     :     0.002983
      f-3     :     0.000173
  6 C s       :     0.001368  s :     0.001368
      pz      :     0.001009  p :     0.009121
      px      :     0.005078
      py      :     0.003034
      dz2     :     0.000010  d :     0.000640
      dxz     :     0.000032
      dyz     :     0.000062
      dx2y2   :     0.000670
      dxy     :    -0.000134
      f0      :     0.000065  f :     0.000109
      f+1     :     0.000002
      f-1     :     0.000004
      f+2     :     0.000019
      f-2     :     0.000035
      f+3     :     0.000005
      f-3     :    -0.000021
  7 C s       :     0.000086  s :     0.000086
      pz      :     0.000089  p :     0.001128
      px      :     0.000410
      py      :     0.000629
      dz2     :     0.000030  d :     0.000899
      dxz     :     0.000050
      dyz     :    -0.000003
      dx2y2   :     0.000713
      dxy     :     0.000110
      f0      :    -0.000001  f :     0.000076
      f+1     :     0.000009
      f-1     :     0.000003
      f+2     :     0.000017
      f-2     :     0.000002
      f+3     :     0.000043
      f-3     :     0.000002
  8 C s       :     0.000052  s :     0.000052
      pz      :     0.000013  p :     0.000455
      px      :     0.000254
      py      :     0.000187
      dz2     :     0.000009  d :     0.000218
      dxz     :     0.000039
      dyz     :     0.000004
      dx2y2   :     0.000153
      dxy     :     0.000013
      f0      :     0.000000  f :     0.000020
      f+1     :     0.000001
      f-1     :     0.000001
      f+2     :     0.000004
      f-2     :     0.000002
      f+3     :     0.000013
      f-3     :    -0.000001
  9 C s       :     0.000032  s :     0.000032
      pz      :     0.000049  p :     0.000127
      px      :     0.000037
      py      :     0.000041
      dz2     :     0.000003  d :     0.000035
      dxz     :     0.000000
      dyz     :     0.000006
      dx2y2   :     0.000017
      dxy     :     0.000010
      f0      :     0.000001  f :     0.000010
      f+1     :     0.000000
      f-1     :    -0.000000
      f+2     :     0.000002
      f-2     :     0.000004
      f+3     :     0.000003
      f-3     :     0.000000
 10 F s       :     0.001655  s :     0.001655
      pz      :    -0.000193  p :     0.032389
      px      :     0.022944
      py      :     0.009638
      dz2     :     0.000015  d :     0.000240
      dxz     :     0.000024
      dyz     :    -0.000020
      dx2y2   :    -0.000000
      dxy     :     0.000221
      f0      :     0.000001  f :     0.000004
      f+1     :    -0.000000
      f-1     :    -0.000003
      f+2     :    -0.000003
      f-2     :     0.000005
      f+3     :     0.000003
      f-3     :     0.000001
 11 F s       :    -0.000052  s :    -0.000052
      pz      :    -0.000042  p :     0.001824
      px      :     0.001509
      py      :     0.000358
      dz2     :    -0.000015  d :    -0.000194
      dxz     :    -0.000017
      dyz     :    -0.000046
      dx2y2   :    -0.000094
      dxy     :    -0.000021
      f0      :    -0.000001  f :    -0.000009
      f+1     :    -0.000001
      f-1     :    -0.000000
      f+2     :     0.000000
      f-2     :    -0.000001
      f+3     :    -0.000001
      f-3     :    -0.000005
 12 F s       :     0.002388  s :     0.002388
      pz      :     0.044162  p :     0.083353
      px      :     0.003162
      py      :     0.036029
      dz2     :     0.006638  d :     0.009393
      dxz     :     0.000248
      dyz     :     0.000564
      dx2y2   :     0.001790
      dxy     :     0.000153
      f0      :     0.000239  f :     0.000469
      f+1     :     0.000007
      f-1     :     0.000111
      f+2     :     0.000055
      f-2     :     0.000012
      f+3     :     0.000003
      f-3     :     0.000042
 13 F s       :     0.000006  s :     0.000006
      pz      :     0.002365  p :     0.000490
      px      :    -0.001391
      py      :    -0.000483
      dz2     :     0.000010  d :    -0.000107
      dxz     :    -0.000049
      dyz     :     0.000003
      dx2y2   :     0.000018
      dxy     :    -0.000088
      f0      :    -0.000002  f :    -0.000006
      f+1     :    -0.000000
      f-1     :     0.000003
      f+2     :    -0.000001
      f-2     :    -0.000005
      f+3     :    -0.000002
      f-3     :     0.000001
 14 F s       :     0.002206  s :     0.002206
      pz      :     0.008682  p :     0.027183
      px      :     0.010336
      py      :     0.008165
      dz2     :    -0.000058  d :     0.000328
      dxz     :     0.000081
      dyz     :     0.000214
      dx2y2   :     0.000011
      dxy     :     0.000079
      f0      :     0.000001  f :     0.000012
      f+1     :     0.000003
      f-1     :     0.000001
      f+2     :     0.000000
      f-2     :     0.000006
      f+3     :    -0.000000
      f-3     :     0.000001
 15 F s       :     0.000068  s :     0.000068
      pz      :    -0.000060  p :     0.001659
      px      :     0.000719
      py      :     0.000999
      dz2     :     0.000039  d :     0.000142
      dxz     :     0.000057
      dyz     :     0.000014
      dx2y2   :     0.000002
      dxy     :     0.000029
      f0      :     0.000003  f :     0.000007
      f+1     :     0.000001
      f-1     :     0.000000
      f+2     :    -0.000000
      f-2     :     0.000003
      f+3     :     0.000001
      f-3     :     0.000000
 16 F s       :     0.000445  s :     0.000445
      pz      :     0.000287  p :     0.001403
      px      :     0.001355
      py      :    -0.000238
      dz2     :     0.000024  d :     0.000182
      dxz     :    -0.000002
      dyz     :     0.000004
      dx2y2   :     0.000157
      dxy     :    -0.000001
      f0      :     0.000000  f :     0.000007
      f+1     :     0.000000
      f-1     :     0.000000
      f+2     :     0.000002
      f-2     :     0.000001
      f+3     :     0.000001
      f-3     :     0.000002
 17 F s       :     0.000043  s :     0.000043
      pz      :    -0.000008  p :    -0.000009
      px      :     0.000006
      py      :    -0.000007
      dz2     :    -0.000000  d :     0.000006
      dxz     :     0.000003
      dyz     :     0.000004
      dx2y2   :     0.000001
      dxy     :    -0.000002
      f0      :     0.000000  f :     0.000000
      f+1     :     0.000000
      f-1     :     0.000000
      f+2     :     0.000000
      f-2     :     0.000000
      f+3     :    -0.000000
      f-3     :     0.000000
 18 F s       :     0.000003  s :     0.000003
      pz      :    -0.000040  p :     0.000162
      px      :     0.000019
      py      :     0.000183
      dz2     :     0.000001  d :     0.000018
      dxz     :     0.000002
      dyz     :     0.000007
      dx2y2   :     0.000007
      dxy     :     0.000001
      f0      :     0.000000  f :     0.000001
      f+1     :     0.000000
      f-1     :     0.000000
      f+2     :     0.000000
      f-2     :     0.000000
      f+3     :     0.000000
      f-3     :     0.000000
 19 F s       :     0.000008  s :     0.000008
      pz      :    -0.000005  p :    -0.000011
      px      :     0.000002
      py      :    -0.000008
      dz2     :     0.000001  d :     0.000005
      dxz     :     0.000000
      dyz     :     0.000000
      dx2y2   :     0.000003
      dxy     :     0.000001
      f0      :     0.000000  f :     0.000000
      f+1     :    -0.000000
      f-1     :     0.000000
      f+2     :    -0.000000
      f-2     :     0.000000
      f+3     :     0.000000
      f-3     :     0.000000
 20 F s       :     0.000003  s :     0.000003
      pz      :    -0.000014  p :     0.000060
      px      :     0.000041
      py      :     0.000033
      dz2     :     0.000001  d :     0.000007
      dxz     :     0.000004
      dyz     :     0.000002
      dx2y2   :     0.000000
      dxy     :     0.000000
      f0      :     0.000000  f :     0.000000
      f+1     :     0.000000
      f-1     :     0.000000
      f+2     :     0.000000
      f-2     :     0.000000
      f+3     :    -0.000000
      f-3     :    -0.000000
 21 F s       :    -0.000000  s :    -0.000000
      pz      :    -0.000000  p :    -0.000007
      px      :    -0.000000
      py      :    -0.000007
      dz2     :     0.000000  d :     0.000001
      dxz     :     0.000000
      dyz     :     0.000000
      dx2y2   :     0.000000
      dxy     :    -0.000000
      f0      :     0.000000  f :     0.000000
      f+1     :     0.000000
      f-1     :     0.000000
      f+2     :     0.000000
      f-2     :     0.000000
      f+3     :     0.000000
      f-3     :     0.000000
 22 F s       :     0.000005  s :     0.000005
      pz      :     0.000005  p :     0.000081
      px      :     0.000073
      py      :     0.000003
      dz2     :     0.000001  d :     0.000004
      dxz     :     0.000000
      dyz     :     0.000000
      dx2y2   :     0.000002
      dxy     :     0.000000
      f0      :    -0.000000  f :     0.000000
      f+1     :     0.000000
      f-1     :     0.000000
      f+2     :     0.000000
      f-2     :     0.000000
      f+3     :     0.000000
      f-3     :     0.000000
 23 F s       :     0.000000  s :     0.000000
      pz      :     0.000002  p :     0.000009
      px      :    -0.000000
      py      :     0.000007
      dz2     :     0.000001  d :     0.000002
      dxz     :     0.000000
      dyz     :     0.000000
      dx2y2   :     0.000000
      dxy     :     0.000000
      f0      :     0.000000  f :     0.000000
      f+1     :     0.000000
      f-1     :     0.000000
      f+2     :     0.000000
      f-2     :     0.000000
      f+3     :     0.000000
      f-3     :    -0.000000


                      *****************************
                      * MAYER POPULATION ANALYSIS *
                      *****************************

  NA   - Mulliken gross atomic population
  ZA   - Total nuclear charge
  QA   - Mulliken gross atomic charge
  VA   - Mayer's total valence
  BVA  - Mayer's bonded valence
  FA   - Mayer's free valence

  ATOM       NA         ZA         QA         VA         BVA        FA
  0 C      5.8337     6.0000     0.1663     4.6288     4.6288     0.0000
  1 O      8.4714     8.0000    -0.4714     2.0050     2.0045     0.0005
  2 O      8.4846     8.0000    -0.4846     1.9793     1.9777     0.0016
  3 C      5.6894     6.0000     0.3106     3.9860     3.9841     0.0019
  4 C      5.8872     6.0000     0.1128     3.8673     3.2984     0.5689
  5 C      5.6708     6.0000     0.3292     4.2524     4.2497     0.0027
  6 C      5.7044     6.0000     0.2956     4.1741     4.1739     0.0002
  7 C      5.7294     6.0000     0.2706     4.2147     4.2147     0.0000
  8 C      5.7058     6.0000     0.2942     4.2461     4.2461     0.0000
  9 C      5.5914     6.0000     0.4086     4.5700     4.5700     0.0000
 10 F      9.2119     9.0000    -0.2119     1.0668     1.0656     0.0012
 11 F      9.2063     9.0000    -0.2063     1.0707     1.0707     0.0000
 12 F      9.1650     9.0000    -0.1650     1.1575     1.1487     0.0088
 13 F      9.1653     9.0000    -0.1653     1.1525     1.1525     0.0000
 14 F      9.1754     9.0000    -0.1754     1.1314     1.1305     0.0009
 15 F      9.1585     9.0000    -0.1585     1.1666     1.1666     0.0000
 16 F      9.1523     9.0000    -0.1523     1.1778     1.1777     0.0000
 17 F      9.1502     9.0000    -0.1502     1.1790     1.1790     0.0000
 18 F      9.1513     9.0000    -0.1513     1.1750     1.1750     0.0000
 19 F      9.1475     9.0000    -0.1475     1.1790     1.1790     0.0000
 20 F      9.1450     9.0000    -0.1450     1.1803     1.1803     0.0000
 21 F      9.1360     9.0000    -0.1360     1.1884     1.1884     0.0000
 22 F      9.1335     9.0000    -0.1335     1.1910     1.1910     0.0000
 23 F      9.1336     9.0000    -0.1336     1.1916     1.1916     0.0000

  Mayer bond orders larger than 0.100000
B(  0-C ,  1-O ) :   1.8765 B(  0-C ,  2-O ) :   1.8085 B(  0-C ,  3-C ) :   0.8882 
B(  3-C ,  4-C ) :   0.9967 B(  3-C , 10-F ) :   1.0330 B(  3-C , 11-F ) :   1.0117 
B(  4-C ,  5-C ) :   1.0420 B(  4-C , 12-F ) :   1.0582 B(  5-C ,  6-C ) :   0.9393 
B(  5-C , 13-F ) :   1.0685 B(  5-C , 14-F ) :   1.0681 B(  6-C ,  7-C ) :   0.9394 
B(  6-C , 15-F ) :   1.0808 B(  6-C , 16-F ) :   1.1021 B(  7-C ,  8-C ) :   0.9390 
B(  7-C , 17-F ) :   1.0960 B(  7-C , 18-F ) :   1.0999 B(  8-C ,  9-C ) :   0.9719 
B(  8-C , 19-F ) :   1.1014 B(  8-C , 20-F ) :   1.1110 B(  9-C , 21-F ) :   1.1581 
B(  9-C , 22-F ) :   1.1626 B(  9-C , 23-F ) :   1.1705 

-------
TIMINGS
-------

Total SCF time: 0 days 0 hours 1 min 8 sec 

Total time                  ....      68.043 sec
Sum of individual times     ....      65.701 sec  ( 96.6%)

Fock matrix formation       ....      58.185 sec  ( 85.5%)
  Split-RI-J                ....       3.374 sec  (  5.8% of F)
  Chain of spheres X        ....      39.930 sec  ( 68.6% of F)
  XC integration            ....      10.098 sec  ( 17.4% of F)
    Basis function eval.    ....       0.616 sec  (  6.1% of XC)
    Density eval.           ....       3.713 sec  ( 36.8% of XC)
    XC-Functional eval.     ....       0.335 sec  (  3.3% of XC)
    XC-Potential eval.      ....       2.588 sec  ( 25.6% of XC)
Diagonalization             ....       3.278 sec  (  4.8%)
Density matrix formation    ....       0.188 sec  (  0.3%)
Population analysis         ....       0.265 sec  (  0.4%)
Initial guess               ....       0.465 sec  (  0.7%)
Orbital Transformation      ....       0.000 sec  (  0.0%)
Orbital Orthonormalization  ....       0.397 sec  (  0.6%)
DIIS solution               ....       1.305 sec  (  1.9%)
Grid generation             ....       2.016 sec  (  3.0%)

Maximum memory used throughout the entire SCF-calculation: 161.1 MB


-------------------------------------------------------------------------------
                          DFT DISPERSION CORRECTION                            
                                                                               
                              DFTD3 V3.1  Rev 1                                
                          USING Becke-Johnson damping                          
-------------------------------------------------------------------------------
The TPSSH functional is recognized
Active option DFTDOPT                   ...         4   

molecular C6(AA) [au] = 6299.664328 


            DFT-D V3
 parameters
 s6 scaling factor         :     1.0000 
 a1 scaling factor         :     0.4529 
 s8 scaling factor         :     2.2382 
 a2 scaling factor         :     4.6550 
 ad hoc parameters k1-k3   :    16.0000     1.3333    -4.0000 

 Edisp/kcal,au: -18.565049542480  -0.029585286485 
 E6   /kcal   :  -8.969786028 
 E8   /kcal   :  -9.595263514 
 % E8         :  51.684556468 

-------------------------   ----------------
Dispersion correction           -0.029585286
-------------------------   ----------------


-------------------------   --------------------
FINAL SINGLE POINT ENERGY     -1853.953203597172
-------------------------   --------------------

                                *** OPTIMIZATION RUN DONE ***

                            ***************************************
                            *     ORCA property calculations      *
                            ***************************************

                                    ---------------------
                                    Active property flags
                                    ---------------------
   (+) Dipole Moment


------------------------------------------------------------------------------
                       ORCA ELECTRIC PROPERTIES CALCULATION
------------------------------------------------------------------------------

Dipole Moment Calculation                       ... on
Quadrupole Moment Calculation                   ... off
Polarizability Calculation                      ... off
GBWName                                         ... rf_mecn_opt_TPS_C3_D_B.gbw
Electron density                                ... rf_mecn_opt_TPS_C3_D_B.scfp
The origin for moment calculation is the CENTER OF MASS  = (-0.265723, -0.059214  0.139124)

-------------
DIPOLE MOMENT
-------------
                                X             Y             Z
Electronic contribution:    -14.22003       1.43963       4.94973
Nuclear contribution   :      7.56220      -0.65816      -2.77408
                        -----------------------------------------
Total Dipole Moment    :     -6.65784       0.78147       2.17565
                        -----------------------------------------
Magnitude (a.u.)       :      7.04776
Magnitude (Debye)      :     17.91399



--------------------
Rotational spectrum 
--------------------
 
Rotational constants in cm-1:     0.018792     0.004367     0.004170 
Rotational constants in MHz :   563.363985   130.918536   125.024920 

 Dipole components along the rotational axes: 
x,y,z [a.u.] :    -6.490829     2.689915     0.551758 
x,y,z [Debye]:   -16.498377     6.837220     1.402456 

 

Timings for individual modules:

Sum of individual times         ...     5419.847 sec (=  90.331 min)
GTO integral calculation        ...       45.850 sec (=   0.764 min)   0.8 %
SCF iterations                  ...     4526.178 sec (=  75.436 min)  83.5 %
SCF Gradient evaluation         ...      845.525 sec (=  14.092 min)  15.6 %
Geometry relaxation             ...        2.294 sec (=   0.038 min)   0.0 %
                             ****ORCA TERMINATED NORMALLY****
TOTAL RUN TIME: 0 days 1 hours 30 minutes 38 seconds 967 msec
