
                                 *****************
                                 * O   R   C   A *
                                 *****************

                                            #,                                       
                                            ###                                      
                                            ####                                     
                                            #####                                    
                                            ######                                   
                                           ########,                                 
                                     ,,################,,,,,                         
                               ,,#################################,,                 
                          ,,##########################################,,             
                       ,#########################################, ''#####,          
                    ,#############################################,,   '####,        
                  ,##################################################,,,,####,       
                ,###########''''           ''''###############################       
              ,#####''   ,,,,##########,,,,          '''####'''          '####       
            ,##' ,,,,###########################,,,                        '##       
           ' ,,###''''                  '''############,,,                           
         ,,##''                                '''############,,,,        ,,,,,,###''
      ,#''                                            '''#######################'''  
     '                                                          ''''####''''         
             ,#######,   #######,   ,#######,      ##                                
            ,#'     '#,  ##    ##  ,#'     '#,    #''#        ,####,   ,####,        
            ##       ##  ##   ,#'  ##            #'  '#       #'       #'  '#        
            ##       ##  #######   ##           ,######,      #####,   #    #        
            '#,     ,#'  ##    ##  '#,     ,#' ,#      #,     #,   #   #,  ,#        
             '#######'   ##     ##  '#######'  #'      '#     '####' # '####'        



                #########################################################
                #                        -***-                          #
                #          Department of theory and spectroscopy        #
                #                                                       #
                #                      Frank Neese                      #
                #                                                       #
                #     Directorship, Architecture, Infrastructure        #
                #                    SHARK, DRIVERS                     #
                #        Core code/Algorithms in most modules           #
                #                                                       #
                #        Max Planck Institute fuer Kohlenforschung      #
                #                Kaiser Wilhelm Platz 1                 #
                #                 D-45470 Muelheim/Ruhr                 #
                #                      Germany                          #
                #                                                       #
                #                  All rights reserved                  #
                #                        -***-                          #
                #########################################################


                         Program Version 6.0.1  -  RELEASE   -


 With contributions from (in alphabetic order):
[Max-Planck-Institut fuer Kohlenforschung]                               
  Daniel Aravena         : Magnetic Suceptibility                        
  Michael Atanasov       : Ab Initio Ligand Field Theory (pilot matlab implementation)
  Alexander A. Auer      : GIAO ZORA, VPT2 properties, NMR spectrum      
  Ute Becker             : All parallelization in ORCA, NUMFREQ, NUMCALC 
  Giovanni Bistoni       : ED, misc. LED, open-shell LED, HFLD           
  Martin Brehm           : Molecular dynamics                            
  Dmytro Bykov           : pre 5.0 version of the SCF Hessian            
  Marcos Casanova-Páez   : Triplet and SCS-CIS(D). UHF-(DLPNO)-IP/EA/STEOM-CCSD. UHF-CVS-IP/STEOM-CCSD   
  Vijay G. Chilkuri      : MRCI spin determinant printing, contributions to CSF-ICE 
  Pauline Colinet        : FMM embedding                                 
  Dipayan Datta          : RHF DLPNO-CCSD density                        
  Achintya Kumar Dutta   : EOM-CC, STEOM-CC                              
  Nicolas Foglia         : Exact transition moments, OPA infrastructure, MCD improvements    
  Dmitry Ganyushin       : Spin-Orbit,Spin-Spin,Magnetic field MRCI      
  Miquel Garcia-Rates    : C-PCM and meta-GGA Hessian, CCSD/C-PCM, Gaussian charge scheme 
  Tiago L. C. Gouveia    : GS-ROHF, GS-ROCIS                             
  Yang Guo               : DLPNO-NEVPT2, F12-NEVPT2, CIM, IAO-localization        
  Andreas Hansen         : Spin unrestricted coupled pair/coupled cluster methods 
  Ingolf Harden          : AUTO-CI MPn and infrastructure                
  Benjamin Helmich-Paris : MC-RPA, TRAH-(SCF,CASSCF), AVAS, COSX integrals, SCF dyn. polar. 
  Lee Huntington         : MR-EOM, pCC                                   
  Robert Izsak           : Overlap fitted RIJCOSX, COSX-SCS-MP3, EOM     
  Riya Kayal             : Wick's Theorem for AUTO-CI, AUTO-CI UHF-CCSDT 
  Emily Kempfer          : AUTO-CI, RHF CISDT and CCSDT                  
  Christian Kollmar      : KDIIS, OOCD, Brueckner-CCSD(T), CCSD density, CASPT2, CASPT2-K, improved NEVPT2 
  Axel Koslowski         : Symmetry handling                             
  Simone Kossmann        : meta-GGA functionals, TD-DFT gradient, OOMP2, (MP2 Hessian; deprecated post 5.0) 
  Lucas Lang             : DCDCAS                                        
  Marvin Lechner         : AUTO-CI (C++ implementation), FIC-MRCC        
  Spencer Leger          : CASSCF response                               
  Dagmar Lenk            : GEPOL surface, SMD, ORCA-2-JSON               
  Dimitrios Liakos       : Extrapolation schemes; Compound Job, initial MDCI parallelization 
  Dimitrios Manganas     : Further ROCIS development; embedding schemes. LFT, Crystal Embedding 
  Dimitrios Pantazis     : SARC Basis sets                               
  Anastasios Papadopoulos: AUTO-CI, single reference methods and gradients 
  Taras Petrenko         : pre 6.0 DFT Hessian and TD-DFT gradient, (ASA, deprecated), ECA, 1-Electron XAS/XES, NRVS 
  Peter Pinski           : DLPNO-MP2, DLPNO-MP2 Gradient                 
  Christoph Reimann      : Effective Core Potentials                     
  Marius Retegan         : Local ZFS, SOC                                
  Christoph Riplinger    : Optimizer, TS searches, QM/MM, DLPNO-CCSD(T), (RO)-DLPNO pert. Triples 
  Michael Roemelt        : Original ROCIS implementation                 
  Masaaki Saitow         : Open-shell DLPNO-CCSD energy and density      
  Barbara Sandhoefer     : DKH picture change effects                    
  Kantharuban Sivalingam : CASSCF convergence/infrastructure, NEVPT2 and variants, FIC-MRCI 
  Bernardo de Souza      : ESD, SOC TD-DFT                               
  Georgi L. Stoychev     : AutoAux, RI-MP2 NMR, DLPNO-MP2 response, X2C  
  Van Anh Tran           : RI-MP2 g-tensors                              
  Willem Van den Heuvel  : Paramagnetic NMR                              
  Zikuan Wang            : NOTCH, Electric field optimization            
  Frank Wennmohs         : Technical directorship and infrastructure     
  Hang Xu                : AUTO-CI-Response properties                   
                                                                         
[FACCTs GmbH]                                                            
  Markus Bursch, Miquel Garcia-Rates, Christoph Riplinger, Bernardo de Souza, Georgi L. Stoychev 
                                                                 
  APM, Basis sets (HGBS, AHGBS, def-TZVP (Ac-Lr), def2-XVPD (La-Lu)), CI-OPT, improved COSX, DLPNO-Multilevel,           
  DOCKER, DRACO, updates on ESD, GOAT, IRC, LR-CPCM, MBIS, meta-GGA TD-DFT gradient, ML-optimized integration grids, 
  MM, NACMEs, nearIR, NEB, NEB-TS, NL-DFT gradient (VV10), 2- and 3-layer-ONIOM, interface openCOSMO-RS, QMMM,   
  Crystal-QMMM, SF, symmetry and pop. for TD-DFT, r2SCAN hybrids, SOLVATOR                                   
                                                                         
[Other institutions]                                                     
  V. Asgeirsson          : NEB                                           
  Christoph Bannwarth    : sTDA-DFT, sTD-DFT, PBEh-3c, B97-3c, D3        
  Sebastian Ehlert       : rSCAN, r2SCAN, r2SCAN-3c, D4, dhf basis sets  
  Marvin Friede          : D4 for Fr, Ra, Ac-Lr                          
  Lars Goerigk           : TD-DFT with DH, B97 family of functionals     
  Stefan Grimme          : VdW corrections, initial TS optimization, DFT functionals, gCP, sTDA/sTD-DF 
  Waldemar Hujo          : DFT-NL                                        
  H. Jonsson             : NEB                                           
  Holger Kruse           : gCP                                           
  Marcel Mueller         : wB97X-3c, vDZP basis set                      
  Hagen Neugebauer       : wr2SCAN                                       
  Tobias Risthaus        : range-separated hybrid DFT                    
  Lukas Wittmann         : regularized MP2, r2SCAN double-hybrids, wr2SCAN        
                                                                         
We gratefully acknowledge several colleagues who have allowed us to      
interface, adapt or use parts of their codes:                            
  Ed Valeev, F. Pavosevic, A. Kumar             : LibInt (2-el integral package), F12 methods 
  Garnet Chan, S. Sharma, J. Yang, R. Olivares  : DMRG                   
  Ulf Ekstrom                                   : XCFun DFT Library      
  Mihaly Kallay                                 : mrcc  (arbitrary order and MRCC methods)
  Frank Weinhold                                : gennbo (NPA and NBO analysis)           
  Simon Mueller                                 : openCOSMO-RS                            
  Christopher J. Cramer and Donald G. Truhlar   : smd solvation model                     
  S Lehtola, MJT Oliveira, MAL Marques          : LibXC Library                           
  Liviu Ungur et al                             : ANISO software                          


 Your calculation uses the libint2 library for the computation of 2-el integrals
 For citations please refer to: http://libint.valeyev.net

 Your ORCA version has been built with support for libXC version: 6.2.2
 For citations please refer to: https://libxc.gitlab.io

 This ORCA versions uses:
   CBLAS   interface :  Fast vector & matrix operations
   LAPACKE interface :  Fast linear algebra routines
   SCALAPACK package :  Parallel linear algebra routines
   Shared memory     :  Shared parallel matrices
   BLAS/LAPACK       :  OpenBLAS 0.3.27  USE64BITINT DYNAMIC_ARCH NO_AFFINITY SkylakeX SINGLE_THREADED
        Core in use  :  SkylakeX
   Copyright (c) 2011-2014, The OpenBLAS Project


NOTE: MaxCore=8000 MB was set to SCF,MP2,MDCI,CIPSI,MRCI and CIS
      => If you want to overwrite this, your respective input block should be placed after the MaxCore statement
Your calculation utilizes the atom-pairwise dispersion correction
with the Becke-Johnson damping scheme (D3BJ)


Your calculation utilizes the SMD solvation module
Please cite in your paper:
A.V. Marenich, C.J. Cramer, D.G. Truhlar J. Phys. Chem. B, 113, (2009), 6378 

Warning: RI is on but no J-basis has been assigned. Assigning Def2/J (nothing to worry about!)
================================================================================

----- Orbital basis set information -----
Your calculation utilizes the basis: def2-TZVP
   F. Weigend and R. Ahlrichs, Phys. Chem. Chem. Phys. 7, 3297 (2005).

----- AuxJ basis set information -----
Your calculation utilizes the auxiliary basis: def2/J
   F. Weigend, Phys. Chem. Chem. Phys. 8, 1057 (2006).

================================================================================
                                        WARNINGS
                       Please study these warnings very carefully!
================================================================================



WARNING: SCAN, rSCAN, or r2SCAN functional requested.
  ===> : libXC variant has now been activated.



WARNING: your system is open-shell and RHF/RKS was chosen
  ===> : WILL SWITCH to UHF/UKS


WARNING: Geometry Optimization
  ===> : Switching off AutoStart
         For restart on a previous wavefunction, please use MOREAD

================================================================================
                                       INPUT FILE
================================================================================
NAME = rf_mecn_1H2O_opt_r2s_sw_004.inp
|  1> !r2scanh def2-TZVP opt d3 TightSCF SlowConv defgrid2
|  2>  
|  3> %pal
|  4> nprocs 20
|  5> end
|  6>  
|  7> %scf
|  8> MaxIter 1500
|  9> end
| 10>  
| 11> %maxcore 8000
| 12>  
| 13> !CPCM
| 14> %cpcm smd true
| 15> SMDsolvent "ACETONITRILE"
| 16> end
| 17>  
| 18> * xyz -2 2
| 19> 6        6.857280945     27.901753127      3.100719684
| 20> 6        6.154044945     26.704598127      2.411135684
| 21> 6        7.086539945     25.482838127      2.185613684
| 22> 6        6.299616945     24.171731127      1.900070684
| 23> 6        7.185881945     23.070259127      1.248991684
| 24> 6        6.565390945     21.647303127      1.360366684
| 25> 6        7.185681945     20.616666127      0.394672684
| 26> 6        6.843394945     19.121603127      0.784430684
| 27> 9        8.006806945     28.182557127      2.503585684
| 28> 9        7.082780945     27.647576127      4.378925684
| 29> 9        6.067588945     28.966668127      3.018348684
| 30> 9        5.116418945     26.361022127      3.182510684
| 31> 9        5.702795945     27.135986127      1.230360684
| 32> 9        7.887905945     25.777720127      1.156931684
| 33> 9        7.829891945     25.318192127      3.287321684
| 34> 9        5.806494945     23.745652127      3.066652684
| 35> 9        5.287431945     24.474179127      1.076603684
| 36> 9        7.350609945     23.413929127     -0.034316316
| 37> 9        8.377622945     23.098911127      1.865134684
| 38> 9        6.756126945     21.255165127      2.631170684
| 39> 9        5.250981945     21.784657127      1.133608684
| 40> 9        6.706596945     20.903759127     -0.845345316
| 41> 9        8.519170945     20.869305127      0.364163684
| 42> 8        7.813741945     18.363469127      0.789215684
| 43> 8        5.634555945     18.967368127      0.997888684
| 44> 8        2.818390092     18.736599843      1.412612662
| 45> 1        2.716934106     17.791620290      1.243555674
| 46> 1        3.748070901     18.906228277      1.215686974
| 47> *
| 48> 
| 49>                          ****END OF INPUT****
================================================================================

                       *****************************
                       * Geometry Optimization Run *
                       *****************************

Geometry optimization settings:
Update method            Update   .... BFGS
Choice of coordinates    CoordSys .... (2022) Redundant Internals
Initial Hessian          InHess   .... Almloef's Model
Max. no of cycles        MaxIter  .... 84

Convergence Tolerances:
Energy Change            TolE     ....  5.0000e-06 Eh
Max. Gradient            TolMAXG  ....  3.0000e-04 Eh/bohr
RMS Gradient             TolRMSG  ....  1.0000e-04 Eh/bohr
Max. Displacement        TolMAXD  ....  4.0000e-03 bohr
RMS Displacement         TolRMSD  ....  2.0000e-03 bohr
Strict Convergence                .... False

------------------------------------------------------------------------------
                        ORCA OPTIMIZATION COORDINATE SETUP
------------------------------------------------------------------------------

The optimization will be done in redundant internal coordinates (2022)
Making redundant internal coordinates   ...  (2022 redundants) done
Evaluating the initial hessian          ...  (Almloef) done
Evaluating the coordinates              ...  done
Calculating the B-matrix                .... done
Calculating the G-matrix                .... done
Diagonalizing the G-matrix              .... done
Small eigenvalue found = 2.494e-03
Small eigenvalue found = 9.182e-03
Small eigenvalue found = 1.155e-02
Small eigenvalue found = 2.495e-02
The first mode is                       ....   42
The number of degrees of freedom        ....   78

    -----------------------------------------------------------------
                    Redundant Internal Coordinates


    -----------------------------------------------------------------
         Definition                    Initial Value    Approx d2E/dq
    -----------------------------------------------------------------
      1. B(C   1,C   0)                  1.5502         0.346804   
      2. B(C   2,C   1)                  1.5534         0.342781   
      3. B(C   3,C   2)                  1.5556         0.340086   
      4. B(C   4,C   3)                  1.5565         0.338954   
      5. B(C   5,C   4)                  1.5563         0.339111   
      6. B(C   6,C   5)                  1.5426         0.356709   
      7. B(C   7,C   6)                  1.5825         0.308055   
      8. B(F   8,C   0)                  1.3255         0.659090   
      9. B(F   9,C   0)                  1.3226         0.666042   
     10. B(F  10,C   0)                  1.3283         0.652181   
     11. B(F  11,C   1)                  1.3378         0.629847   
     12. B(F  12,C   1)                  1.3356         0.634870   
     13. B(F  13,C   2)                  1.3369         0.631928   
     14. B(F  14,C   2)                  1.3392         0.626649   
     15. B(F  15,C   3)                  1.3363         0.633409   
     16. B(F  16,C   3)                  1.3394         0.626090   
     17. B(F  17,C   4)                  1.3387         0.627782   
     18. B(F  18,C   4)                  1.3419         0.620447   
     19. B(F  19,C   5)                  1.3435         0.616728   
     20. B(F  20,C   5)                  1.3409         0.622782   
     21. B(F  21,C   6)                  1.3600         0.580545   
     22. B(F  22,C   6)                  1.3576         0.585779   
     23. B(O  23,C   7)                  1.2314         1.002075   
     24. B(O  24,C   7)                  1.2372         0.981004   
     25. B(H  26,O  25)                  0.9653         0.509876   
     26. B(H  27,O  24)                  1.9000         0.016453   
     27. B(H  27,O  25)                  0.9653         0.509876   
     28. A(C   1,C   0,F   9)          111.0282         0.392261   
     29. A(C   1,C   0,F   8)          110.8930         0.391542   
     30. A(F   8,C   0,F  10)          108.5307         0.433227   
     31. A(F   8,C   0,F   9)          109.1619         0.434870   
     32. A(C   1,C   0,F  10)          108.7739         0.390821   
     33. A(F   9,C   0,F  10)          108.3827         0.434046   
     34. A(C   2,C   1,F  11)          110.3230         0.387660   
     35. A(C   0,C   1,C   2)          113.5553         0.353571   
     36. A(F  11,C   1,F  12)          109.3079         0.427641   
     37. A(C   0,C   1,F  11)          107.0787         0.388450   
     38. A(C   2,C   1,F  12)          109.1769         0.388197   
     39. A(C   0,C   1,F  12)          107.2827         0.388989   
     40. A(C   3,C   2,F  13)          110.3587         0.387350   
     41. A(F  13,C   2,F  14)          109.1107         0.426896   
     42. A(C   1,C   2,F  14)          108.0873         0.387316   
     43. A(C   1,C   2,C   3)          112.6983         0.352402   
     44. A(C   1,C   2,F  13)          107.3405         0.387883   
     45. A(C   3,C   2,F  14)          109.1587         0.386784   
     46. A(F  15,C   3,F  16)          109.2595         0.427007   
     47. A(C   4,C   3,F  16)          109.4458         0.386499   
     48. A(C   2,C   3,F  16)          107.7470         0.386724   
     49. A(C   4,C   3,F  15)          110.4668         0.387282   
     50. A(C   2,C   3,C   4)          112.6559         0.351734   
     51. A(C   2,C   3,F  15)          107.1682         0.387508   
     52. A(C   3,C   4,F  18)          107.3682         0.385890   
     53. A(C   5,C   4,F  17)          110.6326         0.386712   
     54. A(C   3,C   4,F  17)          106.8213         0.386681   
     55. A(C   3,C   4,C   5)          112.9589         0.351563   
     56. A(F  17,C   4,F  18)          108.9895         0.425634   
     57. A(C   5,C   4,F  18)          109.9216         0.385921   
     58. A(C   4,C   5,C   6)          113.9380         0.354615   
     59. A(F  19,C   5,F  20)          109.2091         0.424568   
     60. A(C   6,C   5,F  20)          110.9006         0.389596   
     61. A(C   4,C   5,F  20)          106.5622         0.386174   
     62. A(C   6,C   5,F  19)          109.8795         0.388932   
     63. A(C   4,C   5,F  19)          106.1374         0.385517   
     64. A(C   5,C   6,C   7)          112.9578         0.348903   
     65. A(F  21,C   6,F  22)          106.6335         0.415450   
     66. A(C   7,C   6,F  22)          113.1920         0.375779   
     67. A(C   5,C   6,F  22)          106.5420         0.385457   
     68. A(C   7,C   6,F  21)          110.3532         0.375197   
     69. A(C   5,C   6,F  21)          106.7446         0.384856   
     70. A(O  23,C   7,O  24)          133.8297         0.508781   
     71. A(C   6,C   7,O  24)          111.8150         0.413089   
     72. A(C   6,C   7,O  23)          114.3410         0.414652   
     73. A(C   7,O  24,H  27)          173.6796         0.231741   
     74. A(H  26,O  25,H  27)          103.7396         0.319780   
     75. A(O  24,H  27,O  25)          170.1504         0.195092   
     76. D(F  11,C   1,C   0,F   9)     49.4768         0.009705   
     77. D(C   2,C   1,C   0,F   8)     48.9947         0.009705   
     78. D(F  11,C   1,C   0,F   8)    171.0207         0.009705   
     79. D(F  11,C   1,C   0,F  10)    -69.7011         0.009705   
     80. D(C   2,C   1,C   0,F   9)    -72.5492         0.009705   
     81. D(C   2,C   1,C   0,F  10)    168.2729         0.009705   
     82. D(C   3,C   2,C   1,C   0)    162.7875         0.009500   
     83. D(F  13,C   2,C   1,F  12)     44.1537         0.009500   
     84. D(F  13,C   2,C   1,C   0)    -75.4998         0.009500   
     85. D(F  13,C   2,C   1,F  11)    164.2939         0.009500   
     86. D(C   3,C   2,C   1,F  11)     42.5812         0.009500   
     87. D(C   3,C   2,C   1,F  12)    -77.5590         0.009500   
     88. D(C   4,C   3,C   2,F  13)     42.1846         0.009364   
     89. D(C   4,C   3,C   2,F  14)    -77.7232         0.009364   
     90. D(C   4,C   3,C   2,C   1)    162.1720         0.009364   
     91. D(F  15,C   3,C   2,F  14)     43.9807         0.009364   
     92. D(F  15,C   3,C   2,F  13)    163.8885         0.009364   
     93. D(F  15,C   3,C   2,C   1)    -76.1241         0.009364   
     94. D(F  17,C   4,C   3,F  16)     43.8732         0.009308   
     95. D(F  17,C   4,C   3,F  15)    164.2137         0.009308   
     96. D(F  17,C   4,C   3,C   2)    -75.9715         0.009308   
     97. D(C   5,C   4,C   3,F  16)    -77.9884         0.009308   
     98. D(C   5,C   4,C   3,F  15)     42.3521         0.009308   
     99. D(C   5,C   4,C   3,C   2)    162.1669         0.009308   
    100. D(F  19,C   5,C   4,F  18)     44.0726         0.009315   
    101. D(F  19,C   5,C   4,F  17)    164.4895         0.009315   
    102. D(F  19,C   5,C   4,C   3)    -75.8189         0.009315   
    103. D(C   6,C   5,C   4,F  18)    -76.9753         0.009315   
    104. D(C   6,C   5,C   4,F  17)     43.4416         0.009315   
    105. D(C   6,C   5,C   4,C   3)    163.1331         0.009315   
    106. D(C   7,C   6,C   5,C   4)    164.0956         0.010222   
    107. D(F  21,C   6,C   5,F  20)     45.7788         0.010222   
    108. D(F  21,C   6,C   5,F  19)    166.6154         0.010222   
    109. D(F  21,C   6,C   5,C   4)    -74.4447         0.010222   
    110. D(C   7,C   6,C   5,F  20)    -75.6808         0.010222   
    111. D(C   7,C   6,C   5,F  19)     45.1557         0.010222   
    112. D(O  24,C   7,C   6,F  21)    -70.5516         0.007386   
    113. D(O  24,C   7,C   6,C   5)     48.8461         0.007386   
    114. D(O  23,C   7,C   6,F  22)    -11.1459         0.007386   
    115. D(O  23,C   7,C   6,F  21)    108.2663         0.007386   
    116. D(O  23,C   7,C   6,C   5)   -132.3360         0.007386   
    117. D(H  27,O  24,C   7,O  23)   -158.3762         0.078375   
    118. D(H  27,O  24,C   7,C   6)     20.1307         0.078375   
    119. D(O  24,H  27,O  25,H  26)    -44.6419         0.289652   
    120. D(O  25,H  27,O  24,C   7)    180.0000         0.001625   
    -----------------------------------------------------------------

Number of atoms                         .... 28
Number of degrees of freedom            .... 120


         *************************************************************
         *                GEOMETRY OPTIMIZATION CYCLE   1            *
         *************************************************************
---------------------------------
CARTESIAN COORDINATES (ANGSTROEM)
---------------------------------
  C      6.857281   27.901753    3.100720
  C      6.154045   26.704598    2.411136
  C      7.086540   25.482838    2.185614
  C      6.299617   24.171731    1.900071
  C      7.185882   23.070259    1.248992
  C      6.565391   21.647303    1.360367
  C      7.185682   20.616666    0.394673
  C      6.843395   19.121603    0.784431
  F      8.006807   28.182557    2.503586
  F      7.082781   27.647576    4.378926
  F      6.067589   28.966668    3.018349
  F      5.116419   26.361022    3.182511
  F      5.702796   27.135986    1.230361
  F      7.887906   25.777720    1.156932
  F      7.829892   25.318192    3.287322
  F      5.806495   23.745652    3.066653
  F      5.287432   24.474179    1.076604
  F      7.350610   23.413929   -0.034316
  F      8.377623   23.098911    1.865135
  F      6.756127   21.255165    2.631171
  F      5.250982   21.784657    1.133609
  F      6.706597   20.903759   -0.845345
  F      8.519171   20.869305    0.364164
  O      7.813742   18.363469    0.789216
  O      5.634556   18.967368    0.997889
  O      2.818390   18.736600    1.412613
  H      2.716934   17.791620    1.243556
  H      3.748071   18.906228    1.215687

----------------------------
CARTESIAN COORDINATES (A.U.)
----------------------------
  NO LB      ZA    FRAG     MASS         X           Y           Z
   0 C     6.0000    0    12.011   12.958383   52.726672    5.859511
   1 C     6.0000    0    12.011   11.629460   50.464377    4.556386
   2 C     6.0000    0    12.011   13.391620   48.155585    4.130211
   3 C     6.0000    0    12.011   11.904551   45.677952    3.590613
   4 C     6.0000    0    12.011   13.579349   43.596472    2.360252
   5 C     6.0000    0    12.011   12.406791   40.907474    2.570720
   6 C     6.0000    0    12.011   13.578971   38.959853    0.745823
   7 C     6.0000    0    12.011   12.932142   36.134593    1.482359
   8 F     9.0000    0    18.998   15.130672   53.257315    4.731091
   9 F     9.0000    0    18.998   13.384516   52.246347    8.274970
  10 F     9.0000    0    18.998   11.466081   54.739070    5.703852
  11 F     9.0000    0    18.998    9.668631   49.815112    6.014074
  12 F     9.0000    0    18.998   10.776723   51.279582    2.325045
  13 F     9.0000    0    18.998   14.905982   48.712831    2.186284
  14 F     9.0000    0    18.998   14.796351   47.844449    6.212138
  15 F     9.0000    0    18.998   10.972685   44.872779    5.795134
  16 F     9.0000    0    18.998    9.991798   46.249496    2.034486
  17 F     9.0000    0    18.998   13.890640   44.245914   -0.064848
  18 F     9.0000    0    18.998   15.831413   43.650616    3.524594
  19 F     9.0000    0    18.998   12.767230   40.166441    4.972192
  20 F     9.0000    0    18.998    9.922918   41.167036    2.142210
  21 F     9.0000    0    18.998   12.673632   39.502380   -1.597471
  22 F     9.0000    0    18.998   16.098900   39.437271    0.688170
  23 O     8.0000    0    15.999   14.765832   34.701928    1.491402
  24 O     8.0000    0    15.999   10.647768   35.843131    1.885736
  25 O     8.0000    0    15.999    5.325985   35.407042    2.669451
  26 H     1.0000    0     1.008    5.134261   33.621290    2.349980
  27 H     1.0000    0     1.008    7.082828   35.727594    2.297315

--------------------------------
INTERNAL COORDINATES (ANGSTROEM)
--------------------------------
 C      0   0   0     0.000000000000     0.00000000     0.00000000
 C      1   0   0     1.550240967971     0.00000000     0.00000000
 C      2   1   0     1.553417070561   113.55533844     0.00000000
 C      3   2   1     1.555565549319   112.69827683   162.78749478
 C      4   3   2     1.556473604418   112.65593685   162.17204174
 C      5   4   3     1.556347406475   112.95890429   162.16693919
 C      6   5   4     1.542575266263   113.93798420   163.13314068
 C      7   6   5     1.582493305800   112.95775891   164.09560104
 F      1   2   3     1.325454610708   110.89295443    48.99470066
 F      1   2   3     1.322598493786   111.02821211   287.45080856
 F      1   2   3     1.328323151093   108.77385697   168.27294708
 F      2   1   3     1.337808496862   107.07872998   122.02597894
 F      2   1   3     1.335646235786   107.28270546   239.27402584
 F      3   2   1     1.336910437166   107.34054952   284.50021141
 F      3   2   1     1.339194167581   108.08730739    42.06766241
 F      4   3   2     1.336273244456   107.16821115   283.87589533
 F      4   3   2     1.339436884298   107.74698212    41.35047990
 F      5   4   3     1.338702284210   106.82131950   284.02853646
 F      5   4   3     1.341901540589   107.36821732    40.81959257
 F      6   5   4     1.343538328131   106.13743735   284.18106314
 F      6   5   4     1.340878939786   106.56217547    40.50128759
 F      7   6   5     1.359996128008   106.74461671   285.55525164
 F      7   6   5     1.357553010576   106.54195382    39.20780969
 O      8   7   6     1.231407064536   114.34099629   227.66396244
 O      8   7   6     1.237192176224   111.81500307    48.84611502
 O     25   8   7     2.855878164494   176.99440113    20.13066459
 H     26  25   8     0.965328927296    99.05067288   136.27702780
 H     26  25   8     0.965328927795     6.53484144     0.00000000

---------------------------
INTERNAL COORDINATES (A.U.)
---------------------------
 C      0   0   0     0.000000000000     0.00000000     0.00000000
 C      1   0   0     2.929530871051     0.00000000     0.00000000
 C      2   1   0     2.935532835118   113.55533844     0.00000000
 C      3   2   1     2.939592871575   112.69827683   162.78749478
 C      4   3   2     2.941308847027   112.65593685   162.17204174
 C      5   4   3     2.941070367477   112.95890429   162.16693919
 C      6   5   4     2.915044794198   113.93798420   163.13314068
 C      7   6   5     2.990478956726   112.95775891   164.09560104
 F      1   2   3     2.504746217182   110.89295443    48.99470066
 F      1   2   3     2.499348938392   111.02821211   287.45080856
 F      1   2   3     2.510166972913   108.77385697   168.27294708
 F      2   1   3     2.528091678703   107.07872998   122.02597894
 F      2   1   3     2.524005597439   107.28270546   239.27402584
 F      3   2   1     2.526394591825   107.34054952   284.50021141
 F      3   2   1     2.530710216873   108.08730739    42.06766241
 F      4   3   2     2.525190472108   107.16821115   283.87589533
 F      4   3   2     2.531168884996   107.74698212    41.35047990
 F      5   4   3     2.529780692011   106.82131950   284.02853646
 F      5   4   3     2.535826410399   107.36821732    40.81959257
 F      6   5   4     2.538919490593   106.13743735   284.18106314
 F      6   5   4     2.533893974938   106.56217547    40.50128759
 F      7   6   5     2.570020225129   106.74461671   285.55525164
 F      7   6   5     2.565403402268   106.54195382    39.20780969
 O      8   7   6     2.327022111350   114.34099629   227.66396244
 O      8   7   6     2.337954388093   111.81500307    48.84611502
 O     25   8   7     5.396827602739   176.99440113    20.13066459
 H     26  25   8     1.824207301742    99.05067288   136.27702780
 H     26  25   8     1.824207302685     6.53484144     0.00000000

---------------------
BASIS SET INFORMATION
---------------------
There are 4 groups of distinct atoms

 Group   1 Type C   : 11s6p2d1f contracted to 5s3p2d1f pattern {62111/411/11/1}
 Group   2 Type F   : 11s6p2d1f contracted to 5s3p2d1f pattern {62111/411/11/1}
 Group   3 Type O   : 11s6p2d1f contracted to 5s3p2d1f pattern {62111/411/11/1}
 Group   4 Type H   : 5s1p contracted to 3s1p pattern {311/1}

Atom   0C    basis set group =>   1
Atom   1C    basis set group =>   1
Atom   2C    basis set group =>   1
Atom   3C    basis set group =>   1
Atom   4C    basis set group =>   1
Atom   5C    basis set group =>   1
Atom   6C    basis set group =>   1
Atom   7C    basis set group =>   1
Atom   8F    basis set group =>   2
Atom   9F    basis set group =>   2
Atom  10F    basis set group =>   2
Atom  11F    basis set group =>   2
Atom  12F    basis set group =>   2
Atom  13F    basis set group =>   2
Atom  14F    basis set group =>   2
Atom  15F    basis set group =>   2
Atom  16F    basis set group =>   2
Atom  17F    basis set group =>   2
Atom  18F    basis set group =>   2
Atom  19F    basis set group =>   2
Atom  20F    basis set group =>   2
Atom  21F    basis set group =>   2
Atom  22F    basis set group =>   2
Atom  23O    basis set group =>   3
Atom  24O    basis set group =>   3
Atom  25O    basis set group =>   3
Atom  26H    basis set group =>   4
Atom  27H    basis set group =>   4
---------------------------------
AUXILIARY/J BASIS SET INFORMATION
---------------------------------
There are 4 groups of distinct atoms

 Group   1 Type C   : 12s5p4d2f1g contracted to 6s4p3d1f1g pattern {711111/2111/211/2/1}
 Group   2 Type F   : 12s5p4d2f1g contracted to 6s4p3d1f1g pattern {711111/2111/211/2/1}
 Group   3 Type O   : 12s5p4d2f1g contracted to 6s4p3d1f1g pattern {711111/2111/211/2/1}
 Group   4 Type H   : 5s2p1d contracted to 3s1p1d pattern {311/2/1}

Atom   0C    basis set group =>   1
Atom   1C    basis set group =>   1
Atom   2C    basis set group =>   1
Atom   3C    basis set group =>   1
Atom   4C    basis set group =>   1
Atom   5C    basis set group =>   1
Atom   6C    basis set group =>   1
Atom   7C    basis set group =>   1
Atom   8F    basis set group =>   2
Atom   9F    basis set group =>   2
Atom  10F    basis set group =>   2
Atom  11F    basis set group =>   2
Atom  12F    basis set group =>   2
Atom  13F    basis set group =>   2
Atom  14F    basis set group =>   2
Atom  15F    basis set group =>   2
Atom  16F    basis set group =>   2
Atom  17F    basis set group =>   2
Atom  18F    basis set group =>   2
Atom  19F    basis set group =>   2
Atom  20F    basis set group =>   2
Atom  21F    basis set group =>   2
Atom  22F    basis set group =>   2
Atom  23O    basis set group =>   3
Atom  24O    basis set group =>   3
Atom  25O    basis set group =>   3
Atom  26H    basis set group =>   4
Atom  27H    basis set group =>   4


           ************************************************************
           *        Program running with 20 parallel MPI-processes    *
           *              working on a common directory               *
           ************************************************************
------------------------------------------------------------------------------
                             ORCA STARTUP CALCULATIONS
                           -- RI-GTO INTEGRALS CHOSEN --
------------------------------------------------------------------------------
------------------------------------------------------------------------------
                   ___                                                        
                  /   \      - P O W E R E D   B Y -                         
                 /     \                                                     
                 |  |  |   _    _      __       _____    __    __             
                 |  |  |  | |  | |    /  \     |  _  \  |  |  /  |          
                  \  \/   | |  | |   /    \    | | | |  |  | /  /          
                 / \  \   | |__| |  /  /\  \   | |_| |  |  |/  /          
                |  |  |   |  __  | /  /__\  \  |    /   |      \           
                |  |  |   | |  | | |   __   |  |    \   |  |\   \          
                \     /   | |  | | |  |  |  |  | |\  \  |  | \   \       
                 \___/    |_|  |_| |__|  |__|  |_| \__\ |__|  \__/        
                                                                              
                      - O R C A' S   B I G   F R I E N D -                    
                                      &                                       
                       - I N T E G R A L  F E E D E R -                       
                                                                              
 v1 FN, 2020, v2 2021, v3 2022-2024                                           
------------------------------------------------------------------------------


----------------------
SHARK INTEGRAL PACKAGE
----------------------

Number of atoms                             ...     28
Number of basis functions                   ...    818
Number of shells                            ...    294
Maximum angular momentum                    ...      3
Integral batch strategy                     ... SHARK/LIBINT Hybrid
RI-J (if used) integral strategy            ... SPLIT-RIJ (Revised 2003 algorithm where possible)
Printlevel                                  ...      1
Contraction scheme used                     ... SEGMENTED contraction
Prescreening option                         ... SCHWARTZ
   Thresh                                   ... 2.500e-11
   Tcut                                     ... 2.500e-12
   Tpresel                                  ... 2.500e-12 
Coulomb Range Separation                    ... NOT USED
Exchange Range Separation                   ... NOT USED
Multipole approximations                    ... NOT USED
Finite Nucleus Model                        ... NOT USED
CABS basis                                  ... NOT available
Auxiliary Coulomb fitting basis             ... AVAILABLE
   # of basis functions in Aux-J            ...   1296
   # of shells in Aux-J                     ...    400
   Maximum angular momentum in Aux-J        ...      4
Auxiliary J/K fitting basis                 ... NOT available
Auxiliary Correlation fitting basis         ... NOT available
Auxiliary 'external' fitting basis          ... NOT available

Checking pre-screening integrals            ... done (  0.0 sec) Dimension = 294
Check shell pair data                       ... done (  0.0 sec)
Shell pair information
Shell pair cut-off parameter TPreSel        ...   2.5e-12
Total number of shell pairs                 ...     43365
Shell pairs after pre-screening             ...     25535
Total number of primitive shell pairs       ...    142356
Primitive shell pairs kept                  ...     53484
          la=0 lb=0:   4947 shell pairs
          la=1 lb=0:   7034 shell pairs
          la=1 lb=1:   2417 shell pairs
          la=2 lb=0:   3764 shell pairs
          la=2 lb=1:   2745 shell pairs
          la=2 lb=2:    755 shell pairs
          la=3 lb=0:   1708 shell pairs
          la=3 lb=1:   1309 shell pairs
          la=3 lb=2:    689 shell pairs
          la=3 lb=3:    167 shell pairs

Calculating one electron integrals          ... done (  0.0 sec)
Calculating RI/J V-Matrix + Cholesky decomp.... done (  0.1 sec)
Calculating Nuclear repulsion               ... done (  0.0 sec) ENN=   3082.708906043765 Eh

Diagonalization of the overlap matrix:
Smallest eigenvalue                        ... 5.067e-05
Time for diagonalization                   ...    0.126 sec
Threshold for overlap eigenvalues          ... 1.000e-07
Number of eigenvalues below threshold      ... 0
Time for construction of square roots      ...    0.060 sec
Total time needed                          ...    0.193 sec

-------------------
DFT GRID GENERATION
-------------------

General Integration Accuracy     IntAcc      ... 4.388
Radial Grid Type                 RadialGrid  ... OptM3 with GC (2021)
Angular Grid (max. ang.)         AngularGrid ... 4 (Lebedev-302)
Angular grid pruning method      GridPruning ... 4 (adaptive)
Weight generation scheme         WeightScheme... mBecke (2022)
Basis function cutoff            BFCut       ... 1.0000e-11
Integration weight cutoff        WCut        ... 1.0000e-14
Partially contracted basis set               ... off
Rotationally invariant grid construction     ... off
Angular grids for H and He will be reduced by one unit

Total number of grid points                  ...   164047
Total number of batches                      ...     2576
Average number of points per batch           ...       63
Average number of grid points per atom       ...     5859

--------------------
COSX GRID GENERATION
--------------------

GRIDX 1
-------
General Integration Accuracy     IntAcc      ... 3.816
Radial Grid Type                 RadialGrid  ... OptM3 with GC (2021)
Angular Grid (max. ang.)         AngularGrid ... 1 (Lebedev-50)
Angular grid pruning method      GridPruning ... 4 (adaptive)
Weight generation scheme         WeightScheme... mBecke (2022)
Basis function cutoff            BFCut       ... 1.0000e-11
Integration weight cutoff        WCut        ... 1.0000e-14
Partially contracted basis set               ... on
Rotationally invariant grid construction     ... off
Angular grids for H and He will be reduced by one unit

Total number of grid points                  ...    20660
Total number of batches                      ...      173
Average number of points per batch           ...      119
Average number of grid points per atom       ...      738
UseSFitting                                  ... on

GRIDX 2
-------
General Integration Accuracy     IntAcc      ... 4.020
Radial Grid Type                 RadialGrid  ... OptM3 with GC (2021)
Angular Grid (max. ang.)         AngularGrid ... 2 (Lebedev-110)
Angular grid pruning method      GridPruning ... 4 (adaptive)
Weight generation scheme         WeightScheme... mBecke (2022)
Basis function cutoff            BFCut       ... 1.0000e-11
Integration weight cutoff        WCut        ... 1.0000e-14
Partially contracted basis set               ... on
Rotationally invariant grid construction     ... off
Angular grids for H and He will be reduced by one unit

Total number of grid points                  ...    48341
Total number of batches                      ...      394
Average number of points per batch           ...      122
Average number of grid points per atom       ...     1726
UseSFitting                                  ... on

GRIDX 3
-------
General Integration Accuracy     IntAcc      ... 4.338
Radial Grid Type                 RadialGrid  ... OptM3 with GC (2021)
Angular Grid (max. ang.)         AngularGrid ... 3 (Lebedev-194)
Angular grid pruning method      GridPruning ... 4 (adaptive)
Weight generation scheme         WeightScheme... mBecke (2022)
Basis function cutoff            BFCut       ... 1.0000e-11
Integration weight cutoff        WCut        ... 1.0000e-14
Partially contracted basis set               ... on
Rotationally invariant grid construction     ... off
Angular grids for H and He will be reduced by one unit

Total number of grid points                  ...   106996
Total number of batches                      ...      848
Average number of points per batch           ...      126
Average number of grid points per atom       ...     3821
UseSFitting                                  ... on
Initializing property integral containers    ... done (  0.0 sec)

SHARK setup successfully completed in   3.1 seconds

Maximum memory used throughout the entire STARTUP-calculation: 64.0 MB


           ************************************************************
           *        Program running with 20 parallel MPI-processes    *
           *              working on a common directory               *
           ************************************************************
-------------------------------------------------------------------------------
                                 ORCA GUESS
                   Start orbitals & Density for SCF / CASSCF
-------------------------------------------------------------------------------

------------
SCF SETTINGS
------------
Hamiltonian:
 Density Functional     Method          .... DFT(GTOs)
  Functional kind                       .... Exchange
  Functional name                       .... Re-regularized SCAN exchange by Furness et al
  Functional family                     .... MGGA
  Functional refs                              
    [ 0] J. W. Furness, A. D. Kaplan, J. Ning, J. P. Perdew, and J. Sun.,  J. Phys. Chem. Lett. 11, 8208-8215 (2020), doi: 10.1021/acs.jpclett.0c02405
    [ 1] J. W. Furness, A. D. Kaplan, J. Ning, J. P. Perdew, and J. Sun.,  J. Phys. Chem. Lett. 11, 9248-9248 (2020), doi: 10.1021/acs.jpclett.0c03077
  Functional external parameters        .... 6
    Parameter  0 _c1        =  6.670000e-01 : c1 parameter        
    Parameter  1 _c2        =  8.000000e-01 : c2 parameter        
    Parameter  2 _d         =  1.240000e+00 : d parameter         
    Parameter  3 _k1        =  6.500000e-02 : k1 parameter        
    Parameter  4 _eta       =  1.000000e-03 : eta parameter       
    Parameter  5 _dp2       =  3.610000e-01 : dp2 parameter       
  Functional kind                       .... Correlation
  Functional name                       .... Re-regularized SCAN correlation by Furness et al
  Functional family                     .... MGGA
  Functional refs                              
    [ 0] J. W. Furness, A. D. Kaplan, J. Ning, J. P. Perdew, and J. Sun.,  J. Phys. Chem. Lett. 11, 8208-8215 (2020), doi: 10.1021/acs.jpclett.0c02405
    [ 1] J. W. Furness, A. D. Kaplan, J. Ning, J. P. Perdew, and J. Sun.,  J. Phys. Chem. Lett. 11, 9248-9248 (2020), doi: 10.1021/acs.jpclett.0c03077
  Functional external parameters        .... 1
    Parameter  0 _eta       =  1.000000e-03 : Regularization parameter
 Gradients option       PostSCFGGA      .... off
 Hybrid DFT is turned on
   Fraction HF Exchange ScalHFX         ....  0.100000
   Scaling of DF-GGA-X  ScalDFX         ....  0.900000
   Scaling of DF-GGA-C  ScalDFC         ....  1.000000
   Scaling of DF-LDA-C  ScalLDAC        ....  1.000000
   Perturbative correction              ....  0.000000
   NL short-range parameter             .... 11.900000
 RI-approximation to the Coulomb term is turned on
   Number of AuxJ basis functions       .... 1296
   RIJ-COSX (HFX calculated with COS-X)).... on


General Settings:
 Integral files         IntName         .... rf_mecn_1H2O_opt_r2s_sw_004
 Hartree-Fock type      HFTyp           .... UHF
 Total Charge           Charge          ....   -2
 Multiplicity           Mult            ....    2
 Number of Electrons    NEL             ....  211
 Basis Dimension        Dim             ....  818
 Nuclear Repulsion      ENuc            ....   3082.7089060438 Eh

Convergence Acceleration:
 AO-DIIS                CNVDIIS         .... on
   Start iteration      DIISMaxIt       ....     0
   Startup error        DIISStart       ....  0.200000
   # of expansion vecs  DIISMaxEq       ....     5
   Bias factor          DIISBfac        ....   1.050
   Max. coefficient     DIISMaxC        ....  10.000
 MO-DIIS                CNVKDIIS        .... off
 Trust-Rad. Augm. Hess. CNVTRAH         .... auto
   Auto Start mean grad. ratio tolernc. ....  1.125000
   Auto Start start iteration           ....    50
   Auto Start num. interpolation iter.  ....    10
   Max. Number of Micro iterations      ....    24
   Max. Number of Macro iterations      .... Maxiter - #DIIS iter
   Number of Davidson start vectors     ....     2
   Converg. threshold    (grad. norm)   ....   1.000e-05
   Grad. Scal. Fac. for Micro threshold ....   0.100
   Minimum threshold for Micro iter.    ....   1.000e-02
   NR start threshold (gradient norm)   ....   1.000e-04
   Initial trust radius                 ....   0.400
   Minimum AH scaling param. (alpha)    ....   1.000
   Maximum AH scaling param. (alpha)    .... 1000.000
   Quad. conv. algorithm                .... NR
   White noise on init. David. guess    .... on
   Maximum white noise                  ....   0.010
   Pseudo random numbers                .... off
   Inactive MOs                         .... canonical
   Orbital update algorithm             .... Taylor
   Preconditioner                       .... Diag
   Full preconditioner red. dimension   ....   250
 SOSCF                  CNVSOSCF        .... on
   Start iteration      SOSCFMaxIt      ....   150
   Startup grad/error   SOSCFStart      ....  0.001000
   Hessian update       SOSCFHessUp     .... L-BFGS
 Level Shifting         CNVShift        .... on
   Level shift para.    LevelShift      ....    0.2500
   Turn off err/grad.   ShiftErr        ....    0.0000
 Zerner damping         CNVZerner       .... off
 Static damping         CNVDamp         .... on
   Fraction old density DampFac         ....    0.8500
   Max. Damping (<1)    DampMax         ....    0.9800
   Min. Damping (>=0)   DampMin         ....    0.0000
   Turn off err/grad.   DampErr         ....    0.0300

SCF Procedure:
 Maximum # iterations   MaxIter         ....  1500
 SCF integral mode      SCFMode         .... Direct
   Integral package                     .... SHARK and LIBINT hybrid scheme
 Reset frequency        DirectResetFreq ....    20
 Integral Threshold     Thresh          ....  2.500e-11 Eh
 Primitive CutOff       TCut            ....  2.500e-12 Eh

Convergence Tolerance:
 Convergence Check Mode ConvCheckMode   .... Total+1el-Energy
 Convergence forced     ConvForced      .... 0
 Energy Change          TolE            ....  1.000e-08 Eh
 1-El. energy change                    ....  1.000e-05 Eh
 Orbital Gradient       TolG            ....  1.000e-05
 Orbital Rotation angle TolX            ....  1.000e-05
 DIIS Error             TolErr          ....  5.000e-07

------------------------------
INITIAL GUESS: MODEL POTENTIAL
------------------------------
Loading Hartree-Fock densities                     ... done
Calculating cut-offs                               ... done
Initializing the effective Hamiltonian             ... done
Setting up the integral package (SHARK)            ... done
Starting the Coulomb interaction                   ... done (   0.2 sec)
Making the grid                                    ... done (   0.5 sec)
Mapping shells                                     ... done
Starting the XC term evaluation                    ... done (   0.1 sec)
  promolecular density results
     # of electrons  =    208.999431122
     EX              =   -216.044774468
     EC              =     -7.338096311
     EX+EC           =   -223.382870779
Transforming the Hamiltonian                       ... done (   0.1 sec)
Diagonalizing the Hamiltonian                      ... done (   0.1 sec)
Back transforming the eigenvectors                 ... done (   0.0 sec)
Now organizing SCF variables                       ... done
                      ------------------
                      INITIAL GUESS DONE (   1.2 sec)
                      ------------------
             **** ENERGY FILE WAS UPDATED (rf_mecn_1H2O_opt_r2s_sw_004.en.tmp) ****
Finished Guess after   1.8 sec
Maximum memory used throughout the entire GUESS-calculation: 52.9 MB


           ************************************************************
           *        Program running with 20 parallel MPI-processes    *
           *              working on a common directory               *
           ************************************************************

-------------------------------------------------------------------------------------------
                                      ORCA LEAN-SCF
                              memory conserving SCF solver
-------------------------------------------------------------------------------------------

--------------------
CPCM SOLVATION MODEL
--------------------
CPCM parameters:
  Epsilon                                         ...      35.6880
  Refrac                                          ...       1.3442
  Rsolv                                           ...       1.3000
  Surface type                                    ... GAUSSIAN VDW
  Discretization scheme                           ... Constant charge density
    Threshold for H atoms                         ...       5.0000 (charges/Ang^2)
    Threshold for non-H atoms                     ...       5.0000 (charges/Ang^2)
  Epsilon function type                           ...         CPCM
Solvent:                                          ... ACETONITRILE
SMD-CDS solvent descriptors:
  Soln                                            ...       1.3442
  Soln25                                          ...       1.3416
  Sola                                            ...       0.0700
  Solb                                            ...       0.3200
  Solg                                            ...      41.2500
  Solc                                            ...       0.0000
  Solh                                            ...       0.0000
Radii:
  Scheme                                          ... Element-dependent radii
  Radius for C  used is    3.4960 Bohr (=   1.8500 Ang.)
  Radius for F  used is    3.2692 Bohr (=   1.7300 Ang.)
  Radius for O  used is    4.0969 Bohr (=   2.1680 Ang.)
  Radius for H  used is    2.2677 Bohr (=   1.2000 Ang.)
Calculating surface                               ...        done! (  0.0s)
Cavity surface points                             ...         2380
Cavity Volume                                     ...    2380.5219
Cavity Surface-area                               ...    1244.8621
Calculating surface distance matrix               ...        done! (  0.1s)
Performing Cholesky decomposition & store         ...        done! (  0.1s)
Overall time for CPCM initialization              ...                 0.2s

----------------------------------------D-I-I-S--------------------------------------------
Iteration    Energy (Eh)           Delta-E    RMSDP     MaxDP     DIISErr   Damp  Time(sec)
-------------------------------------------------------------------------------------------
               ***  Starting incremental Fock matrix formation  ***
    1    -2028.7582271987212152     0.00e+00  7.20e-04  1.65e-01  1.99e-01  0.850   7.8
Warning: op=0 Small HOMO/LUMO gap (  -0.030) - skipping pre-diagonalization
         Will do a full diagonalization
    2    -2028.9729399107809513    -2.15e-01  1.02e-03  2.95e-01  1.35e-01  0.850   5.6
                               ***Turning on AO-DIIS***
    3    -2029.0924545726866199    -1.20e-01  5.40e-04  8.77e-02  7.62e-02  0.850   4.9
    4    -2029.1626706042416117    -7.02e-02  3.48e-04  4.91e-02  5.52e-02  0.850   4.9
    5    -2029.2117708636042153    -4.91e-02  2.57e-04  2.79e-02  4.44e-02  0.850   4.9
    6    -2029.2497875426070095    -3.80e-02  2.03e-04  3.24e-02  3.71e-02  0.850   4.7
    7    -2029.2806483338081307    -3.09e-02  1.67e-04  3.28e-02  3.10e-02  0.850   4.6
    8    -2029.3062625552520331    -2.56e-02  1.40e-04  2.97e-02  2.57e-02  0.850   4.7
    9    -2029.3277260975028184    -2.15e-02  7.97e-04  1.72e-01  2.14e-02  0.000   4.6
   10    -2029.4444239094145814    -1.17e-01  4.23e-05  8.46e-03  2.92e-03  0.000   4.9
   11    -2029.4446397095698558    -2.16e-04  3.25e-05  5.16e-03  1.73e-03  0.000   4.2
   12    -2029.4447077827808243    -6.81e-05  2.13e-05  1.71e-03  1.41e-03  0.000   4.1
                              *** Initializing SOSCF ***
---------------------------------------S-O-S-C-F--------------------------------------
Iteration    Energy (Eh)           Delta-E    RMSDP     MaxDP     MaxGrad    Time(sec)
--------------------------------------------------------------------------------------
   13    -2029.4447540119481346    -4.62e-05  1.87e-05  1.51e-03  6.57e-04     4.7
               *** Restarting incremental Fock matrix formation ***
   14    -2029.4447501604863646     3.85e-06  3.41e-05  2.39e-03  8.72e-04     7.6
   15    -2029.4447775286989781    -2.74e-05  9.76e-05  7.04e-03  4.93e-04     5.7
   16    -2029.4448025600686378    -2.50e-05  1.77e-05  3.04e-03  4.82e-04     6.2
   17    -2029.4448087749688057    -6.21e-06  1.56e-05  1.96e-03  3.81e-04     5.4
   18    -2029.4448112321315421    -2.46e-06  6.78e-06  6.44e-04  1.22e-04     5.5
   19    -2029.4448125613371303    -1.33e-06  8.34e-06  7.15e-04  9.89e-05     5.3
   20    -2029.4448130025994033    -4.41e-07  4.17e-06  6.75e-04  4.30e-05     5.3
   21    -2029.4448132494671881    -2.47e-07  3.48e-06  6.04e-04  3.88e-05     5.0
   22    -2029.4448133211835739    -7.17e-08  2.57e-06  3.38e-04  3.35e-05     4.8
   23    -2029.4448133681544277    -4.70e-08  4.39e-06  3.51e-04  2.84e-05     4.8
   24    -2029.4448134165395459    -4.84e-08  1.95e-06  1.11e-04  1.39e-05     5.1
   25    -2029.4448134335243594    -1.70e-08  4.95e-07  1.03e-04  1.12e-05     4.8
   26    -2029.4448134407120961    -7.19e-09  2.91e-07  5.24e-05  4.98e-06     3.8
                 **** Energy Check signals convergence ****

               *****************************************************
               *                     SUCCESS                       *
               *           SCF CONVERGED AFTER  26 CYCLES          *
               *****************************************************

Recomputing exchange energy using gridx3       ... done (    9.125 sec)
Old exchange energy                            :    -21.856296863 Eh
New exchange energy                            :    -21.856284041 Eh
Exchange energy change after final integration :      0.000012822 Eh
Total energy after final integration           :  -2029.444800619 Eh

SMD CDS free energy correction energy :                 3.05739     Kcal/mol
Total Energy after SMD CDS correction =             -2029.439928354 Eh
             **** ENERGY FILE WAS UPDATED (rf_mecn_1H2O_opt_r2s_sw_004.en.tmp) ****

----------------
TOTAL SCF ENERGY
----------------

Total Energy       :      -2029.43992835434187 Eh          -55223.86798 eV

Components:
Nuclear Repulsion  :       3082.70890604376473 Eh           83884.77395 eV
Electronic Energy  :      -5111.91687063244899 Eh         -139102.32988 eV
One Electron Energy:      -9017.49583737345529 Eh         -245378.53654 eV
Two Electron Energy:       3905.57896674100630 Eh          106276.20666 eV
CPCM Dielectric    :         -0.23684885202771 Eh              -6.44498 eV
SMD CDS (Gcds)     :          0.00487226469455 Eh               0.13258 eV

Virial components:
Potential Energy   :      -4053.09420400984982 Eh         -110290.30034 eV
Kinetic Energy     :       2023.65427565550817 Eh           55066.43236 eV
Virial Ratio       :          2.00285901241553

DFT components:
N(Alpha)           :      105.999976375587 electrons
N(Beta)            :      104.999975654909 electrons
N(Total)           :      210.999952030496 electrons
E(X)               :     -197.775737270140 Eh       
E(C)               :       -7.353535156682 Eh       
E(XC)              :     -205.129272426822 Eh       

CPCM Solvation Model Properties:
Surface-charge          :          1.98911781135353
Corrected charge        :          2.00000000000000
Outlying charge corr.   :          0.00000612546815 Eh               0.00017 eV
Free-energy (cav+disp)  :          0.00487226469455 Eh               0.13258 eV

---------------
SCF CONVERGENCE
---------------

  Last Energy change         ...    7.1877e-09  Tolerance :   1.0000e-08
  Last MAX-Density change    ...    5.2399e-05  Tolerance :   1.0000e-07
  Last RMS-Density change    ...    2.9064e-07  Tolerance :   5.0000e-09
  Last DIIS Error            ...    6.5688e-04  Tolerance :   5.0000e-07
  Last Orbital Gradient      ...    4.9756e-06  Tolerance :   1.0000e-05
  Last Orbital Rotation      ...    4.3164e-05  Tolerance :   1.0000e-05


----------------------
UHF SPIN CONTAMINATION
----------------------

Warning: in a DFT calculation there is little theoretical justification to 
         calculate <S**2> as in Hartree-Fock theory. We will do it anyways
         but you should keep in mind that the values have only limited relevance

Expectation value of <S**2>     :     0.752737
Ideal value S*(S+1) for S=0.5   :     0.750000
Deviation                       :     0.002737

----------------
ORBITAL ENERGIES
----------------
                 SPIN UP ORBITALS
  NO   OCC          E(Eh)            E(eV) 
   0   1.0000     -24.706603      -672.3009 
   1   1.0000     -24.706517      -672.2985 
   2   1.0000     -24.700664      -672.1392 
   3   1.0000     -24.693142      -671.9346 
   4   1.0000     -24.688301      -671.8028 
   5   1.0000     -24.685692      -671.7318 
   6   1.0000     -24.681086      -671.6065 
   7   1.0000     -24.681062      -671.6058 
   8   1.0000     -24.680285      -671.5847 
   9   1.0000     -24.679596      -671.5660 
  10   1.0000     -24.679354      -671.5594 
  11   1.0000     -24.679093      -671.5523 
  12   1.0000     -24.676816      -671.4903 
  13   1.0000     -24.664397      -671.1524 
  14   1.0000     -24.663136      -671.1180 
  15   1.0000     -19.078540      -519.1535 
  16   1.0000     -19.036544      -518.0107 
  17   1.0000     -19.032728      -517.9068 
  18   1.0000     -10.398164      -282.9484 
  19   1.0000     -10.324679      -280.9488 
  20   1.0000     -10.314635      -280.6755 
  21   1.0000     -10.310295      -280.5574 
  22   1.0000     -10.310120      -280.5526 
  23   1.0000     -10.309042      -280.5233 
  24   1.0000     -10.286567      -279.9117 
  25   1.0000     -10.212885      -277.9067 
  26   1.0000      -1.335977       -36.3538 
  27   1.0000      -1.295570       -35.2543 
  28   1.0000      -1.284369       -34.9495 
  29   1.0000      -1.274333       -34.6764 
  30   1.0000      -1.267514       -34.4908 
  31   1.0000      -1.263502       -34.3816 
  32   1.0000      -1.247174       -33.9373 
  33   1.0000      -1.246454       -33.9177 
  34   1.0000      -1.240398       -33.7529 
  35   1.0000      -1.228141       -33.4194 
  36   1.0000      -1.221728       -33.2449 
  37   1.0000      -1.215888       -33.0860 
  38   1.0000      -1.210854       -32.9490 
  39   1.0000      -1.207180       -32.8490 
  40   1.0000      -1.189906       -32.3790 
  41   1.0000      -1.016326       -27.6556 
  42   1.0000      -0.980350       -26.6767 
  43   1.0000      -0.934907       -25.4401 
  44   1.0000      -0.795262       -21.6402 
  45   1.0000      -0.777826       -21.1657 
  46   1.0000      -0.749979       -20.4080 
  47   1.0000      -0.712951       -19.4004 
  48   1.0000      -0.674335       -18.3496 
  49   1.0000      -0.646181       -17.5835 
  50   1.0000      -0.627591       -17.0776 
  51   1.0000      -0.604908       -16.4604 
  52   1.0000      -0.602982       -16.4080 
  53   1.0000      -0.600108       -16.3298 
  54   1.0000      -0.584571       -15.9070 
  55   1.0000      -0.579321       -15.7641 
  56   1.0000      -0.575504       -15.6602 
  57   1.0000      -0.566475       -15.4146 
  58   1.0000      -0.562074       -15.2948 
  59   1.0000      -0.555469       -15.1151 
  60   1.0000      -0.551120       -14.9967 
  61   1.0000      -0.540042       -14.6953 
  62   1.0000      -0.536635       -14.6026 
  63   1.0000      -0.527368       -14.3504 
  64   1.0000      -0.524020       -14.2593 
  65   1.0000      -0.516449       -14.0533 
  66   1.0000      -0.489362       -13.3162 
  67   1.0000      -0.472072       -12.8457 
  68   1.0000      -0.469361       -12.7720 
  69   1.0000      -0.464825       -12.6485 
  70   1.0000      -0.457925       -12.4608 
  71   1.0000      -0.454277       -12.3615 
  72   1.0000      -0.447943       -12.1892 
  73   1.0000      -0.445066       -12.1109 
  74   1.0000      -0.440088       -11.9754 
  75   1.0000      -0.439453       -11.9581 
  76   1.0000      -0.432993       -11.7824 
  77   1.0000      -0.432381       -11.7657 
  78   1.0000      -0.426879       -11.6160 
  79   1.0000      -0.423118       -11.5136 
  80   1.0000      -0.421581       -11.4718 
  81   1.0000      -0.420042       -11.4299 
  82   1.0000      -0.413234       -11.2447 
  83   1.0000      -0.407559       -11.0902 
  84   1.0000      -0.406416       -11.0591 
  85   1.0000      -0.400506       -10.8983 
  86   1.0000      -0.398567       -10.8456 
  87   1.0000      -0.396299       -10.7838 
  88   1.0000      -0.392735       -10.6869 
  89   1.0000      -0.391181       -10.6446 
  90   1.0000      -0.387281       -10.5385 
  91   1.0000      -0.387075       -10.5328 
  92   1.0000      -0.384532       -10.4636 
  93   1.0000      -0.377540       -10.2734 
  94   1.0000      -0.374585       -10.1930 
  95   1.0000      -0.366633        -9.9766 
  96   1.0000      -0.362681        -9.8690 
  97   1.0000      -0.349472        -9.5096 
  98   1.0000      -0.345971        -9.4144 
  99   1.0000      -0.318026        -8.6539 
 100   1.0000      -0.277469        -7.5503 
 101   1.0000      -0.274302        -7.4641 
 102   1.0000      -0.234250        -6.3743 
 103   1.0000      -0.217775        -5.9260 
 104   1.0000      -0.204123        -5.5545 
 105   1.0000       0.004642         0.1263 
 106   0.0000       0.034878         0.9491 
 107   0.0000       0.055910         1.5214 
 108   0.0000       0.079675         2.1681 
 109   0.0000       0.086771         2.3612 
 110   0.0000       0.089810         2.4439 
 111   0.0000       0.125895         3.4258 
 112   0.0000       0.132634         3.6091 
 113   0.0000       0.136431         3.7125 
 114   0.0000       0.143930         3.9165 
 115   0.0000       0.160900         4.3783 
 116   0.0000       0.179662         4.8888 

                 SPIN DOWN ORBITALS
  NO   OCC          E(Eh)            E(eV) 
   0   1.0000     -24.706441      -672.2964 
   1   1.0000     -24.706151      -672.2885 
   2   1.0000     -24.699643      -672.1114 
   3   1.0000     -24.692811      -671.9256 
   4   1.0000     -24.686819      -671.7625 
   5   1.0000     -24.685158      -671.7173 
   6   1.0000     -24.680353      -671.5865 
   7   1.0000     -24.679641      -671.5672 
   8   1.0000     -24.679623      -671.5667 
   9   1.0000     -24.679003      -671.5498 
  10   1.0000     -24.678543      -671.5373 
  11   1.0000     -24.678299      -671.5307 
  12   1.0000     -24.676259      -671.4752 
  13   1.0000     -24.663918      -671.1393 
  14   1.0000     -24.662826      -671.1096 
  15   1.0000     -19.078543      -519.1535 
  16   1.0000     -19.035729      -517.9885 
  17   1.0000     -19.031673      -517.8781 
  18   1.0000     -10.397054      -282.9182 
  19   1.0000     -10.322986      -280.9027 
  20   1.0000     -10.312572      -280.6194 
  21   1.0000     -10.308460      -280.5075 
  22   1.0000     -10.308059      -280.4965 
  23   1.0000     -10.307784      -280.4891 
  24   1.0000     -10.285857      -279.8924 
  25   1.0000     -10.211676      -277.8738 
  26   1.0000      -1.334641       -36.3174 
  27   1.0000      -1.292875       -35.1809 
  28   1.0000      -1.282267       -34.8923 
  29   1.0000      -1.272185       -34.6179 
  30   1.0000      -1.265175       -34.4272 
  31   1.0000      -1.261750       -34.3340 
  32   1.0000      -1.246097       -33.9080 
  33   1.0000      -1.245834       -33.9009 
  34   1.0000      -1.238680       -33.7062 
  35   1.0000      -1.226332       -33.3702 
  36   1.0000      -1.220185       -33.2029 
  37   1.0000      -1.214313       -33.0431 
  38   1.0000      -1.209328       -32.9075 
  39   1.0000      -1.205976       -32.8163 
  40   1.0000      -1.189140       -32.3581 
  41   1.0000      -1.014355       -27.6020 
  42   1.0000      -0.980341       -26.6764 
  43   1.0000      -0.933469       -25.4010 
  44   1.0000      -0.785856       -21.3842 
  45   1.0000      -0.770010       -20.9530 
  46   1.0000      -0.742985       -20.2177 
  47   1.0000      -0.707348       -19.2479 
  48   1.0000      -0.671008       -18.2591 
  49   1.0000      -0.643026       -17.4976 
  50   1.0000      -0.624575       -16.9955 
  51   1.0000      -0.601386       -16.3645 
  52   1.0000      -0.599292       -16.3076 
  53   1.0000      -0.598916       -16.2973 
  54   1.0000      -0.579735       -15.7754 
  55   1.0000      -0.575901       -15.6711 
  56   1.0000      -0.572386       -15.5754 
  57   1.0000      -0.564390       -15.3578 
  58   1.0000      -0.558858       -15.2073 
  59   1.0000      -0.551345       -15.0028 
  60   1.0000      -0.549262       -14.9462 
  61   1.0000      -0.536617       -14.6021 
  62   1.0000      -0.534834       -14.5536 
  63   1.0000      -0.526135       -14.3169 
  64   1.0000      -0.521504       -14.1908 
  65   1.0000      -0.515751       -14.0343 
  66   1.0000      -0.489218       -13.3123 
  67   1.0000      -0.470509       -12.8032 
  68   1.0000      -0.468413       -12.7462 
  69   1.0000      -0.464019       -12.6266 
  70   1.0000      -0.456775       -12.4295 
  71   1.0000      -0.453078       -12.3289 
  72   1.0000      -0.446664       -12.1544 
  73   1.0000      -0.443901       -12.0792 
  74   1.0000      -0.439340       -11.9550 
  75   1.0000      -0.438398       -11.9294 
  76   1.0000      -0.432052       -11.7567 
  77   1.0000      -0.431304       -11.7364 
  78   1.0000      -0.425616       -11.5816 
  79   1.0000      -0.422146       -11.4872 
  80   1.0000      -0.420757       -11.4494 
  81   1.0000      -0.418672       -11.3926 
  82   1.0000      -0.411871       -11.2076 
  83   1.0000      -0.406326       -11.0567 
  84   1.0000      -0.405319       -11.0293 
  85   1.0000      -0.399215       -10.8632 
  86   1.0000      -0.397286       -10.8107 
  87   1.0000      -0.394576       -10.7370 
  88   1.0000      -0.390935       -10.6379 
  89   1.0000      -0.389288       -10.5931 
  90   1.0000      -0.385497       -10.4899 
  91   1.0000      -0.384377       -10.4594 
  92   1.0000      -0.381524       -10.3818 
  93   1.0000      -0.376226       -10.2376 
  94   1.0000      -0.369825       -10.0635 
  95   1.0000      -0.361995        -9.8504 
  96   1.0000      -0.357750        -9.7349 
  97   1.0000      -0.345904        -9.4125 
  98   1.0000      -0.344970        -9.3871 
  99   1.0000      -0.314110        -8.5474 
 100   1.0000      -0.274845        -7.4789 
 101   1.0000      -0.274127        -7.4594 
 102   1.0000      -0.230039        -6.2597 
 103   1.0000      -0.216843        -5.9006 
 104   1.0000      -0.202060        -5.4983 
 105   0.0000       0.042081         1.1451 
 106   0.0000       0.050074         1.3626 
 107   0.0000       0.062100         1.6898 
 108   0.0000       0.081214         2.2099 
 109   0.0000       0.093707         2.5499 
 110   0.0000       0.100446         2.7333 
 111   0.0000       0.128988         3.5100 
 112   0.0000       0.136066         3.7025 
 113   0.0000       0.141662         3.8548 
 114   0.0000       0.152167         4.1407 
 115   0.0000       0.164967         4.4890 
*Only the first 10 virtual orbitals were printed.

                    ********************************
                    * MULLIKEN POPULATION ANALYSIS *
                    ********************************

--------------------------------------------
MULLIKEN ATOMIC CHARGES AND SPIN POPULATIONS
--------------------------------------------
   0 C :    0.431456    0.071964
   1 C :    0.258327    0.135558
   2 C :    0.212615    0.178869
   3 C :    0.233493    0.184116
   4 C :    0.250731    0.156255
   5 C :    0.298905    0.097135
   6 C :    0.276577    0.063627
   7 C :    0.193396    0.057809
   8 F :   -0.175896   -0.000193
   9 F :   -0.177072   -0.000490
  10 F :   -0.180801    0.006456
  11 F :   -0.188870    0.002560
  12 F :   -0.197728    0.000216
  13 F :   -0.198432    0.002906
  14 F :   -0.208230    0.000322
  15 F :   -0.201185   -0.000121
  16 F :   -0.206889   -0.000393
  17 F :   -0.203930   -0.001551
  18 F :   -0.205491   -0.000351
  19 F :   -0.216179    0.000819
  20 F :   -0.206018    0.000183
  21 F :   -0.233477    0.000620
  22 F :   -0.224649   -0.000870
  23 O :   -0.526050    0.024649
  24 O :   -0.571352    0.019576
  25 O :   -0.745801   -0.000175
  26 H :    0.342349    0.000055
  27 H :    0.370204    0.000451
Sum of atomic charges         :   -2.0000000
Sum of atomic spin populations:    1.0000000

-----------------------------------------------------
MULLIKEN REDUCED ORBITAL CHARGES AND SPIN POPULATIONS
-----------------------------------------------------
CHARGE
  0 C s       :     3.022803  s :     3.022803
      pz      :     0.662966  p :     2.157756
      px      :     0.714042
      py      :     0.780748
      dz2     :     0.062273  d :     0.347414
      dxz     :     0.075232
      dyz     :     0.072943
      dx2y2   :     0.071724
      dxy     :     0.065241
      f0      :     0.006193  f :     0.040572
      f+1     :     0.008768
      f-1     :     0.004939
      f+2     :     0.003207
      f-2     :     0.005842
      f+3     :     0.004498
      f-3     :     0.007124

  1 C s       :     3.076651  s :     3.076651
      pz      :     0.618969  p :     2.348916
      px      :     0.828997
      py      :     0.900950
      dz2     :     0.065331  d :     0.288308
      dxz     :     0.058340
      dyz     :     0.056522
      dx2y2   :     0.057095
      dxy     :     0.051019
      f0      :     0.004871  f :     0.027798
      f+1     :     0.005959
      f-1     :     0.002751
      f+2     :     0.004547
      f-2     :     0.004197
      f+3     :     0.002777
      f-3     :     0.002696

  2 C s       :     3.112289  s :     3.112289
      pz      :     0.574494  p :     2.347679
      px      :     0.845576
      py      :     0.927610
      dz2     :     0.073337  d :     0.299951
      dxz     :     0.050627
      dyz     :     0.065630
      dx2y2   :     0.058380
      dxy     :     0.051978
      f0      :     0.006019  f :     0.027466
      f+1     :     0.004386
      f-1     :     0.003153
      f+2     :     0.004710
      f-2     :     0.004996
      f+3     :     0.002177
      f-3     :     0.002024

  3 C s       :     3.095886  s :     3.095886
      pz      :     0.618956  p :     2.345047
      px      :     0.840517
      py      :     0.885574
      dz2     :     0.070466  d :     0.298179
      dxz     :     0.055685
      dyz     :     0.060392
      dx2y2   :     0.061768
      dxy     :     0.049867
      f0      :     0.005072  f :     0.027396
      f+1     :     0.005715
      f-1     :     0.002654
      f+2     :     0.004468
      f-2     :     0.004286
      f+3     :     0.002589
      f-3     :     0.002612

  4 C s       :     3.100653  s :     3.100653
      pz      :     0.620784  p :     2.329701
      px      :     0.793921
      py      :     0.914996
      dz2     :     0.059719  d :     0.291573
      dxz     :     0.061381
      dyz     :     0.061045
      dx2y2   :     0.058807
      dxy     :     0.050621
      f0      :     0.004088  f :     0.027343
      f+1     :     0.007495
      f-1     :     0.003583
      f+2     :     0.003051
      f-2     :     0.003233
      f+3     :     0.002256
      f-3     :     0.003636

  5 C s       :     3.097382  s :     3.097382
      pz      :     0.688709  p :     2.293296
      px      :     0.698431
      py      :     0.906155
      dz2     :     0.053871  d :     0.282922
      dxz     :     0.067820
      dyz     :     0.049265
      dx2y2   :     0.056532
      dxy     :     0.055434
      f0      :     0.005440  f :     0.027496
      f+1     :     0.005246
      f-1     :     0.003628
      f+2     :     0.003948
      f-2     :     0.001908
      f+3     :     0.002616
      f-3     :     0.004711

  6 C s       :     3.121659  s :     3.121659
      pz      :     0.720708  p :     2.323372
      px      :     0.623364
      py      :     0.979300
      dz2     :     0.043049  d :     0.252550
      dxz     :     0.056988
      dyz     :     0.048163
      dx2y2   :     0.052710
      dxy     :     0.051640
      f0      :     0.005446  f :     0.025843
      f+1     :     0.003355
      f-1     :     0.003364
      f+2     :     0.004061
      f-2     :     0.002255
      f+3     :     0.002975
      f-3     :     0.004387

  7 C s       :     3.037318  s :     3.037318
      pz      :     0.853576  p :     2.511755
      px      :     0.747335
      py      :     0.910844
      dz2     :     0.011730  d :     0.232217
      dxz     :     0.066700
      dyz     :     0.018111
      dx2y2   :     0.067842
      dxy     :     0.067834
      f0      :     0.002650  f :     0.025314
      f+1     :     0.002306
      f-1     :     0.001198
      f+2     :     0.002411
      f-2     :     0.002828
      f+3     :     0.006701
      f-3     :     0.007220

  8 F s       :     3.917499  s :     3.917499
      pz      :     1.805820  p :     5.240567
      px      :     1.561305
      py      :     1.873442
      dz2     :     0.002339  d :     0.017062
      dxz     :     0.005550
      dyz     :     0.001059
      dx2y2   :     0.004531
      dxy     :     0.003582
      f0      :     0.000085  f :     0.000769
      f+1     :     0.000136
      f-1     :     0.000014
      f+2     :     0.000181
      f-2     :     0.000095
      f+3     :     0.000129
      f-3     :     0.000128

  9 F s       :     3.918378  s :     3.918378
      pz      :     1.481673  p :     5.240585
      px      :     1.878987
      py      :     1.879925
      dz2     :     0.008202  d :     0.017326
      dxz     :     0.003940
      dyz     :     0.004304
      dx2y2   :     0.000389
      dxy     :     0.000491
      f0      :     0.000316  f :     0.000783
      f+1     :     0.000185
      f-1     :     0.000205
      f+2     :     0.000030
      f-2     :     0.000042
      f+3     :     0.000003
      f-3     :     0.000002

 10 F s       :     3.914316  s :     3.914316
      pz      :     1.893124  p :     5.248713
      px      :     1.741415
      py      :     1.614174
      dz2     :     0.002453  d :     0.017011
      dxz     :     0.001410
      dyz     :     0.002304
      dx2y2   :     0.004251
      dxy     :     0.006594
      f0      :     0.000064  f :     0.000762
      f+1     :     0.000064
      f-1     :     0.000101
      f+2     :     0.000015
      f-2     :     0.000102
      f+3     :     0.000232
      f-3     :     0.000184

 11 F s       :     3.907340  s :     3.907340
[...]
      px      :     0.002605
      py      :    -0.000373
      dz2     :     0.000025  d :     0.000476
      dxz     :     0.000344
      dyz     :     0.000092
      dx2y2   :     0.000008
      dxy     :     0.000008
      f0      :    -0.000000  f :     0.000020
      f+1     :     0.000013
      f-1     :     0.000008
      f+2     :    -0.000001
      f-2     :     0.000000
      f+3     :    -0.000000
      f-3     :     0.000000

 20 F s       :     0.001073  s :     0.001073
      pz      :     0.001153  p :     0.001691
      px      :     0.000655
      py      :    -0.000117
      dz2     :     0.000107  d :     0.000321
      dxz     :     0.000142
      dyz     :     0.000016
      dx2y2   :     0.000014
      dxy     :     0.000041
      f0      :     0.000002  f :     0.000015
      f+1     :     0.000001
      f-1     :     0.000000
      f+2     :     0.000003
      f-2     :     0.000000
      f+3     :     0.000001
      f-3     :     0.000005

 21 F s       :     0.000257  s :     0.000257
      pz      :    -0.000527  p :     0.001089
      px      :     0.001332
      py      :     0.000284
      dz2     :     0.000083  d :     0.000284
      dxz     :     0.000107
      dyz     :     0.000022
      dx2y2   :     0.000015
      dxy     :     0.000058
      f0      :     0.000007  f :     0.000013
      f+1     :     0.000001
      f-1     :     0.000001
      f+2     :    -0.000000
      f-2     :     0.000004
      f+3     :     0.000000
      f-3     :     0.000000

 22 F s       :     0.000652  s :     0.000652
      pz      :    -0.000027  p :     0.001025
      px      :     0.001054
      py      :    -0.000002
      dz2     :     0.000081  d :     0.000161
      dxz     :     0.000012
      dyz     :     0.000027
      dx2y2   :    -0.000001
      dxy     :     0.000042
      f0      :    -0.000000  f :     0.000009
      f+1     :     0.000004
      f-1     :     0.000001
      f+2     :     0.000001
      f-2     :    -0.000000
      f+3     :     0.000001
      f-3     :     0.000004

 23 O s       :     0.000249  s :     0.000249
      pz      :     0.007716  p :     0.007822
      px      :     0.001123
      py      :    -0.001017
      dz2     :     0.000246  d :     0.000504
      dxz     :     0.000068
      dyz     :     0.000183
      dx2y2   :     0.000019
      dxy     :    -0.000012
      f0      :    -0.000001  f :     0.000041
      f+1     :     0.000019
      f-1     :     0.000015
      f+2     :    -0.000000
      f-2     :     0.000006
      f+3     :    -0.000001
      f-3     :     0.000004

 24 O s       :     0.000147  s :     0.000147
      pz      :     0.005318  p :     0.006259
      px      :     0.001180
      py      :    -0.000238
      dz2     :     0.000016  d :     0.000449
      dxz     :     0.000345
      dyz     :     0.000051
      dx2y2   :     0.000069
      dxy     :    -0.000032
      f0      :     0.000013  f :     0.000033
      f+1     :     0.000001
      f-1     :    -0.000000
      f+2     :     0.000012
      f-2     :     0.000009
      f+3     :    -0.000003
      f-3     :     0.000001

 25 O s       :     0.000002  s :     0.000002
      pz      :    -0.000007  p :    -0.000018
      px      :    -0.000008
      py      :    -0.000003
      dz2     :     0.000000  d :     0.000001
      dxz     :    -0.000000
      dyz     :     0.000001
      dx2y2   :    -0.000000
      dxy     :    -0.000000
      f0      :    -0.000000  f :    -0.000000
      f+1     :    -0.000000
      f-1     :     0.000000
      f+2     :    -0.000000
      f-2     :    -0.000000
      f+3     :    -0.000000
      f-3     :    -0.000000

 26 H s       :     0.000007  s :     0.000007
      pz      :    -0.000001  p :     0.000000
      px      :    -0.000000
      py      :     0.000001

 27 H s       :    -0.000023  s :    -0.000023
      pz      :    -0.000004  p :    -0.000014
      px      :    -0.000008
      py      :    -0.000002



                      *****************************
                      * MAYER POPULATION ANALYSIS *
                      *****************************

  NA   - Mulliken gross atomic population
  ZA   - Total nuclear charge
  QA   - Mulliken gross atomic charge
  VA   - Mayer's total valence
  BVA  - Mayer's bonded valence
  FA   - Mayer's free valence

  ATOM       NA         ZA         QA         VA         BVA        FA
  0 C      5.5576     6.0000     0.4424     4.4772     4.4700     0.0073
  1 C      5.7110     6.0000     0.2890     4.1549     4.1254     0.0295
  2 C      5.7818     6.0000     0.2182     4.0813     3.9978     0.0835
  3 C      5.7601     6.0000     0.2399     4.0664     3.9763     0.0901
  4 C      5.7248     6.0000     0.2752     4.0893     4.0515     0.0377
  5 C      5.7406     6.0000     0.2594     4.0778     4.0689     0.0089
  6 C      5.6574     6.0000     0.3426     3.9079     3.9065     0.0014
  7 C      5.7424     6.0000     0.2576     4.5003     4.4999     0.0004
  8 F      9.1796     9.0000    -0.1796     1.1210     1.1210     0.0000
  9 F      9.1798     9.0000    -0.1798     1.1208     1.1208     0.0000
 10 F      9.1902     9.0000    -0.1902     1.0920     1.0917     0.0003
 11 F      9.2098     9.0000    -0.2098     1.0694     1.0693     0.0001
 12 F      9.2092     9.0000    -0.2092     1.0707     1.0706     0.0001
 13 F      9.2324     9.0000    -0.2324     1.0299     1.0297     0.0002
 14 F      9.2295     9.0000    -0.2295     1.0357     1.0355     0.0002
 15 F      9.2343     9.0000    -0.2343     1.0248     1.0246     0.0002
 16 F      9.2291     9.0000    -0.2291     1.0332     1.0330     0.0002
 17 F      9.2186     9.0000    -0.2186     1.0586     1.0586     0.0001
 18 F      9.2174     9.0000    -0.2174     1.0571     1.0570     0.0001
 19 F      9.2115     9.0000    -0.2115     1.0819     1.0819     0.0000
 20 F      9.2041     9.0000    -0.2041     1.0881     1.0881     0.0000
 21 F      9.2224     9.0000    -0.2224     1.0477     1.0477     0.0000
 22 F      9.2198     9.0000    -0.2198     1.0587     1.0587     0.0000
 23 O      8.5111     8.0000    -0.5111     1.9716     1.9715     0.0001
 24 O      8.5687     8.0000    -0.5687     1.8573     1.8572     0.0001
 25 O      8.7518     8.0000    -0.7518     1.7093     1.7093     0.0000
 26 H      0.6678     1.0000     0.3322     0.9077     0.9077     0.0000
 27 H      0.6372     1.0000     0.3628     0.9357     0.9357     0.0000

  Mayer bond orders larger than 0.100000
B(  0-C ,  1-C ) :   0.9457 B(  0-C ,  8-F ) :   1.1231 B(  0-C ,  9-F ) :   1.1227 
B(  0-C , 10-F ) :   1.0758 B(  1-C ,  2-C ) :   0.9173 B(  1-C , 11-F ) :   1.0281 
B(  1-C , 12-F ) :   1.0282 B(  2-C ,  3-C ) :   0.8954 B(  2-C , 13-F ) :   0.9909 
B(  2-C , 14-F ) :   0.9953 B(  3-C ,  4-C ) :   0.8950 B(  3-C , 15-F ) :   0.9828 
B(  3-C , 16-F ) :   0.9947 B(  4-C ,  5-C ) :   0.8766 B(  4-C , 17-F ) :   1.0212 
B(  4-C , 18-F ) :   1.0229 B(  5-C ,  6-C ) :   0.8946 B(  5-C , 19-F ) :   1.0426 
B(  5-C , 20-F ) :   1.0580 B(  6-C ,  7-C ) :   0.8651 B(  6-C , 21-F ) :   1.0177 
B(  6-C , 22-F ) :   1.0400 B(  7-C , 23-O ) :   1.8785 B(  7-C , 24-O ) :   1.6555 
B( 24-O , 27-H ) :   0.1152 B( 25-O , 26-H ) :   0.9014 B( 25-O , 27-H ) :   0.8043 


-------
TIMINGS
-------

Total SCF time: 0 days 0 hours 0 min 46 sec 

Total time                  ....      46.649 sec
Sum of individual times     ....      45.342 sec  ( 97.2%)

SCF preparation             ....       1.319 sec  (  2.8%)
Fock matrix formation       ....      38.526 sec  ( 82.6%)
  Startup                   ....       0.193 sec  (  0.5% of F)
  Split-RI-J                ....       2.427 sec  (  6.3% of F)
  Chain of spheres X        ....      25.259 sec  ( 65.6% of F)
  XC integration            ....       7.856 sec  ( 20.4% of F)
    XC Preparation          ....       0.000 sec  (  0.0% of XC)
    Basis function eval.    ....       0.511 sec  (  6.5% of XC)
    Density eval.           ....       2.368 sec  ( 30.1% of XC)
    XC-Functional eval.     ....       0.173 sec  (  2.2% of XC)
    XC-Potential eval.      ....       2.168 sec  ( 27.6% of XC)
  CPCM terms                ....       2.225 sec  (  5.8% of F)
Diagonalization             ....       0.000 sec  (  0.0%)
Density matrix formation    ....       0.512 sec  (  1.1%)
Total Energy calculation    ....       0.377 sec  (  0.8%)
Population analysis         ....       0.493 sec  (  1.1%)
Orbital Transformation      ....       0.520 sec  (  1.1%)
Orbital Orthonormalization  ....       0.000 sec  (  0.0%)
DIIS solution               ....       0.636 sec  (  1.4%)
SOSCF solution              ....       2.959 sec  (  6.3%)
Finished LeanSCF after  47.1 sec

Maximum memory used throughout the entire LEANSCF-calculation: 121.4 MB


-------------------------------------------------------------------------------
                          DFT DISPERSION CORRECTION                            
                                                                               
                              DFTD3 V3.1  Rev 1                                
                          USING Becke-Johnson damping                          
-------------------------------------------------------------------------------
The R2SCANh functional is recognized
Active option DFTDOPT                   ...         4   

molecular C6(AA) [au] = 7741.186280 


            DFT-D V3
 parameters
 s6 scaling factor         :     1.0000 
 a1 scaling factor         :     0.4709 
 s8 scaling factor         :     1.1236 
 a2 scaling factor         :     5.9157 
 ad hoc parameters k1-k3   :    16.0000     1.3333    -4.0000 

 Edisp/kcal,au: -5.647763354558  -0.009000282841 
 E6   /kcal   :  -4.142687998 
 E8   /kcal   :  -1.505075357 
 % E8         :  26.649051354 

-------------------------   ----------------
Dispersion correction           -0.009000283
-------------------------   ----------------


-------------------------   --------------------
FINAL SINGLE POINT ENERGY     -2029.491147097643
-------------------------   --------------------

                                *** OPTIMIZATION RUN DONE ***



           ************************************************************
           *        Program running with 20 parallel MPI-processes    *
           *              working on a common directory               *
           ************************************************************

------------------------------------------------------------------------------
                              ORCA PROPERTY CALCULATIONS
------------------------------------------------------------------------------

GBWName                                 ... rf_mecn_1H2O_opt_r2s_sw_004.gbw
Number of atoms                         ...     28
Number of basis functions               ...    818
Max core memory                         ...   8000 MB

Electric properties:
Dipole moment                           ... YES
Quadrupole moment                       ...  NO
Static polarizability (Dipole/Dipole)   ...  NO
Static polarizability (Dipole/Quad.)    ...  NO
Static polarizability (Quad./Quad.)     ...  NO
Static polarizability (Velocity)        ...  NO

Atomic electric properties:
Dipole moment                           ...  NO
Quadrupole moment                       ...  NO
Static polarizability                   ...  NO

Choice of electric origin               ... Center of mass
Position of electric origin             ...    12.446519    44.681842     3.442781

General magnetic properties:
Magnetizability                         ...  NO

EPR properties:
g-Tensor (aka g-matrix)                 ...  NO
Zero-Field splitting spin-orbit         ...  NO
Zero-field splitting spin-spin          ...  NO
Hyperfine couplings                     ...  NO (   0 nuclei)
Quadrupole couplings                    ...  NO (   0 nuclei)
Contact density                         ...  NO (   0 nuclei)

NMR properties:
Chemical shifts                         ...  NO (   0 nuclei)
Spin-rotation constants                 ...  NO (   0 nuclei)
Spin-spin couplings                     ...  NO (   0 nuclei,    0 pairs)

Choice of magnetic origin               ... GIAO
Position of magnetic origin             ...     0.000000     0.000000     0.000000

Properties with geometric perturbations:
SCF Hessian                             ...  NO
IR spectrum                             ...  NO
VCD spectrum                            ...  NO
X-ray spectroscopy properties:
SCF XES/XAS/RIXS spectra                ...  NO


-------------
DIPOLE MOMENT
-------------

Method             : SCF
Type of density    : Electron Density
Multiplicity       :   2
Irrep              :   0
Energy             : -2029.4821468148018084 Eh
Relativity type    : 
Basis              : AO
                                X                 Y                 Z
Electronic contribution:      8.567422096      28.137013654       5.931975958
Nuclear contribution   :     -7.874062207     -21.655304478      -5.610036942
                        -----------------------------------------
Total Dipole Moment    :      0.693359889       6.481709176       0.321939016
                        -----------------------------------------
Magnitude (a.u.)       :      6.526633628
Magnitude (Debye)      :     16.589384302



--------------------
Rotational spectrum 
--------------------
 
Rotational constants in cm-1:             0.017194             0.003149             0.003033 
Rotational constants in MHz :           515.458186            94.416384            90.922908 

Dipole components along the rotational axes: 
x,y,z [a.u.] :    -6.437295     0.164356     1.063563 
x,y,z [Debye]:   -16.362304     0.417759     2.703363 

 

Dipole moment calculation done in   0.1 sec 

Maximum memory used throughout the entire PROP-calculation: 62.9 MB

--------------------------------
SUGGESTED CITATIONS FOR THIS RUN
--------------------------------

Below you find a list of papers that are relevant to this ORCA run
We neither can nor want to force you to cite these papers, but we appreciate if you do
You receive ORCA, which is the product of decades of hard work by many enthusiastic individuals, for free
The only thing we kindly ask in return is that you cite our papers,
We deeply appreciate it, if you show your appreciation for ORCA by not just citing the generic ORCA reference.

Please note that relegating all ORCA citations to the supporting information does *not* help us.
SI sections are not indexed - citations you put there will not count into any citation statistics
But we need these citations in order to attract the funding resources that allow us to do what we are doing

Therefore, if you are a happy ORCA user, please consider citing a few of the papers listed below in the main body of your paper

In addition to the list printed below, the program has created the file rf_mecn_1H2O_opt_r2s_sw_004.bibtex that contains the list in bibtex format
You can import this file easily into all common literature databanks and citation aid programs


List of essential papers. We consider these as the minimum necessary citations

  1. Neese,F.
     Software update: the ORCA program system, version 5.0
     WIRES Comput. Molec. Sci., 2022 12(1)e1606
     doi.org/10.1002/wcms.1606

List of papers to cite with high priority. The work reported in these papers was absolutely
necessary for this run to complete.
Our perspective: the developers of density functionals and basis sets usually get cited in chemistry papers
Good! But without the algorithms to do something with them, the functionals or basis sets would not do anything.
Hence, in our opinion, the algorithm design and method developments papers are equally worthy of getting cited

  1. Neese,F.
     An improvement of the resolution of the identity approximation for the formation of the Coulomb matrix
     J. Comp. Chem., 2003 24(14)1740-1747
     doi.org/10.1002/jcc.10318
  2. Neese,F.; Wennmohs,F.; Hansen,A.; Becker,U.
     Efficient, approximate and parallel Hartree-Fock and hybrid DFT calculations. A 'chain-of-spheres' algorithm for the Hartree-Fock exchange
     Chem. Phys., 2009 356(1-3)98-109
     doi.org/10.1016/j.chemphys.2008.10.036
  3. Garcia-Rates,M.; Neese,F.
     Effect of the Solute Cavity on the Solvation Energy and its Derivatives within the Framework of the Gaussian Charge Scheme
     J. Comput. Chem., 2020 41 922-939
     doi.org/10.1002/jcc.26139
  4. Helmich-Paris,B.; de Souza,B.; Neese,F.; Izsák,R.
     An improved chain of spheres for exchange algorithm
     J. Chem. Phys., 2021 155 104109
     doi.org/doi: 10.1063/5.0058766.
  5. Neese,F.
     The SHARK Integral Generation and Digestion System
     J. Comp. Chem., 2022  1-16
     doi.org/10.1002/jcc.26942
  6. Lehtola,S.; Steigemann,C.; Oliveira,M.; Marques,M.
     Recent developments in Libxc - A comprehensive library of functionals for density functional theory
     Software X, 2018 7 
     doi.org/10.1016/j.softx.2017.11.002
  7. Grimme,S.; Antony,J.; Ehrlich,S.; Krieg,H.
     A consistent and accurate ab initio parametrization of density functional dispersion correction (DFT-D) for the 94 elements H-Pu
     J. Chem. Phys., 2010 132 154104
     doi.org/10.1063/1.3382344
  8. Grimme,S.; Ehrlich,S.; Goerigk,L.
     Effect of the damping function in dispersion corrected density functional theory
     J. Comput. Chem., 2011 32(7)1456-1465
     doi.org/10.1002/jcc.21759
  9. Bursch,M.; Neugebauer,H.; Ehlert,S.; Grimme,S.
     Dispersion corrected r2SCAN based global hybrid functionals: r2SCANh, r2SCAN0, and r2SCAN50
     J. Phys. Chem., 2022 156(13)134105
     doi.org/10.1063/5.0086040

List of suggested additional citations. These are papers that are important in the 'surrounding' of 
of this run, or papers that preceded the highly important papers. If you like your results we are grateful for a citation.

  1. Izsak,R.; Neese,F.
     An overlap fitted chain of spheres exchange method
     J. Chem. Phys., 2011 135 144105
     doi.org/10.1063/1.3646921
  2. Izsak,R.; Hansen,A.; Neese,F.
     The resolution of identity and chain of spheres approximations for the LPNO-CCSD singles Fock term
     Molec. Phys., 2012 110 2413-2417
     doi.org/10.1080/00268976.2012.687466
  3. Neese,F.
     The ORCA program system
     WIRES Comput. Molec. Sci., 2012 2(1)73-78
     doi.org/10.1002/wcms.81
  4. Izsak,R.; Neese,F.; Klopper,W.
     Robust fitting techniques in the chain of spheres approximation to the Fock exchange: The role of the complementary space
     J. Chem. Phys., 2013 139 
     doi.org/10.1063/1.4819264
  5. Neese,F.
     Software update: the ORCA program system, version 4.0
     WIRES Comput. Molec. Sci., 2018 8(1)1-6
     doi.org/10.1002/wcms.1327
  6. Neese,F.; Wennmohs,F.; Becker,U.; Riplinger,C.
     The ORCA quantum chemistry program package
     J. Chem. Phys., 2020 152 Art. No. L224108
     doi.org/10.1063/5.0004608
  7. Wittmann,L.; Neugebauer,H.; Grimme,S.; Bursch,M.
     Dispersion-corrected r2SCAN based double-hybrid functionals
     J. Chem. Phys., 2023 159(22)224103
     doi.org/10.1063/5.0174988

List of optional additional citations

  1. Neese,F.
     Approximate second-order SCF convergence for spin unrestricted wavefunctions
     Chem. Phys. Lett., 2000 325(1-3)93-98
     doi.org/10.1016/s0009-2614(00)00662-x

Timings for individual modules:

Sum of individual times          ...     3312.742 sec (=  55.212 min)
Startup calculation              ...      127.209 sec (=   2.120 min)   3.8 %
SCF iterations                   ...     2447.419 sec (=  40.790 min)  73.9 %
Property calculations            ...        0.837 sec (=   0.014 min)   0.0 %
SCF Gradient evaluation          ...      736.636 sec (=  12.277 min)  22.2 %
Geometry relaxation              ...        0.641 sec (=   0.011 min)   0.0 %
                             ****ORCA TERMINATED NORMALLY****
TOTAL RUN TIME: 0 days 0 hours 55 minutes 33 seconds 595 msec
