
                                 *****************
                                 * O   R   C   A *
                                 *****************

                                            #,                                       
                                            ###                                      
                                            ####                                     
                                            #####                                    
                                            ######                                   
                                           ########,                                 
                                     ,,################,,,,,                         
                               ,,#################################,,                 
                          ,,##########################################,,             
                       ,#########################################, ''#####,          
                    ,#############################################,,   '####,        
                  ,##################################################,,,,####,       
                ,###########''''           ''''###############################       
              ,#####''   ,,,,##########,,,,          '''####'''          '####       
            ,##' ,,,,###########################,,,                        '##       
           ' ,,###''''                  '''############,,,                           
         ,,##''                                '''############,,,,        ,,,,,,###''
      ,#''                                            '''#######################'''  
     '                                                          ''''####''''         
             ,#######,   #######,   ,#######,      ##                                
            ,#'     '#,  ##    ##  ,#'     '#,    #''#        ,####,   ,####,        
            ##       ##  ##   ,#'  ##            #'  '#       #'       #'  '#        
            ##       ##  #######   ##           ,######,      #####,   #    #        
            '#,     ,#'  ##    ##  '#,     ,#' ,#      #,     #,   #   #,  ,#        
             '#######'   ##     ##  '#######'  #'      '#     '####' # '####'        



                #########################################################
                #                        -***-                          #
                #          Department of theory and spectroscopy        #
                #                                                       #
                #                      Frank Neese                      #
                #                                                       #
                #     Directorship, Architecture, Infrastructure        #
                #                    SHARK, DRIVERS                     #
                #        Core code/Algorithms in most modules           #
                #                                                       #
                #        Max Planck Institute fuer Kohlenforschung      #
                #                Kaiser Wilhelm Platz 1                 #
                #                 D-45470 Muelheim/Ruhr                 #
                #                      Germany                          #
                #                                                       #
                #                  All rights reserved                  #
                #                        -***-                          #
                #########################################################


                         Program Version 6.0.1  -  RELEASE   -


 With contributions from (in alphabetic order):
[Max-Planck-Institut fuer Kohlenforschung]                               
  Daniel Aravena         : Magnetic Suceptibility                        
  Michael Atanasov       : Ab Initio Ligand Field Theory (pilot matlab implementation)
  Alexander A. Auer      : GIAO ZORA, VPT2 properties, NMR spectrum      
  Ute Becker             : All parallelization in ORCA, NUMFREQ, NUMCALC 
  Giovanni Bistoni       : ED, misc. LED, open-shell LED, HFLD           
  Martin Brehm           : Molecular dynamics                            
  Dmytro Bykov           : pre 5.0 version of the SCF Hessian            
  Marcos Casanova-Páez   : Triplet and SCS-CIS(D). UHF-(DLPNO)-IP/EA/STEOM-CCSD. UHF-CVS-IP/STEOM-CCSD   
  Vijay G. Chilkuri      : MRCI spin determinant printing, contributions to CSF-ICE 
  Pauline Colinet        : FMM embedding                                 
  Dipayan Datta          : RHF DLPNO-CCSD density                        
  Achintya Kumar Dutta   : EOM-CC, STEOM-CC                              
  Nicolas Foglia         : Exact transition moments, OPA infrastructure, MCD improvements    
  Dmitry Ganyushin       : Spin-Orbit,Spin-Spin,Magnetic field MRCI      
  Miquel Garcia-Rates    : C-PCM and meta-GGA Hessian, CCSD/C-PCM, Gaussian charge scheme 
  Tiago L. C. Gouveia    : GS-ROHF, GS-ROCIS                             
  Yang Guo               : DLPNO-NEVPT2, F12-NEVPT2, CIM, IAO-localization        
  Andreas Hansen         : Spin unrestricted coupled pair/coupled cluster methods 
  Ingolf Harden          : AUTO-CI MPn and infrastructure                
  Benjamin Helmich-Paris : MC-RPA, TRAH-(SCF,CASSCF), AVAS, COSX integrals, SCF dyn. polar. 
  Lee Huntington         : MR-EOM, pCC                                   
  Robert Izsak           : Overlap fitted RIJCOSX, COSX-SCS-MP3, EOM     
  Riya Kayal             : Wick's Theorem for AUTO-CI, AUTO-CI UHF-CCSDT 
  Emily Kempfer          : AUTO-CI, RHF CISDT and CCSDT                  
  Christian Kollmar      : KDIIS, OOCD, Brueckner-CCSD(T), CCSD density, CASPT2, CASPT2-K, improved NEVPT2 
  Axel Koslowski         : Symmetry handling                             
  Simone Kossmann        : meta-GGA functionals, TD-DFT gradient, OOMP2, (MP2 Hessian; deprecated post 5.0) 
  Lucas Lang             : DCDCAS                                        
  Marvin Lechner         : AUTO-CI (C++ implementation), FIC-MRCC        
  Spencer Leger          : CASSCF response                               
  Dagmar Lenk            : GEPOL surface, SMD, ORCA-2-JSON               
  Dimitrios Liakos       : Extrapolation schemes; Compound Job, initial MDCI parallelization 
  Dimitrios Manganas     : Further ROCIS development; embedding schemes. LFT, Crystal Embedding 
  Dimitrios Pantazis     : SARC Basis sets                               
  Anastasios Papadopoulos: AUTO-CI, single reference methods and gradients 
  Taras Petrenko         : pre 6.0 DFT Hessian and TD-DFT gradient, (ASA, deprecated), ECA, 1-Electron XAS/XES, NRVS 
  Peter Pinski           : DLPNO-MP2, DLPNO-MP2 Gradient                 
  Christoph Reimann      : Effective Core Potentials                     
  Marius Retegan         : Local ZFS, SOC                                
  Christoph Riplinger    : Optimizer, TS searches, QM/MM, DLPNO-CCSD(T), (RO)-DLPNO pert. Triples 
  Michael Roemelt        : Original ROCIS implementation                 
  Masaaki Saitow         : Open-shell DLPNO-CCSD energy and density      
  Barbara Sandhoefer     : DKH picture change effects                    
  Kantharuban Sivalingam : CASSCF convergence/infrastructure, NEVPT2 and variants, FIC-MRCI 
  Bernardo de Souza      : ESD, SOC TD-DFT                               
  Georgi L. Stoychev     : AutoAux, RI-MP2 NMR, DLPNO-MP2 response, X2C  
  Van Anh Tran           : RI-MP2 g-tensors                              
  Willem Van den Heuvel  : Paramagnetic NMR                              
  Zikuan Wang            : NOTCH, Electric field optimization            
  Frank Wennmohs         : Technical directorship and infrastructure     
  Hang Xu                : AUTO-CI-Response properties                   
                                                                         
[FACCTs GmbH]                                                            
  Markus Bursch, Miquel Garcia-Rates, Christoph Riplinger, Bernardo de Souza, Georgi L. Stoychev 
                                                                 
  APM, Basis sets (HGBS, AHGBS, def-TZVP (Ac-Lr), def2-XVPD (La-Lu)), CI-OPT, improved COSX, DLPNO-Multilevel,           
  DOCKER, DRACO, updates on ESD, GOAT, IRC, LR-CPCM, MBIS, meta-GGA TD-DFT gradient, ML-optimized integration grids, 
  MM, NACMEs, nearIR, NEB, NEB-TS, NL-DFT gradient (VV10), 2- and 3-layer-ONIOM, interface openCOSMO-RS, QMMM,   
  Crystal-QMMM, SF, symmetry and pop. for TD-DFT, r2SCAN hybrids, SOLVATOR                                   
                                                                         
[Other institutions]                                                     
  V. Asgeirsson          : NEB                                           
  Christoph Bannwarth    : sTDA-DFT, sTD-DFT, PBEh-3c, B97-3c, D3        
  Sebastian Ehlert       : rSCAN, r2SCAN, r2SCAN-3c, D4, dhf basis sets  
  Marvin Friede          : D4 for Fr, Ra, Ac-Lr                          
  Lars Goerigk           : TD-DFT with DH, B97 family of functionals     
  Stefan Grimme          : VdW corrections, initial TS optimization, DFT functionals, gCP, sTDA/sTD-DF 
  Waldemar Hujo          : DFT-NL                                        
  H. Jonsson             : NEB                                           
  Holger Kruse           : gCP                                           
  Marcel Mueller         : wB97X-3c, vDZP basis set                      
  Hagen Neugebauer       : wr2SCAN                                       
  Tobias Risthaus        : range-separated hybrid DFT                    
  Lukas Wittmann         : regularized MP2, r2SCAN double-hybrids, wr2SCAN        
                                                                         
We gratefully acknowledge several colleagues who have allowed us to      
interface, adapt or use parts of their codes:                            
  Ed Valeev, F. Pavosevic, A. Kumar             : LibInt (2-el integral package), F12 methods 
  Garnet Chan, S. Sharma, J. Yang, R. Olivares  : DMRG                   
  Ulf Ekstrom                                   : XCFun DFT Library      
  Mihaly Kallay                                 : mrcc  (arbitrary order and MRCC methods)
  Frank Weinhold                                : gennbo (NPA and NBO analysis)           
  Simon Mueller                                 : openCOSMO-RS                            
  Christopher J. Cramer and Donald G. Truhlar   : smd solvation model                     
  S Lehtola, MJT Oliveira, MAL Marques          : LibXC Library                           
  Liviu Ungur et al                             : ANISO software                          


 Your calculation uses the libint2 library for the computation of 2-el integrals
 For citations please refer to: http://libint.valeyev.net

 Your ORCA version has been built with support for libXC version: 6.2.2
 For citations please refer to: https://libxc.gitlab.io

 This ORCA versions uses:
   CBLAS   interface :  Fast vector & matrix operations
   LAPACKE interface :  Fast linear algebra routines
   SCALAPACK package :  Parallel linear algebra routines
   Shared memory     :  Shared parallel matrices
   BLAS/LAPACK       :  OpenBLAS 0.3.27  USE64BITINT DYNAMIC_ARCH NO_AFFINITY SkylakeX SINGLE_THREADED
        Core in use  :  SkylakeX
   Copyright (c) 2011-2014, The OpenBLAS Project


NOTE: MaxCore=8000 MB was set to SCF,MP2,MDCI,CIPSI,MRCI and CIS
      => If you want to overwrite this, your respective input block should be placed after the MaxCore statement
Your calculation utilizes the atom-pairwise dispersion correction
with the Becke-Johnson damping scheme (D3BJ)


Your calculation utilizes the SMD solvation module
Please cite in your paper:
A.V. Marenich, C.J. Cramer, D.G. Truhlar J. Phys. Chem. B, 113, (2009), 6378 

Warning: RI is on but no J-basis has been assigned. Assigning Def2/J (nothing to worry about!)
================================================================================

----- Orbital basis set information -----
Your calculation utilizes the basis: def2-TZVP
   F. Weigend and R. Ahlrichs, Phys. Chem. Chem. Phys. 7, 3297 (2005).

----- AuxJ basis set information -----
Your calculation utilizes the auxiliary basis: def2/J
   F. Weigend, Phys. Chem. Chem. Phys. 8, 1057 (2006).

================================================================================
                                        WARNINGS
                       Please study these warnings very carefully!
================================================================================


WARNING: your system is open-shell and RHF/RKS was chosen
  ===> : WILL SWITCH to UHF/UKS


WARNING: Geometry Optimization
  ===> : Switching off AutoStart
         For restart on a previous wavefunction, please use MOREAD

================================================================================
                                       INPUT FILE
================================================================================
NAME = rf_mecn_opt_TP_C6_P_B.inp
|  1> !TPSSh def2-TZVP opt d3 TightSCF SlowConv defgrid2
|  2>  
|  3> %pal
|  4> nprocs 20
|  5> end
|  6>  
|  7> %scf
|  8> MaxIter 1500
|  9> end
| 10>  
| 11> %maxcore 8000
| 12>  
| 13> !CPCM
| 14> %cpcm smd true
| 15> SMDsolvent "ACETONITRILE"
| 16> end
| 17>  
| 18> * xyz 0 2
| 19> 6        4.790427000     -0.033865800     -0.529943200
| 20> 8        5.449345000     -1.206924000     -0.894594600
| 21> 8        4.978223000      1.323071000     -0.737377200
| 22> 6        3.506687600     -0.338741600      0.376153800
| 23> 6        2.222300000      0.400524800     -0.110681600
| 24> 6        0.900506800     -0.386389800      0.175703000
| 25> 6       -0.395261200      0.487294000      0.065549000
| 26> 6       -1.705693600     -0.364773800     -0.068373600
| 27> 6       -3.005136200      0.445344800      0.258164000
| 28> 6       -4.319880200     -0.214526000     -0.270540800
| 29> 9        3.211587400     -1.692050400      0.412735200
| 30> 9        3.741061800      0.055285800      1.689948800
| 31> 9        2.125696800      1.616867800      0.483236600
| 32> 9        2.314152400      0.589704000     -1.455769200
| 33> 9        0.794028800     -1.413561400     -0.700839000
| 34> 9        0.958350600     -0.884509000      1.435093400
| 35> 9       -0.498373400      1.260265600      1.173340200
| 36> 9       -0.299075000      1.289512600     -1.020910800
| 37> 9       -1.792381400     -0.831391600     -1.336863600
| 38> 9       -2.918792200      1.679227200     -0.295171200
| 39> 9       -3.119771000      0.573779800      1.598579800
| 40> 9       -4.383115600     -1.504377600      0.089127600
| 41> 9       -5.365669800      0.430528600      0.260394200
| 42> 9       -4.396020400     -0.128550600     -1.602941800
| 43> 1        5.903122371     -2.014774547     -1.145719253
| 44> *
| 45> 
| 46>                          ****END OF INPUT****
================================================================================

                       *****************************
                       * Geometry Optimization Run *
                       *****************************

Geometry optimization settings:
Update method            Update   .... BFGS
Choice of coordinates    CoordSys .... (2022) Redundant Internals
Initial Hessian          InHess   .... Almloef's Model
Max. no of cycles        MaxIter  .... 75

Convergence Tolerances:
Energy Change            TolE     ....  5.0000e-06 Eh
Max. Gradient            TolMAXG  ....  3.0000e-04 Eh/bohr
RMS Gradient             TolRMSG  ....  1.0000e-04 Eh/bohr
Max. Displacement        TolMAXD  ....  4.0000e-03 bohr
RMS Displacement         TolRMSD  ....  2.0000e-03 bohr
Strict Convergence                .... False

------------------------------------------------------------------------------
                        ORCA OPTIMIZATION COORDINATE SETUP
------------------------------------------------------------------------------

The optimization will be done in redundant internal coordinates (2022)
Making redundant internal coordinates   ...  (2022 redundants) done
Evaluating the initial hessian          ...  (Almloef) done
Evaluating the coordinates              ...  done
Calculating the B-matrix                .... done
Calculating the G-matrix                .... done
Diagonalizing the G-matrix              .... done
Small eigenvalue found = 4.724e-03
Small eigenvalue found = 1.347e-02
Small eigenvalue found = 2.872e-02
The first mode is                       ....   39
The number of degrees of freedom        ....   69

    -----------------------------------------------------------------
                    Redundant Internal Coordinates


    -----------------------------------------------------------------
         Definition                    Initial Value    Approx d2E/dq
    -----------------------------------------------------------------
      1. B(O   1,C   0)                  1.3940         0.551454   
      2. B(O   2,C   0)                  1.3855         0.568952   
      3. B(C   3,C   0)                  1.6006         0.288221   
      4. B(C   4,C   3)                  1.5599         0.334759   
      5. B(C   5,C   4)                  1.5647         0.328824   
      6. B(C   6,C   5)                  1.5667         0.326486   
      7. B(C   7,C   6)                  1.5688         0.323927   
      8. B(C   8,C   7)                  1.5657         0.327637   
      9. B(C   9,C   8)                  1.5632         0.330714   
     10. B(F  10,C   3)                  1.3856         0.528443   
     11. B(F  11,C   3)                  1.3915         0.517117   
     12. B(F  12,C   4)                  1.3570         0.586881   
     13. B(F  13,C   4)                  1.3614         0.577499   
     14. B(F  14,C   5)                  1.3545         0.592326   
     15. B(F  15,C   5)                  1.3556         0.590092   
     16. B(F  16,C   6)                  1.3547         0.591865   
     17. B(F  17,C   6)                  1.3540         0.593567   
     18. B(F  18,C   7)                  1.3544         0.592672   
     19. B(F  19,C   8)                  1.3550         0.591238   
     20. B(F  20,C   8)                  1.3514         0.599114   
     21. B(F  21,C   9)                  1.3406         0.623533   
     22. B(F  22,C   9)                  1.3385         0.628179   
     23. B(F  23,C   9)                  1.3373         0.630929   
     24. B(H  24,O   1)                  0.9600         0.519956   
     25. A(O   1,C   0,O   2)          136.1318         0.413163   
     26. A(O   2,C   0,C   3)          112.3347         0.371210   
     27. A(O   1,C   0,C   3)          111.5249         0.369222   
     28. L(C   0,O   1,H  24,C   3, 2) 180.0000         0.362759   
     29. L(C   0,O   1,H  24,C   3, 1) 180.0000         0.362759   
     30. A(C   4,C   3,F  11)          107.4072         0.373095   
     31. A(C   0,C   3,F  11)          110.2099         0.363632   
     32. A(F  10,C   3,F  11)          106.7094         0.399684   
     33. A(C   4,C   3,F  10)          107.2033         0.374492   
     34. A(C   0,C   3,F  10)          111.8265         0.364982   
     35. A(C   0,C   3,C   4)          113.1687         0.341363   
     36. A(C   3,C   4,F  12)          110.2926         0.381351   
     37. A(F  12,C   4,F  13)          108.2194         0.415201   
     38. A(C   3,C   4,C   5)          113.5839         0.349005   
     39. A(C   5,C   4,F  13)          107.9208         0.379109   
     40. A(C   3,C   4,F  13)          108.5818         0.380286   
     41. A(C   5,C   4,F  12)          108.0911         0.380169   
     42. A(F  14,C   5,F  15)          109.0206         0.417483   
     43. A(C   4,C   5,C   6)          113.9128         0.347536   
     44. A(C   6,C   5,F  15)          107.7906         0.380059   
     45. A(C   4,C   5,F  15)          108.5900         0.380529   
     46. A(C   6,C   5,F  14)          108.2026         0.380308   
     47. A(C   4,C   5,F  14)          109.2282         0.380779   
     48. A(C   5,C   6,C   7)          113.2023         0.346660   
     49. A(F  16,C   6,F  17)          108.8752         0.417862   
     50. A(C   7,C   6,F  17)          108.2186         0.379927   
     51. A(C   5,C   6,F  17)          109.1523         0.380446   
     52. A(C   7,C   6,F  16)          108.4284         0.379738   
     53. A(C   5,C   6,F  16)          108.8835         0.380256   
     54. A(C   8,C   7,F  18)          108.6915         0.380579   
     55. A(C   6,C   7,F  18)          108.6955         0.379828   
     56. A(C   6,C   7,C   8)          113.2298         0.346865   
     57. A(F  19,C   8,F  20)          108.8987         0.418476   
     58. A(C   7,C   8,C   9)          114.1471         0.348078   
     59. A(C   9,C   8,F  20)          107.7127         0.381912   
     60. A(C   7,C   8,F  20)          109.0521         0.381293   
     61. A(C   9,C   8,F  19)          107.4499         0.381036   
     62. A(C   7,C   8,F  19)          109.4572         0.380419   
     63. A(F  22,C   9,F  23)          108.6464         0.426961   
     64. A(F  21,C   9,F  23)          109.0552         0.426394   
     65. A(C   8,C   9,F  23)          110.9604         0.385362   
     66. A(F  21,C   9,F  22)          108.6877         0.426061   
     67. A(C   8,C   9,F  22)          108.6349         0.385069   
     68. A(C   8,C   9,F  21)          110.7995         0.384572   
     69. D(F  10,C   3,C   0,O   1)     -9.8890         0.006601   
     70. D(F  11,C   3,C   0,O   2)    -70.4768         0.006601   
     71. D(F  10,C   3,C   0,O   2)    171.0025         0.006601   
     72. D(F  11,C   3,C   0,O   1)    108.6317         0.006601   
     73. D(C   4,C   3,C   0,O   2)     49.8076         0.006601   
     74. D(C   4,C   3,C   0,O   1)   -131.0839         0.006601   
     75. D(C   5,C   4,C   3,C   0)    148.6429         0.009100   
     76. D(F  12,C   4,C   3,F  11)     32.0233         0.009100   
     77. D(F  12,C   4,C   3,F  10)    146.3851         0.009100   
     78. D(C   5,C   4,C   3,F  11)    -89.4885         0.009100   
     79. D(F  12,C   4,C   3,C   0)    -89.8453         0.009100   
     80. D(C   5,C   4,C   3,F  10)     24.8733         0.009100   
     81. D(C   6,C   5,C   4,F  13)    -75.6292         0.008811   
     82. D(C   6,C   5,C   4,F  12)     41.2001         0.008811   
     83. D(C   6,C   5,C   4,C   3)    163.9326         0.008811   
     84. D(F  14,C   5,C   4,F  13)     45.4721         0.008811   
     85. D(F  14,C   5,C   4,F  12)    162.3014         0.008811   
     86. D(F  14,C   5,C   4,C   3)    -74.9661         0.008811   
     87. D(F  16,C   6,C   5,F  15)     44.2190         0.008700   
     88. D(F  16,C   6,C   5,F  14)    161.9826         0.008700   
     89. D(F  16,C   6,C   5,C   4)    -76.3465         0.008700   
     90. D(C   7,C   6,C   5,F  15)    -76.4529         0.008700   
     91. D(C   7,C   6,C   5,F  14)     41.3107         0.008700   
     92. D(C   7,C   6,C   5,C   4)    162.9815         0.008700   
     93. D(F  18,C   7,C   6,F  16)    162.3257         0.008059   
     94. D(F  18,C   7,C   6,C   5)    -76.7446         0.008059   
     95. D(C   8,C   7,C   6,F  17)    -76.5134         0.008059   
     96. D(C   8,C   7,C   6,F  16)     41.4341         0.008059   
     97. D(C   8,C   7,C   6,C   5)    162.3638         0.008059   
     98. D(C   9,C   8,C   7,F  18)     41.5227         0.008223   
     99. D(C   9,C   8,C   7,C   6)    162.4166         0.008223   
    100. D(F  20,C   8,C   7,C   6)    -77.0818         0.008223   
    101. D(F  19,C   8,C   7,F  18)    -78.9355         0.008223   
    102. D(F  19,C   8,C   7,C   6)     41.9584         0.008223   
    103. D(F  22,C   9,C   8,F  20)     48.1091         0.008903   
    104. D(F  22,C   9,C   8,F  19)    -69.0724         0.008903   
    105. D(F  22,C   9,C   8,C   7)    169.3552         0.008903   
    106. D(F  21,C   9,C   8,F  20)    -71.2185         0.008903   
    107. D(F  21,C   9,C   8,F  19)    171.5999         0.008903   
    108. D(F  21,C   9,C   8,C   7)     50.0276         0.008903   
    -----------------------------------------------------------------

Number of atoms                         .... 25
Number of degrees of freedom            .... 108


         *************************************************************
         *                GEOMETRY OPTIMIZATION CYCLE   1            *
         *************************************************************
---------------------------------
CARTESIAN COORDINATES (ANGSTROEM)
---------------------------------
  C      4.790427   -0.033866   -0.529943
  O      5.449345   -1.206924   -0.894595
  O      4.978223    1.323071   -0.737377
  C      3.506688   -0.338742    0.376154
  C      2.222300    0.400525   -0.110682
  C      0.900507   -0.386390    0.175703
  C     -0.395261    0.487294    0.065549
  C     -1.705694   -0.364774   -0.068374
  C     -3.005136    0.445345    0.258164
  C     -4.319880   -0.214526   -0.270541
  F      3.211587   -1.692050    0.412735
  F      3.741062    0.055286    1.689949
  F      2.125697    1.616868    0.483237
  F      2.314152    0.589704   -1.455769
  F      0.794029   -1.413561   -0.700839
  F      0.958351   -0.884509    1.435093
  F     -0.498373    1.260266    1.173340
  F     -0.299075    1.289513   -1.020911
  F     -1.792381   -0.831392   -1.336864
  F     -2.918792    1.679227   -0.295171
  F     -3.119771    0.573780    1.598580
  F     -4.383116   -1.504378    0.089128
  F     -5.365670    0.430529    0.260394
  F     -4.396020   -0.128551   -1.602942
  H      5.903122   -2.014775   -1.145719

----------------------------
CARTESIAN COORDINATES (A.U.)
----------------------------
  NO LB      ZA    FRAG     MASS         X           Y           Z
   0 C     6.0000    0    12.011    9.052595   -0.063997   -1.001448
   1 O     8.0000    0    15.999   10.297770   -2.280756   -1.690539
   2 O     8.0000    0    15.999    9.407478    2.500242   -1.393441
   3 C     6.0000    0    12.011    6.626679   -0.640129    0.710828
   4 C     6.0000    0    12.011    4.199538    0.756882   -0.209158
   5 C     6.0000    0    12.011    1.701711   -0.730171    0.332031
   6 C     6.0000    0    12.011   -0.746935    0.920852    0.123870
   7 C     6.0000    0    12.011   -3.223294   -0.689323   -0.129207
   8 C     6.0000    0    12.011   -5.678884    0.841580    0.487859
   9 C     6.0000    0    12.011   -8.163391   -0.405395   -0.511248
  10 F     9.0000    0    18.998    6.069021   -3.197512    0.779956
  11 F     9.0000    0    18.998    7.069582    0.104475    3.193540
  12 F     9.0000    0    18.998    4.016985    3.055437    0.913185
  13 F     9.0000    0    18.998    4.373114    1.114379   -2.751005
  14 F     9.0000    0    18.998    1.500497   -2.671244   -1.324394
  15 F     9.0000    0    18.998    1.811020   -1.671480    2.711934
  16 F     9.0000    0    18.998   -0.941789    2.381557    2.217292
  17 F     9.0000    0    18.998   -0.565170    2.436826   -1.929242
  18 F     9.0000    0    18.998   -3.387110   -1.571102   -2.526306
  19 F     9.0000    0    18.998   -5.515718    3.173280   -0.557793
  20 F     9.0000    0    18.998   -5.895513    1.084287    3.020878
  21 F     9.0000    0    18.998   -8.282888   -2.842862    0.168427
  22 F     9.0000    0    18.998  -10.139646    0.813581    0.492074
  23 F     9.0000    0    18.998   -8.307275   -0.242925   -3.029121
  24 H     1.0000    0     1.008   11.155285   -3.807372   -2.165096

--------------------------------
INTERNAL COORDINATES (ANGSTROEM)
--------------------------------
 C      0   0   0     0.000000000000     0.00000000     0.00000000
 O      1   0   0     1.393990356793     0.00000000     0.00000000
 O      1   2   0     1.385486802956   136.13177198     0.00000000
 C      1   2   3     1.600608594862   111.52489317   181.18992567
 C      4   1   2     1.559863783763   113.16872737   228.91614990
 C      5   4   1     1.564732561934   113.58394786   148.64287440
 C      6   5   4     1.566675459667   113.91280616   163.93256239
 C      7   6   5     1.568817348692   113.20226571   162.98152714
 C      8   7   6     1.565717094808   113.22984595   162.36375422
 C      9   8   7     1.563173062643   114.14707705   162.41661495
 F      4   1   2     1.385592665621   111.82651119   350.11101305
 F      4   1   2     1.391490625050   110.20991618   108.63170802
 F      5   4   1     1.357041377479   110.29260564   270.15468021
 F      5   4   1     1.361428031433   108.58179722    28.57841973
 F      6   5   4     1.354527570075   109.22822656   285.03385927
 F      6   5   4     1.355556277776   108.59004089    43.81583148
 F      7   6   5     1.354739297058   108.88346185   283.65347401
 F      7   6   5     1.353957667090   109.15230848    42.38718856
 F      8   7   6     1.354368423305   108.69554158   283.25540020
 F      9   8   7     1.355028009646   109.45719767    41.95842364
 F      9   8   7     1.351425618925   109.05210362   282.91820052
 F     10   9   8     1.340551089588   110.79953142    50.02756898
 F     10   9   8     1.338530275591   108.63493714   169.35523750
 F     10   9   8     1.337341214598   110.96044107   288.72891896
 H      2   1   3     0.960000000033   180.00000000     0.00000000

---------------------------
INTERNAL COORDINATES (A.U.)
---------------------------
 C      0   0   0     0.000000000000     0.00000000     0.00000000
 O      1   0   0     2.634260007667     0.00000000     0.00000000
 O      1   2   0     2.618190619750   136.13177198     0.00000000
 C      1   2   3     3.024711891890   111.52489317   181.18992567
 C      4   1   2     2.947715357535   113.16872737   228.91614990
 C      5   4   1     2.956916014884   113.58394786   148.64287440
 C      6   5   4     2.960587559506   113.91280616   163.93256239
 C      7   6   5     2.964635143173   113.20226571   162.98152714
 C      8   7   6     2.958776512386   113.22984595   162.36375422
 C      9   8   7     2.953968988318   114.14707705   162.41661495
 F      4   1   2     2.618390671194   111.82651119   350.11101305
 F      4   1   2     2.629536199263   110.20991618   108.63170802
 F      5   4   1     2.564436555835   110.29260564   270.15468021
 F      5   4   1     2.572726130452   108.58179722    28.57841973
 F      6   5   4     2.559686148288   109.22822656   285.03385927
 F      6   5   4     2.561630124115   108.59004089    43.81583148
 F      7   6   5     2.560086254300   108.88346185   283.65347401
 F      7   6   5     2.558609187723   109.15230848    42.38718856
 F      8   7   6     2.559385404477   108.69554158   283.25540020
 F      9   8   7     2.560631842023   109.45719767    41.95842364
 F      9   8   7     2.553824310132   109.05210362   282.91820052
 F     10   9   8     2.533274427850   110.79953142    50.02756898
 F     10   9   8     2.529455642830   108.63493714   169.35523750
 F     10   9   8     2.527208643196   110.96044107   288.72891896
 H      2   1   3     1.814137088628   180.00000000     0.00000000

---------------------
BASIS SET INFORMATION
---------------------
There are 4 groups of distinct atoms

 Group   1 Type C   : 11s6p2d1f contracted to 5s3p2d1f pattern {62111/411/11/1}
 Group   2 Type O   : 11s6p2d1f contracted to 5s3p2d1f pattern {62111/411/11/1}
 Group   3 Type F   : 11s6p2d1f contracted to 5s3p2d1f pattern {62111/411/11/1}
 Group   4 Type H   : 5s1p contracted to 3s1p pattern {311/1}

Atom   0C    basis set group =>   1
Atom   1O    basis set group =>   2
Atom   2O    basis set group =>   2
Atom   3C    basis set group =>   1
Atom   4C    basis set group =>   1
Atom   5C    basis set group =>   1
Atom   6C    basis set group =>   1
Atom   7C    basis set group =>   1
Atom   8C    basis set group =>   1
Atom   9C    basis set group =>   1
Atom  10F    basis set group =>   3
Atom  11F    basis set group =>   3
Atom  12F    basis set group =>   3
Atom  13F    basis set group =>   3
Atom  14F    basis set group =>   3
Atom  15F    basis set group =>   3
Atom  16F    basis set group =>   3
Atom  17F    basis set group =>   3
Atom  18F    basis set group =>   3
Atom  19F    basis set group =>   3
Atom  20F    basis set group =>   3
Atom  21F    basis set group =>   3
Atom  22F    basis set group =>   3
Atom  23F    basis set group =>   3
Atom  24H    basis set group =>   4
---------------------------------
AUXILIARY/J BASIS SET INFORMATION
---------------------------------
There are 4 groups of distinct atoms

 Group   1 Type C   : 12s5p4d2f1g contracted to 6s4p3d1f1g pattern {711111/2111/211/2/1}
 Group   2 Type O   : 12s5p4d2f1g contracted to 6s4p3d1f1g pattern {711111/2111/211/2/1}
 Group   3 Type F   : 12s5p4d2f1g contracted to 6s4p3d1f1g pattern {711111/2111/211/2/1}
 Group   4 Type H   : 5s2p1d contracted to 3s1p1d pattern {311/2/1}

Atom   0C    basis set group =>   1
Atom   1O    basis set group =>   2
Atom   2O    basis set group =>   2
Atom   3C    basis set group =>   1
Atom   4C    basis set group =>   1
Atom   5C    basis set group =>   1
Atom   6C    basis set group =>   1
Atom   7C    basis set group =>   1
Atom   8C    basis set group =>   1
Atom   9C    basis set group =>   1
Atom  10F    basis set group =>   3
Atom  11F    basis set group =>   3
Atom  12F    basis set group =>   3
Atom  13F    basis set group =>   3
Atom  14F    basis set group =>   3
Atom  15F    basis set group =>   3
Atom  16F    basis set group =>   3
Atom  17F    basis set group =>   3
Atom  18F    basis set group =>   3
Atom  19F    basis set group =>   3
Atom  20F    basis set group =>   3
Atom  21F    basis set group =>   3
Atom  22F    basis set group =>   3
Atom  23F    basis set group =>   3
Atom  24H    basis set group =>   4


           ************************************************************
           *        Program running with 20 parallel MPI-processes    *
           *              working on a common directory               *
           ************************************************************
------------------------------------------------------------------------------
                             ORCA STARTUP CALCULATIONS
                           -- RI-GTO INTEGRALS CHOSEN --
------------------------------------------------------------------------------
------------------------------------------------------------------------------
                   ___                                                        
                  /   \      - P O W E R E D   B Y -                         
                 /     \                                                     
                 |  |  |   _    _      __       _____    __    __             
                 |  |  |  | |  | |    /  \     |  _  \  |  |  /  |          
                  \  \/   | |  | |   /    \    | | | |  |  | /  /          
                 / \  \   | |__| |  /  /\  \   | |_| |  |  |/  /          
                |  |  |   |  __  | /  /__\  \  |    /   |      \           
                |  |  |   | |  | | |   __   |  |    \   |  |\   \          
                \     /   | |  | | |  |  |  |  | |\  \  |  | \   \       
                 \___/    |_|  |_| |__|  |__|  |_| \__\ |__|  \__/        
                                                                              
                      - O R C A' S   B I G   F R I E N D -                    
                                      &                                       
                       - I N T E G R A L  F E E D E R -                       
                                                                              
 v1 FN, 2020, v2 2021, v3 2022-2024                                           
------------------------------------------------------------------------------


----------------------
SHARK INTEGRAL PACKAGE
----------------------

Number of atoms                             ...     25
Number of basis functions                   ...    750
Number of shells                            ...    268
Maximum angular momentum                    ...      3
Integral batch strategy                     ... SHARK/LIBINT Hybrid
RI-J (if used) integral strategy            ... SPLIT-RIJ (Revised 2003 algorithm where possible)
Printlevel                                  ...      1
Contraction scheme used                     ... SEGMENTED contraction
Prescreening option                         ... SCHWARTZ
   Thresh                                   ... 2.500e-11
   Tcut                                     ... 2.500e-12
   Tpresel                                  ... 2.500e-12 
Coulomb Range Separation                    ... NOT USED
Exchange Range Separation                   ... NOT USED
Multipole approximations                    ... NOT USED
Finite Nucleus Model                        ... NOT USED
CABS basis                                  ... NOT available
Auxiliary Coulomb fitting basis             ... AVAILABLE
   # of basis functions in Aux-J            ...   1187
   # of shells in Aux-J                     ...    365
   Maximum angular momentum in Aux-J        ...      4
Auxiliary J/K fitting basis                 ... NOT available
Auxiliary Correlation fitting basis         ... NOT available
Auxiliary 'external' fitting basis          ... NOT available

Checking pre-screening integrals            ... done (  0.0 sec) Dimension = 268
Check shell pair data                       ... done (  0.0 sec)
Shell pair information
Shell pair cut-off parameter TPreSel        ...   2.5e-12
Total number of shell pairs                 ...     36046
Shell pairs after pre-screening             ...     21958
Total number of primitive shell pairs       ...    118872
Primitive shell pairs kept                  ...     46600
          la=0 lb=0:   4192 shell pairs
          la=1 lb=0:   5994 shell pairs
          la=1 lb=1:   2074 shell pairs
          la=2 lb=0:   3260 shell pairs
          la=2 lb=1:   2381 shell pairs
          la=2 lb=2:    672 shell pairs
          la=3 lb=0:   1480 shell pairs
          la=3 lb=1:   1144 shell pairs
          la=3 lb=2:    613 shell pairs
          la=3 lb=3:    148 shell pairs

Calculating one electron integrals          ... done (  0.1 sec)
Calculating RI/J V-Matrix + Cholesky decomp.... done (  0.1 sec)
Calculating Nuclear repulsion               ... done (  0.0 sec) ENN=   2615.292713485126 Eh

Diagonalization of the overlap matrix:
Smallest eigenvalue                        ... 6.664e-05
Time for diagonalization                   ...    0.104 sec
Threshold for overlap eigenvalues          ... 1.000e-07
Number of eigenvalues below threshold      ... 0
Time for construction of square roots      ...    0.047 sec
Total time needed                          ...    0.158 sec

-------------------
DFT GRID GENERATION
-------------------

General Integration Accuracy     IntAcc      ... 4.388
Radial Grid Type                 RadialGrid  ... OptM3 with GC (2021)
Angular Grid (max. ang.)         AngularGrid ... 4 (Lebedev-302)
Angular grid pruning method      GridPruning ... 4 (adaptive)
Weight generation scheme         WeightScheme... mBecke (2022)
Basis function cutoff            BFCut       ... 1.0000e-11
Integration weight cutoff        WCut        ... 1.0000e-14
Partially contracted basis set               ... off
Rotationally invariant grid construction     ... off
Angular grids for H and He will be reduced by one unit

Total number of grid points                  ...   148750
Total number of batches                      ...     2335
Average number of points per batch           ...       63
Average number of grid points per atom       ...     5950

--------------------
COSX GRID GENERATION
--------------------

GRIDX 1
-------
General Integration Accuracy     IntAcc      ... 3.816
Radial Grid Type                 RadialGrid  ... OptM3 with GC (2021)
Angular Grid (max. ang.)         AngularGrid ... 1 (Lebedev-50)
Angular grid pruning method      GridPruning ... 4 (adaptive)
Weight generation scheme         WeightScheme... mBecke (2022)
Basis function cutoff            BFCut       ... 1.0000e-11
Integration weight cutoff        WCut        ... 1.0000e-14
Partially contracted basis set               ... on
Rotationally invariant grid construction     ... off
Angular grids for H and He will be reduced by one unit

Total number of grid points                  ...    18713
Total number of batches                      ...      158
Average number of points per batch           ...      118
Average number of grid points per atom       ...      749
UseSFitting                                  ... on

GRIDX 2
-------
General Integration Accuracy     IntAcc      ... 4.020
Radial Grid Type                 RadialGrid  ... OptM3 with GC (2021)
Angular Grid (max. ang.)         AngularGrid ... 2 (Lebedev-110)
Angular grid pruning method      GridPruning ... 4 (adaptive)
Weight generation scheme         WeightScheme... mBecke (2022)
Basis function cutoff            BFCut       ... 1.0000e-11
Integration weight cutoff        WCut        ... 1.0000e-14
Partially contracted basis set               ... on
Rotationally invariant grid construction     ... off
Angular grids for H and He will be reduced by one unit

Total number of grid points                  ...    44130
Total number of batches                      ...      359
Average number of points per batch           ...      122
Average number of grid points per atom       ...     1765
UseSFitting                                  ... on

GRIDX 3
-------
General Integration Accuracy     IntAcc      ... 4.338
Radial Grid Type                 RadialGrid  ... OptM3 with GC (2021)
Angular Grid (max. ang.)         AngularGrid ... 3 (Lebedev-194)
Angular grid pruning method      GridPruning ... 4 (adaptive)
Weight generation scheme         WeightScheme... mBecke (2022)
Basis function cutoff            BFCut       ... 1.0000e-11
Integration weight cutoff        WCut        ... 1.0000e-14
Partially contracted basis set               ... on
Rotationally invariant grid construction     ... off
Angular grids for H and He will be reduced by one unit

Total number of grid points                  ...    97707
Total number of batches                      ...      775
Average number of points per batch           ...      126
Average number of grid points per atom       ...     3908
UseSFitting                                  ... on
Initializing property integral containers    ... done (  0.0 sec)

SHARK setup successfully completed in   3.2 seconds

Maximum memory used throughout the entire STARTUP-calculation: 56.8 MB


           ************************************************************
           *        Program running with 20 parallel MPI-processes    *
           *              working on a common directory               *
           ************************************************************
-------------------------------------------------------------------------------
                                 ORCA GUESS
                   Start orbitals & Density for SCF / CASSCF
-------------------------------------------------------------------------------

------------
SCF SETTINGS
------------
Hamiltonian:
 Density Functional     Method          .... DFT(GTOs)
 Exchange Functional    Exchange        .... TPSS
 Correlation Functional Correlation     .... TPSS
 LDA part of GGA corr.  LDAOpt          .... PW91-LDA
 Gradients option       PostSCFGGA      .... off
 Hybrid DFT is turned on
   Fraction HF Exchange ScalHFX         ....  0.100000
   Scaling of DF-GGA-X  ScalDFX         ....  0.900000
   Scaling of DF-GGA-C  ScalDFC         ....  1.000000
   Scaling of DF-LDA-C  ScalLDAC        ....  1.000000
   Perturbative correction              ....  0.000000
   NL short-range parameter             ....  5.200000
 RI-approximation to the Coulomb term is turned on
   Number of AuxJ basis functions       .... 1187
   RIJ-COSX (HFX calculated with COS-X)).... on


General Settings:
 Integral files         IntName         .... rf_mecn_opt_TP_C6_P_B
 Hartree-Fock type      HFTyp           .... UHF
 Total Charge           Charge          ....    0
 Multiplicity           Mult            ....    2
 Number of Electrons    NEL             ....  191
 Basis Dimension        Dim             ....  750
 Nuclear Repulsion      ENuc            ....   2615.2927134851 Eh

Convergence Acceleration:
 AO-DIIS                CNVDIIS         .... on
   Start iteration      DIISMaxIt       ....     0
   Startup error        DIISStart       ....  0.200000
   # of expansion vecs  DIISMaxEq       ....     5
   Bias factor          DIISBfac        ....   1.050
   Max. coefficient     DIISMaxC        ....  10.000
 MO-DIIS                CNVKDIIS        .... off
 Trust-Rad. Augm. Hess. CNVTRAH         .... auto
   Auto Start mean grad. ratio tolernc. ....  1.125000
   Auto Start start iteration           ....    50
   Auto Start num. interpolation iter.  ....    10
   Max. Number of Micro iterations      ....    24
   Max. Number of Macro iterations      .... Maxiter - #DIIS iter
   Number of Davidson start vectors     ....     2
   Converg. threshold    (grad. norm)   ....   1.000e-05
   Grad. Scal. Fac. for Micro threshold ....   0.100
   Minimum threshold for Micro iter.    ....   1.000e-02
   NR start threshold (gradient norm)   ....   1.000e-04
   Initial trust radius                 ....   0.400
   Minimum AH scaling param. (alpha)    ....   1.000
   Maximum AH scaling param. (alpha)    .... 1000.000
   Quad. conv. algorithm                .... NR
   White noise on init. David. guess    .... on
   Maximum white noise                  ....   0.010
   Pseudo random numbers                .... off
   Inactive MOs                         .... canonical
   Orbital update algorithm             .... Taylor
   Preconditioner                       .... Diag
   Full preconditioner red. dimension   ....   250
 SOSCF                  CNVSOSCF        .... on
   Start iteration      SOSCFMaxIt      ....   150
   Startup grad/error   SOSCFStart      ....  0.001000
   Hessian update       SOSCFHessUp     .... L-BFGS
 Level Shifting         CNVShift        .... on
   Level shift para.    LevelShift      ....    0.2500
   Turn off err/grad.   ShiftErr        ....    0.0000
 Zerner damping         CNVZerner       .... off
 Static damping         CNVDamp         .... on
   Fraction old density DampFac         ....    0.8500
   Max. Damping (<1)    DampMax         ....    0.9800
   Min. Damping (>=0)   DampMin         ....    0.0000
   Turn off err/grad.   DampErr         ....    0.0300

SCF Procedure:
 Maximum # iterations   MaxIter         ....  1500
 SCF integral mode      SCFMode         .... Direct
   Integral package                     .... SHARK and LIBINT hybrid scheme
 Reset frequency        DirectResetFreq ....    20
 Integral Threshold     Thresh          ....  2.500e-11 Eh
 Primitive CutOff       TCut            ....  2.500e-12 Eh

Convergence Tolerance:
 Convergence Check Mode ConvCheckMode   .... Total+1el-Energy
 Convergence forced     ConvForced      .... 0
 Energy Change          TolE            ....  1.000e-08 Eh
 1-El. energy change                    ....  1.000e-05 Eh
 Orbital Gradient       TolG            ....  1.000e-05
 Orbital Rotation angle TolX            ....  1.000e-05
 DIIS Error             TolErr          ....  5.000e-07

------------------------------
INITIAL GUESS: MODEL POTENTIAL
------------------------------
Loading Hartree-Fock densities                     ... done
Calculating cut-offs                               ... done
Initializing the effective Hamiltonian             ... done
Setting up the integral package (SHARK)            ... done
Starting the Coulomb interaction                   ... done (   0.1 sec)
Making the grid                                    ... done (   0.5 sec)
Mapping shells                                     ... done
Starting the XC term evaluation                    ... done (   0.1 sec)
  promolecular density results
     # of electrons  =    190.999943354
     EX              =   -197.375165523
     EC              =     -6.682778639
     EX+EC           =   -204.057944162
Transforming the Hamiltonian                       ... done (   0.0 sec)
Diagonalizing the Hamiltonian                      ... done (   0.1 sec)
Back transforming the eigenvectors                 ... done (   0.0 sec)
Now organizing SCF variables                       ... done
                      ------------------
                      INITIAL GUESS DONE (   1.1 sec)
                      ------------------
             **** ENERGY FILE WAS UPDATED (rf_mecn_opt_TP_C6_P_B.en.tmp) ****
Finished Guess after   1.7 sec
Maximum memory used throughout the entire GUESS-calculation: 45.9 MB


           ************************************************************
           *        Program running with 20 parallel MPI-processes    *
           *              working on a common directory               *
           ************************************************************

-------------------------------------------------------------------------------------------
                                      ORCA LEAN-SCF
                              memory conserving SCF solver
-------------------------------------------------------------------------------------------

--------------------
CPCM SOLVATION MODEL
--------------------
CPCM parameters:
  Epsilon                                         ...      35.6880
  Refrac                                          ...       1.3442
  Rsolv                                           ...       1.3000
  Surface type                                    ... GAUSSIAN VDW
  Discretization scheme                           ... Constant charge density
    Threshold for H atoms                         ...       5.0000 (charges/Ang^2)
    Threshold for non-H atoms                     ...       5.0000 (charges/Ang^2)
  Epsilon function type                           ...         CPCM
Solvent:                                          ... ACETONITRILE
SMD-CDS solvent descriptors:
  Soln                                            ...       1.3442
  Soln25                                          ...       1.3416
  Sola                                            ...       0.0700
  Solb                                            ...       0.3200
  Solg                                            ...      41.2500
  Solc                                            ...       0.0000
  Solh                                            ...       0.0000
Radii:
  Scheme                                          ... Element-dependent radii
  Radius for C  used is    3.4960 Bohr (=   1.8500 Ang.)
  Radius for O  used is    4.0969 Bohr (=   2.1680 Ang.)
  Radius for F  used is    3.2692 Bohr (=   1.7300 Ang.)
  Radius for H  used is    2.2677 Bohr (=   1.2000 Ang.)
Calculating surface                               ...        done! (  0.0s)
Cavity surface points                             ...         2173
Cavity Volume                                     ...    2134.2679
Cavity Surface-area                               ...    1120.4463
Calculating surface distance matrix               ...        done! (  0.0s)
Performing Cholesky decomposition & store         ...        done! (  0.1s)
Overall time for CPCM initialization              ...                 0.1s

----------------------------------------D-I-I-S--------------------------------------------
Iteration    Energy (Eh)           Delta-E    RMSDP     MaxDP     DIISErr   Damp  Time(sec)
-------------------------------------------------------------------------------------------
               ***  Starting incremental Fock matrix formation  ***
    1    -1853.8450444117274856     0.00e+00  2.01e-04  1.64e-02  1.43e-01  0.850   6.4
Warning: op=1 Small HOMO/LUMO gap (   0.028) - skipping pre-diagonalization
         Will do a full diagonalization
    2    -1853.9880321000123331    -1.43e-01  1.89e-04  1.49e-02  8.60e-02  0.850   5.0
                               ***Turning on AO-DIIS***
    3    -1854.0568096722677183    -6.88e-02  7.92e-05  4.41e-03  4.89e-02  0.850   4.5
    4    -1854.0970298704064589    -4.02e-02  4.92e-05  4.95e-03  3.43e-02  0.850   4.3
    5    -1854.1255070618558420    -2.85e-02  3.96e-05  4.99e-03  2.68e-02  0.850   4.1
    6    -1854.1482197276850457    -2.27e-02  2.35e-04  3.14e-02  2.47e-02  0.000   4.2
    7    -1854.2706605974985905    -1.22e-01  4.22e-05  3.89e-03  5.13e-03  0.000   5.3
    8    -1854.2709458836848171    -2.85e-04  1.15e-05  1.35e-03  3.80e-03  0.000   4.2
    9    -1854.2710525180696095    -1.07e-04  4.77e-06  3.64e-04  1.03e-03  0.000   4.1
                              *** Initializing SOSCF ***
---------------------------------------S-O-S-C-F--------------------------------------
Iteration    Energy (Eh)           Delta-E    RMSDP     MaxDP     MaxGrad    Time(sec)
--------------------------------------------------------------------------------------
   10    -1854.2710701887931464    -1.77e-05  2.63e-06  3.23e-04  2.47e-04     4.0
               *** Restarting incremental Fock matrix formation ***
   11    -1854.2710797867553083    -9.60e-06  2.72e-06  2.61e-04  1.41e-04     7.5
   12    -1854.2710795366951970     2.50e-07  2.02e-06  1.90e-04  4.43e-04     4.8
   13    -1854.2710811465772167    -1.61e-06  1.59e-06  9.58e-05  1.96e-04     4.4
   14    -1854.2710807878124797     3.59e-07  8.60e-07  6.05e-05  1.25e-04     4.2
   15    -1854.2710814829774790    -6.95e-07  3.35e-07  2.72e-05  1.88e-05     4.0
   16    -1854.2710814872120864    -4.23e-09  1.72e-07  1.72e-05  2.64e-05     3.8
                 **** Energy Check signals convergence ****

               *****************************************************
               *                     SUCCESS                       *
               *           SCF CONVERGED AFTER  16 CYCLES          *
               *****************************************************

Recomputing exchange energy using gridx3       ... done (    8.511 sec)
Old exchange energy                            :    -19.880857839 Eh
New exchange energy                            :    -19.880867530 Eh
Exchange energy change after final integration :     -0.000009691 Eh
Total energy after final integration           :  -1854.271091178 Eh

SMD CDS free energy correction energy :                 3.65543     Kcal/mol
Total Energy after SMD CDS correction =             -1854.265265888 Eh
             **** ENERGY FILE WAS UPDATED (rf_mecn_opt_TP_C6_P_B.en.tmp) ****

----------------
TOTAL SCF ENERGY
----------------

Total Energy       :      -1854.26526588765228 Eh          -50457.12308 eV

Components:
Nuclear Repulsion  :       2615.29271348512566 Eh           71165.73273 eV
Electronic Energy  :      -4469.54642571847398 Eh         -121622.54141 eV
One Electron Energy:      -7782.66042844143885 Eh         -211776.95679 eV
Two Electron Energy:       3313.11400272296487 Eh           90154.41538 eV
CPCM Dielectric    :         -0.01736925386414 Eh              -0.47264 eV
SMD CDS (Gcds)     :          0.00582529051169 Eh               0.15851 eV

Virial components:
Potential Energy   :      -3701.13428272182955 Eh         -100712.98398 eV
Kinetic Energy     :       1846.86901683417705 Eh           50255.86091 eV
Virial Ratio       :          2.00400475019401

DFT components:
N(Alpha)           :       95.999982523969 electrons
N(Beta)            :       94.999979705768 electrons
N(Total)           :      190.999962229737 electrons
E(X)               :     -180.726742552332 Eh       
E(C)               :       -6.698006865949 Eh       
E(XC)              :     -187.424749418281 Eh       

CPCM Solvation Model Properties:
Surface-charge          :         -0.00883643068771
Corrected charge        :         -0.00000000000000
Outlying charge corr.   :          0.00000424520236 Eh               0.00012 eV
Free-energy (cav+disp)  :          0.00582529051169 Eh               0.15851 eV

---------------
SCF CONVERGENCE
---------------

  Last Energy change         ...    4.2346e-09  Tolerance :   1.0000e-08
  Last MAX-Density change    ...    1.7205e-05  Tolerance :   1.0000e-07
  Last RMS-Density change    ...    1.7220e-07  Tolerance :   5.0000e-09
  Last DIIS Error            ...    2.4721e-04  Tolerance :   5.0000e-07
  Last Orbital Gradient      ...    2.6421e-05  Tolerance :   1.0000e-05
  Last Orbital Rotation      ...    2.3198e-05  Tolerance :   1.0000e-05


----------------------
UHF SPIN CONTAMINATION
----------------------

Warning: in a DFT calculation there is little theoretical justification to 
         calculate <S**2> as in Hartree-Fock theory. We will do it anyways
         but you should keep in mind that the values have only limited relevance

Expectation value of <S**2>     :     0.753907
Ideal value S*(S+1) for S=0.5   :     0.750000
Deviation                       :     0.003907

----------------
ORBITAL ENERGIES
----------------
                 SPIN UP ORBITALS
  NO   OCC          E(Eh)            E(eV) 
   0   1.0000     -24.667035      -671.2241 
   1   1.0000     -24.660181      -671.0376 
   2   1.0000     -24.659210      -671.0112 
   3   1.0000     -24.658604      -670.9947 
   4   1.0000     -24.658117      -670.9815 
   5   1.0000     -24.658094      -670.9808 
   6   1.0000     -24.657815      -670.9732 
   7   1.0000     -24.657307      -670.9594 
   8   1.0000     -24.656581      -670.9397 
   9   1.0000     -24.656236      -670.9303 
  10   1.0000     -24.654258      -670.8765 
  11   1.0000     -24.653518      -670.8563 
  12   1.0000     -24.648872      -670.7299 
  13   1.0000     -24.648848      -670.7292 
  14   1.0000     -19.130396      -520.5645 
  15   1.0000     -19.098510      -519.6969 
  16   1.0000     -10.393787      -282.8293 
  17   1.0000     -10.344977      -281.5011 
  18   1.0000     -10.344775      -281.4956 
  19   1.0000     -10.342698      -281.4391 
  20   1.0000     -10.342682      -281.4387 
  21   1.0000     -10.341921      -281.4180 
  22   1.0000     -10.340249      -281.3725 
  23   1.0000     -10.282993      -279.8145 
  24   1.0000      -1.318751       -35.8850 
  25   1.0000      -1.296237       -35.2724 
  26   1.0000      -1.282166       -34.8895 
  27   1.0000      -1.275154       -34.6987 
  28   1.0000      -1.271365       -34.5956 
  29   1.0000      -1.256337       -34.1867 
  30   1.0000      -1.254574       -34.1387 
  31   1.0000      -1.232950       -33.5503 
  32   1.0000      -1.230497       -33.4835 
  33   1.0000      -1.229517       -33.4569 
  34   1.0000      -1.221919       -33.2501 
  35   1.0000      -1.220011       -33.1982 
  36   1.0000      -1.217707       -33.1355 
  37   1.0000      -1.204277       -32.7700 
  38   1.0000      -1.066596       -29.0235 
  39   1.0000      -0.979650       -26.6576 
  40   1.0000      -0.826409       -22.4877 
  41   1.0000      -0.810816       -22.0634 
  42   1.0000      -0.782161       -21.2837 
  43   1.0000      -0.750779       -20.4297 
  44   1.0000      -0.716608       -19.4999 
  45   1.0000      -0.683568       -18.6008 
  46   1.0000      -0.658417       -17.9164 
  47   1.0000      -0.647688       -17.6245 
  48   1.0000      -0.616300       -16.7704 
  49   1.0000      -0.611556       -16.6413 
  50   1.0000      -0.606106       -16.4930 
  51   1.0000      -0.604194       -16.4410 
  52   1.0000      -0.601079       -16.3562 
  53   1.0000      -0.598198       -16.2778 
  54   1.0000      -0.583115       -15.8674 
  55   1.0000      -0.577019       -15.7015 
  56   1.0000      -0.573185       -15.5972 
  57   1.0000      -0.569274       -15.4907 
  58   1.0000      -0.560749       -15.2588 
  59   1.0000      -0.556608       -15.1461 
  60   1.0000      -0.552583       -15.0366 
  61   1.0000      -0.544920       -14.8280 
  62   1.0000      -0.500743       -13.6259 
  63   1.0000      -0.484319       -13.1790 
  64   1.0000      -0.481026       -13.0894 
  65   1.0000      -0.477521       -12.9940 
  66   1.0000      -0.472486       -12.8570 
  67   1.0000      -0.472252       -12.8506 
  68   1.0000      -0.469636       -12.7795 
  69   1.0000      -0.466219       -12.6865 
  70   1.0000      -0.460581       -12.5330 
  71   1.0000      -0.455477       -12.3941 
  72   1.0000      -0.452944       -12.3252 
  73   1.0000      -0.447887       -12.1876 
  74   1.0000      -0.444861       -12.1053 
  75   1.0000      -0.439961       -11.9720 
  76   1.0000      -0.438347       -11.9280 
  77   1.0000      -0.434635       -11.8270 
  78   1.0000      -0.431635       -11.7454 
  79   1.0000      -0.429031       -11.6745 
  80   1.0000      -0.425431       -11.5766 
  81   1.0000      -0.420366       -11.4387 
  82   1.0000      -0.419204       -11.4071 
  83   1.0000      -0.416913       -11.3448 
  84   1.0000      -0.415356       -11.3024 
  85   1.0000      -0.413290       -11.2462 
  86   1.0000      -0.410643       -11.1742 
  87   1.0000      -0.408586       -11.1182 
  88   1.0000      -0.405423       -11.0321 
  89   1.0000      -0.393119       -10.6973 
  90   1.0000      -0.365991        -9.9591 
  91   1.0000      -0.344152        -9.3649 
  92   1.0000      -0.328144        -8.9293 
  93   1.0000      -0.325988        -8.8706 
  94   1.0000      -0.297924        -8.1069 
  95   1.0000      -0.290681        -7.9098 
  96   0.0000      -0.110541        -3.0080 
  97   0.0000      -0.029783        -0.8104 
  98   0.0000      -0.017329        -0.4716 
  99   0.0000       0.006016         0.1637 
 100   0.0000       0.015005         0.4083 
 101   0.0000       0.039183         1.0662 
 102   0.0000       0.062795         1.7087 
 103   0.0000       0.071404         1.9430 
 104   0.0000       0.090951         2.4749 
 105   0.0000       0.096523         2.6265 
 106   0.0000       0.100626         2.7382 

                 SPIN DOWN ORBITALS
  NO   OCC          E(Eh)            E(eV) 
   0   1.0000     -24.662811      -671.1092 
   1   1.0000     -24.660118      -671.0359 
   2   1.0000     -24.659208      -671.0112 
   3   1.0000     -24.658634      -670.9955 
   4   1.0000     -24.657782      -670.9724 
   5   1.0000     -24.657282      -670.9588 
   6   1.0000     -24.657040      -670.9522 
   7   1.0000     -24.656703      -670.9430 
   8   1.0000     -24.656579      -670.9396 
   9   1.0000     -24.656207      -670.9295 
  10   1.0000     -24.654256      -670.8764 
  11   1.0000     -24.653497      -670.8558 
  12   1.0000     -24.648871      -670.7299 
  13   1.0000     -24.648848      -670.7292 
  14   1.0000     -19.130396      -520.5645 
  15   1.0000     -19.098509      -519.6969 
  16   1.0000     -10.393857      -282.8312 
  17   1.0000     -10.344980      -281.5012 
  18   1.0000     -10.344556      -281.4897 
  19   1.0000     -10.342698      -281.4391 
  20   1.0000     -10.342497      -281.4337 
  21   1.0000     -10.341904      -281.4175 
  22   1.0000     -10.340250      -281.3725 
  23   1.0000     -10.266665      -279.3702 
  24   1.0000      -1.318615       -35.8813 
  25   1.0000      -1.295657       -35.2566 
  26   1.0000      -1.280844       -34.8535 
  27   1.0000      -1.274341       -34.6766 
  28   1.0000      -1.270955       -34.5844 
  29   1.0000      -1.256324       -34.1863 
  30   1.0000      -1.247256       -33.9396 
  31   1.0000      -1.232603       -33.5408 
  32   1.0000      -1.230093       -33.4725 
  33   1.0000      -1.229191       -33.4480 
  34   1.0000      -1.221059       -33.2267 
  35   1.0000      -1.219045       -33.1719 
  36   1.0000      -1.217430       -33.1280 
  37   1.0000      -1.204276       -32.7700 
  38   1.0000      -1.066596       -29.0235 
  39   1.0000      -0.979649       -26.6576 
  40   1.0000      -0.821599       -22.3568 
  41   1.0000      -0.804081       -21.8802 
  42   1.0000      -0.781548       -21.2670 
  43   1.0000      -0.746245       -20.3064 
  44   1.0000      -0.713497       -19.4153 
  45   1.0000      -0.682651       -18.5759 
  46   1.0000      -0.656252       -17.8575 
  47   1.0000      -0.645209       -17.5570 
  48   1.0000      -0.613176       -16.6854 
  49   1.0000      -0.610723       -16.6186 
  50   1.0000      -0.605244       -16.4695 
  51   1.0000      -0.603274       -16.4159 
  52   1.0000      -0.600661       -16.3448 
  53   1.0000      -0.597130       -16.2487 
  54   1.0000      -0.581840       -15.8327 
  55   1.0000      -0.575362       -15.6564 
  56   1.0000      -0.572062       -15.5666 
  57   1.0000      -0.566832       -15.4243 
  58   1.0000      -0.559493       -15.2246 
  59   1.0000      -0.552384       -15.0311 
  60   1.0000      -0.550662       -14.9843 
  61   1.0000      -0.544571       -14.8185 
  62   1.0000      -0.483867       -13.1667 
  63   1.0000      -0.482424       -13.1274 
  64   1.0000      -0.478754       -13.0276 
  65   1.0000      -0.476433       -12.9644 
  66   1.0000      -0.472197       -12.8491 
  67   1.0000      -0.469719       -12.7817 
  68   1.0000      -0.466542       -12.6953 
  69   1.0000      -0.464906       -12.6507 
  70   1.0000      -0.460262       -12.5244 
  71   1.0000      -0.452343       -12.3089 
  72   1.0000      -0.451156       -12.2766 
  73   1.0000      -0.447310       -12.1719 
  74   1.0000      -0.442817       -12.0497 
  75   1.0000      -0.439838       -11.9686 
  76   1.0000      -0.435038       -11.8380 
  77   1.0000      -0.433540       -11.7972 
  78   1.0000      -0.429420       -11.6851 
  79   1.0000      -0.427520       -11.6334 
  80   1.0000      -0.424708       -11.5569 
  81   1.0000      -0.419851       -11.4247 
  82   1.0000      -0.418718       -11.3939 
  83   1.0000      -0.416639       -11.3373 
  84   1.0000      -0.415177       -11.2975 
  85   1.0000      -0.412972       -11.2375 
  86   1.0000      -0.410182       -11.1616 
  87   1.0000      -0.408408       -11.1134 
  88   1.0000      -0.404493       -11.0068 
  89   1.0000      -0.391606       -10.6562 
  90   1.0000      -0.364194        -9.9102 
  91   1.0000      -0.343098        -9.3362 
  92   1.0000      -0.326459        -8.8834 
  93   1.0000      -0.325842        -8.8666 
  94   1.0000      -0.297879        -8.1057 
  95   0.0000      -0.150824        -4.1041 
  96   0.0000      -0.110476        -3.0062 
  97   0.0000      -0.028143        -0.7658 
  98   0.0000      -0.013428        -0.3654 
  99   0.0000       0.009483         0.2581 
 100   0.0000       0.019248         0.5238 
 101   0.0000       0.046409         1.2628 
 102   0.0000       0.066235         1.8024 
 103   0.0000       0.074115         2.0168 
 104   0.0000       0.092727         2.5232 
 105   0.0000       0.099093         2.6965 
*Only the first 10 virtual orbitals were printed.

                    ********************************
                    * MULLIKEN POPULATION ANALYSIS *
                    ********************************

--------------------------------------------
MULLIKEN ATOMIC CHARGES AND SPIN POPULATIONS
--------------------------------------------
   0 C :    0.339521   -0.000034
   1 O :   -0.428497    0.000008
   2 O :   -0.367711    0.000022
   3 C :    0.346009   -0.000081
   4 C :    0.302205    0.000443
   5 C :    0.301398    0.000554
   6 C :    0.350890    0.007236
   7 C :    0.069256    0.846726
   8 C :    0.325500    0.014661
   9 C :    0.408170   -0.005843
  10 F :   -0.163757    0.000003
  11 F :   -0.165304   -0.000003
  12 F :   -0.152471   -0.000026
  13 F :   -0.157182    0.000001
  14 F :   -0.153088    0.000360
  15 F :   -0.156317    0.000225
  16 F :   -0.155394    0.000783
  17 F :   -0.148253    0.023490
  18 F :   -0.137983    0.082146
  19 F :   -0.146862    0.028882
  20 F :   -0.152368    0.000015
  21 F :   -0.139498    0.000829
  22 F :   -0.135468   -0.000607
  23 F :   -0.136674    0.000213
  24 H :    0.453877   -0.000001
Sum of atomic charges         :    0.0000000
Sum of atomic spin populations:    1.0000000

-----------------------------------------------------
MULLIKEN REDUCED ORBITAL CHARGES AND SPIN POPULATIONS
-----------------------------------------------------
CHARGE
  0 C s       :     3.173372  s :     3.173372
      pz      :     0.790637  p :     2.253386
      px      :     0.801331
      py      :     0.661418
      dz2     :     0.016476  d :     0.215666
      dxz     :     0.015274
      dyz     :     0.059831
      dx2y2   :     0.054560
      dxy     :     0.069525
      f0      :     0.001777  f :     0.018055
      f+1     :     0.001069
      f-1     :     0.002333
      f+2     :     0.002564
      f-2     :     0.001953
      f+3     :     0.003872
      f-3     :     0.004488

  1 O s       :     3.667423  s :     3.667423
      pz      :     1.716460  p :     4.744313
      px      :     1.684914
      py      :     1.342940
      dz2     :     0.001650  d :     0.013920
      dxz     :     0.001192
      dyz     :     0.003042
      dx2y2   :     0.003131
      dxy     :     0.004905
      f0      :     0.000275  f :     0.002841
      f+1     :     0.000128
      f-1     :     0.000381
      f+2     :     0.000245
      f-2     :     0.000431
      f+3     :     0.000941
      f-3     :     0.000440

  2 O s       :     3.884541  s :     3.884541
      pz      :     1.533463  p :     4.457980
      px      :     1.688117
      py      :     1.236400
      dz2     :     0.003113  d :     0.023875
      dxz     :     0.000327
      dyz     :     0.006324
      dx2y2   :     0.008802
      dxy     :     0.005309
      f0      :     0.000118  f :     0.001315
      f+1     :     0.000012
      f-1     :     0.000225
      f+2     :     0.000230
      f-2     :     0.000030
      f+3     :     0.000297
      f-3     :     0.000404

  3 C s       :     3.094779  s :     3.094779
      pz      :     0.687267  p :     2.259802
      px      :     0.920502
      py      :     0.652033
      dz2     :     0.048344  d :     0.273733
      dxz     :     0.055428
      dyz     :     0.067744
      dx2y2   :     0.046892
      dxy     :     0.055325
      f0      :     0.005381  f :     0.025678
      f+1     :     0.003637
      f-1     :     0.003960
      f+2     :     0.003696
      f-2     :     0.002116
      f+3     :     0.003832
      f-3     :     0.003056

  4 C s       :     3.108444  s :     3.108444
      pz      :     0.618886  p :     2.265289
      px      :     0.938362
      py      :     0.708041
      dz2     :     0.063502  d :     0.296130
      dxz     :     0.061970
      dyz     :     0.070865
      dx2y2   :     0.037104
      dxy     :     0.062688
      f0      :     0.003621  f :     0.027932
      f+1     :     0.004978
      f-1     :     0.008102
      f+2     :     0.002407
      f-2     :     0.002708
      f+3     :     0.003616
      f-3     :     0.002500

  5 C s       :     3.137559  s :     3.137559
      pz      :     0.594980  p :     2.230557
      px      :     0.912542
      py      :     0.723036
      dz2     :     0.077503  d :     0.302332
      dxz     :     0.063959
      dyz     :     0.061137
      dx2y2   :     0.036674
      dxy     :     0.063059
      f0      :     0.005033  f :     0.028154
      f+1     :     0.004438
      f-1     :     0.006127
      f+2     :     0.003336
      f-2     :     0.004393
      f+3     :     0.002642
      f-3     :     0.002184

  6 C s       :     3.099164  s :     3.099164
      pz      :     0.585173  p :     2.214167
      px      :     0.917253
      py      :     0.711741
      dz2     :     0.081699  d :     0.307568
      dxz     :     0.065555
      dyz     :     0.055114
      dx2y2   :     0.039262
      dxy     :     0.065938
      f0      :     0.006251  f :     0.028212
      f+1     :     0.003957
      f-1     :     0.004291
      f+2     :     0.004246
      f-2     :     0.005276
      f+3     :     0.002251
      f-3     :     0.001941

  7 C s       :     3.331841  s :     3.331841
      pz      :     0.671103  p :     2.432580
      px      :     0.913008
      py      :     0.848469
      dz2     :     0.036429  d :     0.150477
      dxz     :     0.039233
      dyz     :     0.031563
      dx2y2   :     0.016758
      dxy     :     0.026493
      f0      :     0.003640  f :     0.015847
      f+1     :     0.004166
      f-1     :     0.002830
      f+2     :     0.001173
      f-2     :     0.001609
      f+3     :     0.001231
      f-3     :     0.001198

  8 C s       :     3.089015  s :     3.089015
      pz      :     0.628485  p :     2.259965
      px      :     0.937703
      py      :     0.693777
      dz2     :     0.060567  d :     0.297312
      dxz     :     0.063245
      dyz     :     0.071270
      dx2y2   :     0.038661
      dxy     :     0.063569
      f0      :     0.003637  f :     0.028208
      f+1     :     0.005038
      f-1     :     0.008287
      f+2     :     0.002545
      f-2     :     0.002396
      f+3     :     0.003864
      f-3     :     0.002442

  9 C s       :     3.024357  s :     3.024357
      pz      :     0.666579  p :     2.168321
      px      :     0.823169
      py      :     0.678573
      dz2     :     0.067260  d :     0.359085
      dxz     :     0.070916
      dyz     :     0.087432
      dx2y2   :     0.064769
      dxy     :     0.068707
      f0      :     0.004468  f :     0.040067
      f+1     :     0.008011
      f-1     :     0.008926
      f+2     :     0.004485
      f-2     :     0.003162
      f+3     :     0.007542
      f-3     :     0.003474

 10 F s       :     3.922280  s :     3.922280
      pz      :     1.891222  p :     5.226291
      px      :     1.882053
      py      :     1.453016
      dz2     :     0.002050  d :     0.014553
      dxz     :     0.000304
      dyz     :     0.002790
      dx2y2   :     0.005520
      dxy     :     0.003889
      f0      :     0.000050  f :     0.000633
      f+1     :     0.000015
      f-1     :     0.000127
      f+2     :     0.000071
      f-2     :     0.000018
      f+3     :     0.000169
      f-3     :     0.000182

 11 F s       :     3.921790  s :     3.921790
      pz      :     1.468336  p :     5.228810
      px      :     1.897678
      py      :     1.862796
      dz2     :     0.006366  d :     0.014081
      dxz     :     0.003316
      dyz     :     0.003533
      dx2y2   :     0.000430
      dxy     :     0.000437
      f0      :     0.000225  f :     0.000623
      f+1     :     0.000135
      f-1     :     0.000182
      f+2     :     0.000037
      f-2     :     0.000038
      f+3     :     0.000003
      f-3     :     0.000003

 12 F s       :     3.918553  s :     3.918553
      pz      :     1.804351  p :     5.217494
      px      :     1.900160
      py      :     1.512983
      dz2     :     0.002001  d :     0.015725
      dxz     :     0.000778
      dyz     :     0.005068
      dx2y2   :     0.004676
      dxy     :     0.003201
      f0      :     0.000079  f :     0.000699
      f+1     :     0.000004
      f-1     :     0.000122
      f+2     :     0.000187
      f-2     :     0.000063
      f+3     :     0.000107
      f-3     :     0.000137

 13 F s       :     3.921204  s :     3.921204
      pz      :     1.440741  p :     5.219726
      px      :     1.902378
      py      :     1.876606
      dz2     :     0.008015  d :     0.015564
      dxz     :     0.003593
      dyz     :     0.003399
      dx2y2   :     0.000274
      dxy     :     0.000284
      f0      :     0.000344  f :     0.000688
      f+1     :     0.000152
      f-1     :     0.000162
      f+2     :     0.000011
      f-2     :     0.000017
      f+3     :     0.000001
      f-3     :     0.000001

 14 F s       :     3.918642  s :     3.918642
      pz      :     1.700363  p :     5.217933
      px      :     1.899844
      py      :     1.617726
      dz2     :     0.002573  d :     0.015812
      dxz     :     0.001553
      dyz     :     0.006229
      dx2y2   :     0.002999
      dxy     :     0.002457
      f0      :     0.000078  f :     0.000702
      f+1     :     0.000013
      f-1     :     0.000189
      f+2     :     0.000196
      f-2     :     0.000103
      f+3     :     0.000059
      f-3     :     0.000063

 15 F s       :     3.918750  s :     3.918750
      pz      :     1.495186  p :     5.221114
      px      :     1.904197
      py      :     1.821731
      dz2     :     0.006452  d :     0.015754
      dxz     :     0.003182
      dyz     :     0.004734
      dx2y2   :     0.000612
      dxy     :     0.000774
      f0      :     0.000233  f :     0.000699
      f+1     :     0.000107
      f-1     :     0.000241
      f+2     :     0.000052
      f-2     :     0.000058
      f+3     :     0.000005
      f-3     :     0.000004

 16 F s       :     3.918785  s :     3.918785
      pz      :     1.586018  p :     5.220121
      px      :     1.898995
      py      :     1.735108
      dz2     :     0.004304  d :     0.015788
      dxz     :     0.002516
      dyz     :     0.005981
      dx2y2   :     0.001477
      dxy     :     0.001508
      f0      :     0.000117  f :     0.000701
      f+1     :     0.000055
      f-1     :     0.000264
      f+2     :     0.000126
      f-2     :     0.000099
      f+3     :     0.000021
      f-3     :     0.000018

 17 F s       :     3.918583  s :     3.918583
      pz      :     1.599130  p :     5.213198
      px      :     1.896830
      py      :     1.717238
      dz2     :     0.004068  d :     0.015772
      dxz     :     0.002400
      dyz     :     0.006088
      dx2y2   :     0.001611
      dxy     :     0.001604
      f0      :     0.000110  f :     0.000699
      f+1     :     0.000049
      f-1     :     0.000257
      f+2     :     0.000136
      f-2     :     0.000102
      f+3     :     0.000024
      f-3     :     0.000022

 18 F s       :     3.924197  s :     3.924197
      pz      :     1.484491  p :     5.196968
      px      :     1.905822
      py      :     1.806655
      dz2     :     0.006755  d :     0.016142
      dxz     :     0.003166
      dyz     :     0.004902
      dx2y2   :     0.000663
      dxy     :     0.000656
      f0      :     0.000239  f :     0.000677
      f+1     :     0.000106
      f-1     :     0.000219
      f+2     :     0.000055
      f-2     :     0.000050
      f+3     :     0.000004
      f-3     :     0.000004

 19 F s       :     3.917762  s :     3.917762
      pz      :     1.815482  p :     5.212751
      px      :     1.892885
      py      :     1.504384
      dz2     :     0.002007  d :     0.015655
      dxz     :     0.000636
      dyz     :     0.004853
      dx2y2   :     0.004820
      dxy     :     0.003339
      f0      :     0.000078  f :     0.000694
      f+1     :     0.000004
      f-1     :     0.000119
      f+2     :     0.000180
      f-2     :     0.000055
      f+3     :     0.000112
      f-3     :     0.000145

 20 F s       :     3.915602  s :     3.915602
      pz      :     1.438856  p :     5.220239
      px      :     1.899686
      py      :     1.881697
      dz2     :     0.008322  d :     0.015814
      dxz     :     0.003763
      dyz     :     0.003330
      dx2y2   :     0.000186
      dxy     :     0.000214
      f0      :     0.000367  f :     0.000712
      f+1     :     0.000165
      f-1     :     0.000157
      f+2     :     0.000009
      f-2     :     0.000013
      f+3     :     0.000001
      f-3     :     0.000001

 21 F s       :     3.913092  s :     3.913092
      pz      :     1.854843  p :     5.209689
      px      :     1.888933
      py      :     1.465914
[...]

 15 F s       :     0.000108  s :     0.000108
      pz      :    -0.000485  p :     0.000282
      px      :    -0.000210
      py      :     0.000976
      dz2     :     0.000027  d :     0.000181
      dxz     :     0.000021
      dyz     :     0.000062
      dx2y2   :     0.000072
      dxy     :    -0.000001
      f0      :     0.000001  f :     0.000011
      f+1     :     0.000003
      f-1     :     0.000003
      f+2     :     0.000004
      f-2     :    -0.000000
      f+3     :     0.000000
      f-3     :     0.000000

 16 F s       :     0.000698  s :     0.000698
      pz      :     0.005803  p :     0.005878
      px      :    -0.000064
      py      :     0.000139
      dz2     :    -0.000033  d :    -0.000159
      dxz     :    -0.000027
      dyz     :     0.000046
      dx2y2   :    -0.000014
      dxy     :    -0.000131
      f0      :    -0.000000  f :    -0.000010
      f+1     :     0.000001
      f-1     :    -0.000001
      f+2     :    -0.000000
      f-2     :    -0.000005
      f+3     :    -0.000004
      f-3     :    -0.000000

 17 F s       :     0.001114  s :     0.001114
      pz      :     0.007772  p :     0.012729
      px      :     0.004934
      py      :     0.000023
      dz2     :    -0.000047  d :    -0.000066
      dxz     :    -0.000039
      dyz     :     0.000023
      dx2y2   :     0.000031
      dxy     :    -0.000033
      f0      :    -0.000004  f :    -0.000005
      f+1     :    -0.000000
      f-1     :     0.000001
      f+2     :    -0.000000
      f-2     :    -0.000002
      f+3     :     0.000001
      f-3     :    -0.000000

 18 F s       :     0.002358  s :     0.002358
      pz      :     0.012673  p :     0.097292
      px      :     0.007826
      py      :     0.076793
      dz2     :     0.004016  d :     0.010289
      dxz     :     0.001127
      dyz     :     0.002922
      dx2y2   :     0.002105
      dxy     :     0.000120
      f0      :     0.000241  f :     0.000542
      f+1     :     0.000081
      f-1     :     0.000011
      f+2     :     0.000170
      f-2     :     0.000005
      f+3     :     0.000011
      f-3     :     0.000022

 19 F s       :     0.002145  s :     0.002145
      pz      :     0.007847  p :     0.032556
      px      :     0.012104
      py      :     0.012606
      dz2     :     0.000050  d :     0.000189
      dxz     :     0.000087
      dyz     :     0.000026
      dx2y2   :    -0.000038
      dxy     :     0.000064
      f0      :     0.000001  f :     0.000005
      f+1     :    -0.000000
      f-1     :     0.000003
      f+2     :    -0.000000
      f-2     :     0.000001
      f+3     :     0.000004
      f-3     :    -0.000004

 20 F s       :     0.000579  s :     0.000579
      pz      :     0.006655  p :     0.013058
      px      :     0.001126
      py      :     0.005277
      dz2     :    -0.000058  d :    -0.000025
      dxz     :    -0.000054
      dyz     :     0.000094
      dx2y2   :    -0.000009
      dxy     :     0.000003
      f0      :    -0.000005  f :    -0.000006
      f+1     :    -0.000003
      f-1     :     0.000003
      f+2     :    -0.000001
      f-2     :    -0.000000
      f+3     :    -0.000000
      f-3     :     0.000000

 21 F s       :     0.000090  s :     0.000090
      pz      :    -0.000039  p :     0.000944
      px      :     0.000913
      py      :     0.000070
      dz2     :     0.000008  d :     0.000026
      dxz     :    -0.000001
      dyz     :     0.000001
      dx2y2   :     0.000018
      dxy     :     0.000000
      f0      :     0.000000  f :     0.000001
      f+1     :     0.000000
      f-1     :    -0.000000
      f+2     :    -0.000000
      f-2     :     0.000000
      f+3     :    -0.000000
      f-3     :     0.000001

 22 F s       :     0.000011  s :     0.000011
      pz      :    -0.000017  p :     0.000212
      px      :    -0.000109
      py      :     0.000337
      dz2     :     0.000001  d :     0.000012
      dxz     :     0.000003
      dyz     :     0.000009
      dx2y2   :    -0.000001
      dxy     :     0.000000
      f0      :     0.000000  f :     0.000000
      f+1     :     0.000000
      f-1     :     0.000000
      f+2     :     0.000000
      f-2     :     0.000000
      f+3     :    -0.000000
      f-3     :    -0.000000

 23 F s       :     0.000053  s :     0.000053
      pz      :     0.000075  p :     0.001434
      px      :     0.000664
      py      :     0.000695
      dz2     :     0.000003  d :     0.000042
      dxz     :     0.000016
      dyz     :     0.000013
      dx2y2   :     0.000007
      dxy     :     0.000003
      f0      :     0.000000  f :     0.000002
      f+1     :     0.000000
      f-1     :     0.000001
      f+2     :     0.000001
      f-2     :     0.000000
      f+3     :     0.000000
      f-3     :     0.000000

 24 H s       :     0.000032  s :     0.000032
      pz      :     0.000004  p :     0.000002
      px      :    -0.000001
      py      :    -0.000001



                      *****************************
                      * MAYER POPULATION ANALYSIS *
                      *****************************

  NA   - Mulliken gross atomic population
  ZA   - Total nuclear charge
  QA   - Mulliken gross atomic charge
  VA   - Mayer's total valence
  BVA  - Mayer's bonded valence
  FA   - Mayer's free valence

  ATOM       NA         ZA         QA         VA         BVA        FA
  0 C      5.7756     6.0000     0.2244     4.4065     4.4065     0.0000
  1 O      8.3382     8.0000    -0.3382     2.1978     2.1978     0.0000
  2 O      8.2888     8.0000    -0.2888     2.2134     2.2134     0.0000
  3 C      5.6257     6.0000     0.3743     4.1759     4.1759     0.0000
  4 C      5.7341     6.0000     0.2659     4.2003     4.2003     0.0000
  5 C      5.7240     6.0000     0.2760     4.2116     4.2108     0.0007
  6 C      5.6550     6.0000     0.3450     4.2818     4.2788     0.0030
  7 C      5.8778     6.0000     0.1222     3.9273     3.3543     0.5730
  8 C      5.6858     6.0000     0.3142     4.2620     4.2586     0.0033
  9 C      5.5897     6.0000     0.4103     4.5581     4.5581     0.0000
 10 F      9.1593     9.0000    -0.1593     1.1611     1.1611     0.0000
 11 F      9.1555     9.0000    -0.1555     1.1690     1.1690     0.0000
 12 F      9.1526     9.0000    -0.1526     1.1771     1.1771     0.0000
 13 F      9.1558     9.0000    -0.1558     1.1714     1.1714     0.0000
 14 F      9.1548     9.0000    -0.1548     1.1731     1.1731     0.0000
 15 F      9.1543     9.0000    -0.1543     1.1770     1.1770     0.0000
 16 F      9.1520     9.0000    -0.1520     1.1695     1.1694     0.0001
 17 F      9.1547     9.0000    -0.1547     1.1657     1.1654     0.0002
 18 F      9.1237     9.0000    -0.1237     1.2271     1.2151     0.0120
 19 F      9.1605     9.0000    -0.1605     1.1490     1.1478     0.0012
 20 F      9.1539     9.0000    -0.1539     1.1600     1.1598     0.0002
 21 F      9.1396     9.0000    -0.1396     1.1833     1.1833     0.0000
 22 F      9.1339     9.0000    -0.1339     1.1921     1.1921     0.0000
 23 F      9.1369     9.0000    -0.1369     1.1857     1.1857     0.0000
 24 H      0.6177     1.0000     0.3823     0.8789     0.8789     0.0000

  Mayer bond orders larger than 0.100000
B(  0-C ,  1-O ) :   1.3133 B(  0-C ,  2-O ) :   2.0716 B(  0-C ,  3-C ) :   0.9070 
B(  1-O , 24-H ) :   0.8195 B(  3-C ,  4-C ) :   0.9549 B(  3-C , 10-F ) :   1.1002 
B(  3-C , 11-F ) :   1.1180 B(  4-C ,  5-C ) :   0.9419 B(  4-C , 12-F ) :   1.0958 
B(  4-C , 13-F ) :   1.0865 B(  5-C ,  6-C ) :   0.9419 B(  5-C , 14-F ) :   1.0907 
B(  5-C , 15-F ) :   1.0940 B(  6-C ,  7-C ) :   1.0301 B(  6-C , 16-F ) :   1.1028 
B(  6-C , 17-F ) :   1.0851 B(  7-C ,  8-C ) :   1.0397 B(  7-C , 18-F ) :   1.1480 
B(  8-C ,  9-C ) :   0.9670 B(  8-C , 19-F ) :   1.0862 B(  8-C , 20-F ) :   1.0847 
B(  9-C , 21-F ) :   1.1604 B(  9-C , 22-F ) :   1.1644 B(  9-C , 23-F ) :   1.1624 


-------
TIMINGS
-------

Total SCF time: 0 days 0 hours 0 min 30 sec 

Total time                  ....      30.103 sec
Sum of individual times     ....      29.176 sec  ( 96.9%)

SCF preparation             ....       1.288 sec  (  4.3%)
Fock matrix formation       ....      24.724 sec  ( 82.1%)
  Startup                   ....       0.139 sec  (  0.6% of F)
  Split-RI-J                ....       1.191 sec  (  4.8% of F)
  Chain of spheres X        ....      17.373 sec  ( 70.3% of F)
  XC integration            ....       4.749 sec  ( 19.2% of F)
    Basis function eval.    ....       0.257 sec  (  5.4% of XC)
    Density eval.           ....       1.395 sec  ( 29.4% of XC)
    XC-Functional eval.     ....       0.050 sec  (  1.1% of XC)
    XC-Potential eval.      ....       1.565 sec  ( 32.9% of XC)
  CPCM terms                ....       1.035 sec  (  4.2% of F)
Diagonalization             ....       0.000 sec  (  0.0%)
Density matrix formation    ....       0.216 sec  (  0.7%)
Total Energy calculation    ....       0.141 sec  (  0.5%)
Population analysis         ....       0.568 sec  (  1.9%)
Orbital Transformation      ....       0.401 sec  (  1.3%)
Orbital Orthonormalization  ....       0.000 sec  (  0.0%)
DIIS solution               ....       0.548 sec  (  1.8%)
SOSCF solution              ....       1.290 sec  (  4.3%)
Finished LeanSCF after  30.7 sec

Maximum memory used throughout the entire LEANSCF-calculation: 111.5 MB


-------------------------------------------------------------------------------
                          DFT DISPERSION CORRECTION                            
                                                                               
                              DFTD3 V3.1  Rev 1                                
                          USING Becke-Johnson damping                          
-------------------------------------------------------------------------------
The TPSSH functional is recognized
Active option DFTDOPT                   ...         4   

molecular C6(AA) [au] = 6514.898410 


            DFT-D V3
 parameters
 s6 scaling factor         :     1.0000 
 a1 scaling factor         :     0.4529 
 s8 scaling factor         :     2.2382 
 a2 scaling factor         :     4.6550 
 ad hoc parameters k1-k3   :    16.0000     1.3333    -4.0000 

 Edisp/kcal,au: -18.619209112186  -0.029671595244 
 E6   /kcal   :  -9.027610331 
 E8   /kcal   :  -9.591598782 
 % E8         :  51.514533855 

-------------------------   ----------------
Dispersion correction           -0.029671595
-------------------------   ----------------


-------------------------   --------------------
FINAL SINGLE POINT ENERGY     -1854.409450091849
-------------------------   --------------------

                                *** OPTIMIZATION RUN DONE ***



           ************************************************************
           *        Program running with 20 parallel MPI-processes    *
           *              working on a common directory               *
           ************************************************************

------------------------------------------------------------------------------
                              ORCA PROPERTY CALCULATIONS
------------------------------------------------------------------------------

GBWName                                 ... rf_mecn_opt_TP_C6_P_B.gbw
Number of atoms                         ...     25
Number of basis functions               ...    750
Max core memory                         ...   8000 MB

Electric properties:
Dipole moment                           ... YES
Quadrupole moment                       ...  NO
Static polarizability (Dipole/Dipole)   ...  NO
Static polarizability (Dipole/Quad.)    ...  NO
Static polarizability (Quad./Quad.)     ...  NO
Static polarizability (Velocity)        ...  NO

Atomic electric properties:
Dipole moment                           ...  NO
Quadrupole moment                       ...  NO
Static polarizability                   ...  NO

Choice of electric origin               ... Center of mass
Position of electric origin             ...     0.067762     0.011046    -0.077872

General magnetic properties:
Magnetizability                         ...  NO

EPR properties:
g-Tensor (aka g-matrix)                 ...  NO
Zero-Field splitting spin-orbit         ...  NO
Zero-field splitting spin-spin          ...  NO
Hyperfine couplings                     ...  NO (   0 nuclei)
Quadrupole couplings                    ...  NO (   0 nuclei)
Contact density                         ...  NO (   0 nuclei)

NMR properties:
Chemical shifts                         ...  NO (   0 nuclei)
Spin-rotation constants                 ...  NO (   0 nuclei)
Spin-spin couplings                     ...  NO (   0 nuclei,    0 pairs)

Choice of magnetic origin               ... GIAO
Position of magnetic origin             ...     0.000000     0.000000     0.000000

Properties with geometric perturbations:
SCF Hessian                             ...  NO
IR spectrum                             ...  NO
VCD spectrum                            ...  NO
X-ray spectroscopy properties:
SCF XES/XAS/RIXS spectra                ...  NO


-------------
DIPOLE MOMENT
-------------

Method             : SCF
Type of density    : Electron Density
Multiplicity       :   2
Irrep              :   0
Energy             : -1854.3797784966052404 Eh
Relativity type    : 
Basis              : AO
                                X                 Y                 Z
Electronic contribution:    -14.204711689       0.642614824       0.517737683
Nuclear contribution   :     14.927401337      -1.372606803      -1.398051979
                        -----------------------------------------
Total Dipole Moment    :      0.722689648      -0.729991978      -0.880314296
                        -----------------------------------------
Magnitude (a.u.)       :      1.352819972
Magnitude (Debye)      :      3.438595099



--------------------
Rotational spectrum 
--------------------
 
Rotational constants in cm-1:             0.020123             0.004045             0.004001 
Rotational constants in MHz :           603.258643           121.268821           119.936814 

Dipole components along the rotational axes: 
x,y,z [a.u.] :     0.745049    -0.150225    -1.119132 
x,y,z [Debye]:     1.893764    -0.381843    -2.844607 

 

Dipole moment calculation done in   0.1 sec 

Maximum memory used throughout the entire PROP-calculation: 59.8 MB

--------------------------------
SUGGESTED CITATIONS FOR THIS RUN
--------------------------------

Below you find a list of papers that are relevant to this ORCA run
We neither can nor want to force you to cite these papers, but we appreciate if you do
You receive ORCA, which is the product of decades of hard work by many enthusiastic individuals, for free
The only thing we kindly ask in return is that you cite our papers,
We deeply appreciate it, if you show your appreciation for ORCA by not just citing the generic ORCA reference.

Please note that relegating all ORCA citations to the supporting information does *not* help us.
SI sections are not indexed - citations you put there will not count into any citation statistics
But we need these citations in order to attract the funding resources that allow us to do what we are doing

Therefore, if you are a happy ORCA user, please consider citing a few of the papers listed below in the main body of your paper

In addition to the list printed below, the program has created the file rf_mecn_opt_TP_C6_P_B.bibtex that contains the list in bibtex format
You can import this file easily into all common literature databanks and citation aid programs


List of essential papers. We consider these as the minimum necessary citations

  1. Neese,F.
     Software update: the ORCA program system, version 5.0
     WIRES Comput. Molec. Sci., 2022 12(1)e1606
     doi.org/10.1002/wcms.1606

List of papers to cite with high priority. The work reported in these papers was absolutely
necessary for this run to complete.
Our perspective: the developers of density functionals and basis sets usually get cited in chemistry papers
Good! But without the algorithms to do something with them, the functionals or basis sets would not do anything.
Hence, in our opinion, the algorithm design and method developments papers are equally worthy of getting cited

  1. Neese,F.
     An improvement of the resolution of the identity approximation for the formation of the Coulomb matrix
     J. Comp. Chem., 2003 24(14)1740-1747
     doi.org/10.1002/jcc.10318
  2. Neese,F.; Wennmohs,F.; Hansen,A.; Becker,U.
     Efficient, approximate and parallel Hartree-Fock and hybrid DFT calculations. A 'chain-of-spheres' algorithm for the Hartree-Fock exchange
     Chem. Phys., 2009 356(1-3)98-109
     doi.org/10.1016/j.chemphys.2008.10.036
  3. Garcia-Rates,M.; Neese,F.
     Effect of the Solute Cavity on the Solvation Energy and its Derivatives within the Framework of the Gaussian Charge Scheme
     J. Comput. Chem., 2020 41 922-939
     doi.org/10.1002/jcc.26139
  4. Helmich-Paris,B.; de Souza,B.; Neese,F.; Izsák,R.
     An improved chain of spheres for exchange algorithm
     J. Chem. Phys., 2021 155 104109
     doi.org/doi: 10.1063/5.0058766.
  5. Neese,F.
     The SHARK Integral Generation and Digestion System
     J. Comp. Chem., 2022  1-16
     doi.org/10.1002/jcc.26942
  6. Grimme,S.; Antony,J.; Ehrlich,S.; Krieg,H.
     A consistent and accurate ab initio parametrization of density functional dispersion correction (DFT-D) for the 94 elements H-Pu
     J. Chem. Phys., 2010 132 154104
     doi.org/10.1063/1.3382344
  7. Grimme,S.; Ehrlich,S.; Goerigk,L.
     Effect of the damping function in dispersion corrected density functional theory
     J. Comput. Chem., 2011 32(7)1456-1465
     doi.org/10.1002/jcc.21759

List of suggested additional citations. These are papers that are important in the 'surrounding' of 
of this run, or papers that preceded the highly important papers. If you like your results we are grateful for a citation.

  1. Izsak,R.; Neese,F.
     An overlap fitted chain of spheres exchange method
     J. Chem. Phys., 2011 135 144105
     doi.org/10.1063/1.3646921
  2. Izsak,R.; Hansen,A.; Neese,F.
     The resolution of identity and chain of spheres approximations for the LPNO-CCSD singles Fock term
     Molec. Phys., 2012 110 2413-2417
     doi.org/10.1080/00268976.2012.687466
  3. Neese,F.
     The ORCA program system
     WIRES Comput. Molec. Sci., 2012 2(1)73-78
     doi.org/10.1002/wcms.81
  4. Izsak,R.; Neese,F.; Klopper,W.
     Robust fitting techniques in the chain of spheres approximation to the Fock exchange: The role of the complementary space
     J. Chem. Phys., 2013 139 
     doi.org/10.1063/1.4819264
  5. Neese,F.
     Software update: the ORCA program system, version 4.0
     WIRES Comput. Molec. Sci., 2018 8(1)1-6
     doi.org/10.1002/wcms.1327
  6. Neese,F.; Wennmohs,F.; Becker,U.; Riplinger,C.
     The ORCA quantum chemistry program package
     J. Chem. Phys., 2020 152 Art. No. L224108
     doi.org/10.1063/5.0004608

List of optional additional citations

  1. Neese,F.
     Approximate second-order SCF convergence for spin unrestricted wavefunctions
     Chem. Phys. Lett., 2000 325(1-3)93-98
     doi.org/10.1016/s0009-2614(00)00662-x

Timings for individual modules:

Sum of individual times          ...     5353.404 sec (=  89.223 min)
Startup calculation              ...      257.181 sec (=   4.286 min)   4.8 %
SCF iterations                   ...     3862.838 sec (=  64.381 min)  72.2 %
Property calculations            ...        0.949 sec (=   0.016 min)   0.0 %
SCF Gradient evaluation          ...     1231.125 sec (=  20.519 min)  23.0 %
Geometry relaxation              ...        1.311 sec (=   0.022 min)   0.0 %
                             ****ORCA TERMINATED NORMALLY****
TOTAL RUN TIME: 0 days 1 hours 29 minutes 57 seconds 181 msec
