
                                 *****************
                                 * O   R   C   A *
                                 *****************

                                            #,                                       
                                            ###                                      
                                            ####                                     
                                            #####                                    
                                            ######                                   
                                           ########,                                 
                                     ,,################,,,,,                         
                               ,,#################################,,                 
                          ,,##########################################,,             
                       ,#########################################, ''#####,          
                    ,#############################################,,   '####,        
                  ,##################################################,,,,####,       
                ,###########''''           ''''###############################       
              ,#####''   ,,,,##########,,,,          '''####'''          '####       
            ,##' ,,,,###########################,,,                        '##       
           ' ,,###''''                  '''############,,,                           
         ,,##''                                '''############,,,,        ,,,,,,###''
      ,#''                                            '''#######################'''  
     '                                                          ''''####''''         
             ,#######,   #######,   ,#######,      ##                                
            ,#'     '#,  ##    ##  ,#'     '#,    #''#        ,####,   ,####,        
            ##       ##  ##   ,#'  ##            #'  '#       #'       #'  '#        
            ##       ##  #######   ##           ,######,      #####,   #    #        
            '#,     ,#'  ##    ##  '#,     ,#' ,#      #,     #,   #   #,  ,#        
             '#######'   ##     ##  '#######'  #'      '#     '####' # '####'        



                #########################################################
                #                        -***-                          #
                #          Department of theory and spectroscopy        #
                #                                                       #
                #                      Frank Neese                      #
                #                                                       #
                #     Directorship, Architecture, Infrastructure        #
                #                    SHARK, DRIVERS                     #
                #        Core code/Algorithms in most modules           #
                #                                                       #
                #        Max Planck Institute fuer Kohlenforschung      #
                #                Kaiser Wilhelm Platz 1                 #
                #                 D-45470 Muelheim/Ruhr                 #
                #                      Germany                          #
                #                                                       #
                #                  All rights reserved                  #
                #                        -***-                          #
                #########################################################


                         Program Version 6.0.1  -  RELEASE   -


 With contributions from (in alphabetic order):
[Max-Planck-Institut fuer Kohlenforschung]                               
  Daniel Aravena         : Magnetic Suceptibility                        
  Michael Atanasov       : Ab Initio Ligand Field Theory (pilot matlab implementation)
  Alexander A. Auer      : GIAO ZORA, VPT2 properties, NMR spectrum      
  Ute Becker             : All parallelization in ORCA, NUMFREQ, NUMCALC 
  Giovanni Bistoni       : ED, misc. LED, open-shell LED, HFLD           
  Martin Brehm           : Molecular dynamics                            
  Dmytro Bykov           : pre 5.0 version of the SCF Hessian            
  Marcos Casanova-Páez   : Triplet and SCS-CIS(D). UHF-(DLPNO)-IP/EA/STEOM-CCSD. UHF-CVS-IP/STEOM-CCSD   
  Vijay G. Chilkuri      : MRCI spin determinant printing, contributions to CSF-ICE 
  Pauline Colinet        : FMM embedding                                 
  Dipayan Datta          : RHF DLPNO-CCSD density                        
  Achintya Kumar Dutta   : EOM-CC, STEOM-CC                              
  Nicolas Foglia         : Exact transition moments, OPA infrastructure, MCD improvements    
  Dmitry Ganyushin       : Spin-Orbit,Spin-Spin,Magnetic field MRCI      
  Miquel Garcia-Rates    : C-PCM and meta-GGA Hessian, CCSD/C-PCM, Gaussian charge scheme 
  Tiago L. C. Gouveia    : GS-ROHF, GS-ROCIS                             
  Yang Guo               : DLPNO-NEVPT2, F12-NEVPT2, CIM, IAO-localization        
  Andreas Hansen         : Spin unrestricted coupled pair/coupled cluster methods 
  Ingolf Harden          : AUTO-CI MPn and infrastructure                
  Benjamin Helmich-Paris : MC-RPA, TRAH-(SCF,CASSCF), AVAS, COSX integrals, SCF dyn. polar. 
  Lee Huntington         : MR-EOM, pCC                                   
  Robert Izsak           : Overlap fitted RIJCOSX, COSX-SCS-MP3, EOM     
  Riya Kayal             : Wick's Theorem for AUTO-CI, AUTO-CI UHF-CCSDT 
  Emily Kempfer          : AUTO-CI, RHF CISDT and CCSDT                  
  Christian Kollmar      : KDIIS, OOCD, Brueckner-CCSD(T), CCSD density, CASPT2, CASPT2-K, improved NEVPT2 
  Axel Koslowski         : Symmetry handling                             
  Simone Kossmann        : meta-GGA functionals, TD-DFT gradient, OOMP2, (MP2 Hessian; deprecated post 5.0) 
  Lucas Lang             : DCDCAS                                        
  Marvin Lechner         : AUTO-CI (C++ implementation), FIC-MRCC        
  Spencer Leger          : CASSCF response                               
  Dagmar Lenk            : GEPOL surface, SMD, ORCA-2-JSON               
  Dimitrios Liakos       : Extrapolation schemes; Compound Job, initial MDCI parallelization 
  Dimitrios Manganas     : Further ROCIS development; embedding schemes. LFT, Crystal Embedding 
  Dimitrios Pantazis     : SARC Basis sets                               
  Anastasios Papadopoulos: AUTO-CI, single reference methods and gradients 
  Taras Petrenko         : pre 6.0 DFT Hessian and TD-DFT gradient, (ASA, deprecated), ECA, 1-Electron XAS/XES, NRVS 
  Peter Pinski           : DLPNO-MP2, DLPNO-MP2 Gradient                 
  Christoph Reimann      : Effective Core Potentials                     
  Marius Retegan         : Local ZFS, SOC                                
  Christoph Riplinger    : Optimizer, TS searches, QM/MM, DLPNO-CCSD(T), (RO)-DLPNO pert. Triples 
  Michael Roemelt        : Original ROCIS implementation                 
  Masaaki Saitow         : Open-shell DLPNO-CCSD energy and density      
  Barbara Sandhoefer     : DKH picture change effects                    
  Kantharuban Sivalingam : CASSCF convergence/infrastructure, NEVPT2 and variants, FIC-MRCI 
  Bernardo de Souza      : ESD, SOC TD-DFT                               
  Georgi L. Stoychev     : AutoAux, RI-MP2 NMR, DLPNO-MP2 response, X2C  
  Van Anh Tran           : RI-MP2 g-tensors                              
  Willem Van den Heuvel  : Paramagnetic NMR                              
  Zikuan Wang            : NOTCH, Electric field optimization            
  Frank Wennmohs         : Technical directorship and infrastructure     
  Hang Xu                : AUTO-CI-Response properties                   
                                                                         
[FACCTs GmbH]                                                            
  Markus Bursch, Miquel Garcia-Rates, Christoph Riplinger, Bernardo de Souza, Georgi L. Stoychev 
                                                                 
  APM, Basis sets (HGBS, AHGBS, def-TZVP (Ac-Lr), def2-XVPD (La-Lu)), CI-OPT, improved COSX, DLPNO-Multilevel,           
  DOCKER, DRACO, updates on ESD, GOAT, IRC, LR-CPCM, MBIS, meta-GGA TD-DFT gradient, ML-optimized integration grids, 
  MM, NACMEs, nearIR, NEB, NEB-TS, NL-DFT gradient (VV10), 2- and 3-layer-ONIOM, interface openCOSMO-RS, QMMM,   
  Crystal-QMMM, SF, symmetry and pop. for TD-DFT, r2SCAN hybrids, SOLVATOR                                   
                                                                         
[Other institutions]                                                     
  V. Asgeirsson          : NEB                                           
  Christoph Bannwarth    : sTDA-DFT, sTD-DFT, PBEh-3c, B97-3c, D3        
  Sebastian Ehlert       : rSCAN, r2SCAN, r2SCAN-3c, D4, dhf basis sets  
  Marvin Friede          : D4 for Fr, Ra, Ac-Lr                          
  Lars Goerigk           : TD-DFT with DH, B97 family of functionals     
  Stefan Grimme          : VdW corrections, initial TS optimization, DFT functionals, gCP, sTDA/sTD-DF 
  Waldemar Hujo          : DFT-NL                                        
  H. Jonsson             : NEB                                           
  Holger Kruse           : gCP                                           
  Marcel Mueller         : wB97X-3c, vDZP basis set                      
  Hagen Neugebauer       : wr2SCAN                                       
  Tobias Risthaus        : range-separated hybrid DFT                    
  Lukas Wittmann         : regularized MP2, r2SCAN double-hybrids, wr2SCAN        
                                                                         
We gratefully acknowledge several colleagues who have allowed us to      
interface, adapt or use parts of their codes:                            
  Ed Valeev, F. Pavosevic, A. Kumar             : LibInt (2-el integral package), F12 methods 
  Garnet Chan, S. Sharma, J. Yang, R. Olivares  : DMRG                   
  Ulf Ekstrom                                   : XCFun DFT Library      
  Mihaly Kallay                                 : mrcc  (arbitrary order and MRCC methods)
  Frank Weinhold                                : gennbo (NPA and NBO analysis)           
  Simon Mueller                                 : openCOSMO-RS                            
  Christopher J. Cramer and Donald G. Truhlar   : smd solvation model                     
  S Lehtola, MJT Oliveira, MAL Marques          : LibXC Library                           
  Liviu Ungur et al                             : ANISO software                          


 Your calculation uses the libint2 library for the computation of 2-el integrals
 For citations please refer to: http://libint.valeyev.net

 Your ORCA version has been built with support for libXC version: 6.2.2
 For citations please refer to: https://libxc.gitlab.io

 This ORCA versions uses:
   CBLAS   interface :  Fast vector & matrix operations
   LAPACKE interface :  Fast linear algebra routines
   SCALAPACK package :  Parallel linear algebra routines
   Shared memory     :  Shared parallel matrices
   BLAS/LAPACK       :  OpenBLAS 0.3.27  USE64BITINT DYNAMIC_ARCH NO_AFFINITY SkylakeX SINGLE_THREADED
        Core in use  :  SkylakeX
   Copyright (c) 2011-2014, The OpenBLAS Project


NOTE: MaxCore=8000 MB was set to SCF,MP2,MDCI,CIPSI,MRCI and CIS
      => If you want to overwrite this, your respective input block should be placed after the MaxCore statement
Your calculation utilizes the atom-pairwise dispersion correction
with the Becke-Johnson damping scheme (D3BJ)


Your calculation utilizes the SMD solvation module
Please cite in your paper:
A.V. Marenich, C.J. Cramer, D.G. Truhlar J. Phys. Chem. B, 113, (2009), 6378 

Warning: RI is on but no J-basis has been assigned. Assigning Def2/J (nothing to worry about!)
================================================================================

----- Orbital basis set information -----
Your calculation utilizes the basis: def2-TZVP
   F. Weigend and R. Ahlrichs, Phys. Chem. Chem. Phys. 7, 3297 (2005).

----- AuxJ basis set information -----
Your calculation utilizes the auxiliary basis: def2/J
   F. Weigend, Phys. Chem. Chem. Phys. 8, 1057 (2006).

================================================================================
                                        WARNINGS
                       Please study these warnings very carefully!
================================================================================



WARNING: SCAN, rSCAN, or r2SCAN functional requested.
  ===> : libXC variant has now been activated.



WARNING: your system is open-shell and RHF/RKS was chosen
  ===> : WILL SWITCH to UHF/UKS


================================================================================
                                       INPUT FILE
================================================================================
NAME = rf_mecn_freq_r2s_C5_D_B.inp
|  1> !r2scanh def2-TZVP freq d3 TightSCF SlowConv defgrid2
|  2>  
|  3> %pal
|  4> nprocs 20
|  5> end
|  6>  
|  7> %scf
|  8> MaxIter 1500
|  9> end
| 10>  
| 11> %maxcore 8000
| 12>  
| 13> !CPCM
| 14> %cpcm smd true
| 15> SMDsolvent "ACETONITRILE"
| 16> end
| 17>  
| 18> * xyz -1 2
| 19> 6        4.246079000      0.321972000     -1.086065000
| 20> 8        4.730902000     -0.540938000     -1.824366000
| 21> 8        4.282903000      1.559911000     -1.122744000
| 22> 6        3.416878000     -0.224063000      0.134531000
| 23> 6        1.921449000      0.151211000      0.040923000
| 24> 6        0.945355000     -0.698650000      0.901890000
| 25> 6       -0.425018000     -0.102929000      0.992377000
| 26> 6       -1.631300000     -0.599856000      0.272005000
| 27> 6       -2.761096000      0.463155000      0.204617000
| 28> 6       -3.906614000      0.133398000     -0.789842000
| 29> 9        3.492274000     -1.576323000      0.247076000
| 30> 9        3.900280000      0.284891000      1.302081000
| 31> 9        1.750121000      1.434985000      0.414946000
| 32> 9        1.518591000      0.028758000     -1.243588000
| 33> 9        0.845294000     -1.935666000      0.375232000
| 34> 9        1.462755000     -0.794531000      2.148463000
| 35> 9       -0.604012000      0.811518000      1.924193000
| 36> 9       -2.145151000     -1.707571000      0.869953000
| 37> 9       -1.293732000     -0.953123000     -0.986797000
| 38> 9       -2.233627000      1.639597000     -0.172351000
| 39> 9       -3.305224000      0.597152000      1.423044000
| 40> 9       -4.394654000     -1.081148000     -0.569000000
| 41> 9       -4.879963000      1.022637000     -0.618289000
| 42> 9       -3.482009000      0.209653000     -2.043836000
| 43> *
| 44> 
| 45>                          ****END OF INPUT****
================================================================================

                       ****************************
                       * Single Point Calculation *
                       ****************************

---------------------------------
CARTESIAN COORDINATES (ANGSTROEM)
---------------------------------
  C      4.246079    0.321972   -1.086065
  O      4.730902   -0.540938   -1.824366
  O      4.282903    1.559911   -1.122744
  C      3.416878   -0.224063    0.134531
  C      1.921449    0.151211    0.040923
  C      0.945355   -0.698650    0.901890
  C     -0.425018   -0.102929    0.992377
  C     -1.631300   -0.599856    0.272005
  C     -2.761096    0.463155    0.204617
  C     -3.906614    0.133398   -0.789842
  F      3.492274   -1.576323    0.247076
  F      3.900280    0.284891    1.302081
  F      1.750121    1.434985    0.414946
  F      1.518591    0.028758   -1.243588
  F      0.845294   -1.935666    0.375232
  F      1.462755   -0.794531    2.148463
  F     -0.604012    0.811518    1.924193
  F     -2.145151   -1.707571    0.869953
  F     -1.293732   -0.953123   -0.986797
  F     -2.233627    1.639597   -0.172351
  F     -3.305224    0.597152    1.423044
  F     -4.394654   -1.081148   -0.569000
  F     -4.879963    1.022637   -0.618289
  F     -3.482009    0.209653   -2.043836

----------------------------
CARTESIAN COORDINATES (A.U.)
----------------------------
  NO LB      ZA    FRAG     MASS         X           Y           Z
   0 C     6.0000    0    12.011    8.023926    0.608439   -2.052365
   1 O     8.0000    0    15.999    8.940109   -1.022225   -3.447552
   2 O     8.0000    0    15.999    8.093514    2.947805   -2.121679
   3 C     6.0000    0    12.011    6.456964   -0.423418    0.254227
   4 C     6.0000    0    12.011    3.631012    0.285747    0.077333
   5 C     6.0000    0    12.011    1.786462   -1.320257    1.704325
   6 C     6.0000    0    12.011   -0.803168   -0.194508    1.875321
   7 C     6.0000    0    12.011   -3.082710   -1.133564    0.514015
   8 C     6.0000    0    12.011   -5.217715    0.875236    0.386670
   9 C     6.0000    0    12.011   -7.382431    0.252086   -1.492585
  10 F     9.0000    0    18.998    6.599441   -2.978819    0.466906
  11 F     9.0000    0    18.998    7.370461    0.538366    2.460576
  12 F     9.0000    0    18.998    3.307249    2.711729    0.784134
  13 F     9.0000    0    18.998    2.869721    0.054345   -2.350041
  14 F     9.0000    0    18.998    1.597374   -3.657879    0.709086
  15 F     9.0000    0    18.998    2.764206   -1.501446    4.060007
  16 F     9.0000    0    18.998   -1.141417    1.533547    3.636198
  17 F     9.0000    0    18.998   -4.053748   -3.226842    1.643973
  18 F     9.0000    0    18.998   -2.444799   -1.801141   -1.864776
  19 F     9.0000    0    18.998   -4.220943    3.098389   -0.325696
  20 F     9.0000    0    18.998   -6.245968    1.128454    2.689163
  21 F     9.0000    0    18.998   -8.304693   -2.043074   -1.075254
  22 F     9.0000    0    18.998   -9.221794    1.932504   -1.168397
  23 F     9.0000    0    18.998   -6.580043    0.396187   -3.862290

--------------------------------
INTERNAL COORDINATES (ANGSTROEM)
--------------------------------
 C      0   0   0     0.000000000000     0.00000000     0.00000000
 O      1   0   0     1.234809854200     0.00000000     0.00000000
 O      1   2   0     1.239029589533   131.97730901     0.00000000
 C      1   2   3     1.573398587403   115.35587349   179.73032607
 C      4   1   2     1.544636179423   112.26529551   245.15264585
 C      5   4   1     1.554441182948   116.20210735   160.56984565
 C      6   5   4     1.496994845061   113.00030867   167.63238783
 C      7   6   5     1.490298133005   125.38374458   105.18565290
 C      8   7   6     1.552730668945   112.43613854   198.43922962
 C      9   8   7     1.552385219607   114.79001043   167.03351858
 F      4   1   2     1.359028344605   112.35348033     6.44626789
 F      4   1   2     1.362308581130   110.37759842   124.93278947
 F      5   4   1     1.348080921603   109.73018468   281.66872670
 F      5   4   1     1.351761004947   108.91159824    39.91651743
 F      6   5   4     1.348180046189   109.38337610   288.88381720
 F      6   5   4     1.353085426161   107.99312070    47.21511188
 F      7   6   5     1.317775863226   116.31013757   275.25921808
 F      8   7   6     1.359638621888   111.40668032    77.59901374
 F      8   7   6     1.350308188199   109.60306790   319.44944928
 F      9   8   7     1.343258797979   109.02899233    46.75456662
 F      9   8   7     1.341117008587   108.91637518   287.83411339
 F     10   9   8     1.327432189108   111.04353266    52.42781049
 F     10   9   8     1.329505436894   108.39075792   171.81731219
 F     10   9   8     1.326124120543   110.93297394   290.89140176

---------------------------
INTERNAL COORDINATES (A.U.)
---------------------------
 C      0   0   0     0.000000000000     0.00000000     0.00000000
 O      1   0   0     2.333452451906     0.00000000     0.00000000
 O      1   2   0     2.341426596042   131.97730901     0.00000000
 C      1   2   3     2.973292429690   115.35587349   179.73032607
 C      4   1   2     2.918939355655   112.26529551   245.15264585
 C      5   4   1     2.937468127061   116.20210735   160.56984565
 C      6   5   4     2.828910281057   113.00030867   167.63238783
 C      7   6   5     2.816255329273   125.38374458   105.18565290
 C      8   7   6     2.934235724046   112.43613854   198.43922962
 C      9   8   7     2.933582919404   114.79001043   167.03351858
 F      4   1   2     2.568191379541   112.35348033     6.44626789
 F      4   1   2     2.574390128226   110.37759842   124.93278947
 F      5   4   1     2.547503748193   109.73018468   281.66872670
 F      5   4   1     2.554458097863   108.91159824    39.91651743
 F      6   5   4     2.547691066514   109.38337610   288.88381720
 F      6   5   4     2.556960891245   107.99312070    47.21511188
 F      7   6   5     2.490235487389   116.31013757   275.25921808
 F      8   7   6     2.569344636471   111.40668032    77.59901374
 F      8   7   6     2.551712672087   109.60306790   319.44944928
 F      9   8   7     2.538391255161   109.02899233    46.75456662
 F      9   8   7     2.534343859774   108.91637518   287.83411339
 F     10   9   8     2.508483298766   111.04353266    52.42781049
 F     10   9   8     2.512401169289   108.39075792   171.81731219
 F     10   9   8     2.506011407413   110.93297394   290.89140176

---------------------
BASIS SET INFORMATION
---------------------
There are 3 groups of distinct atoms

 Group   1 Type C   : 11s6p2d1f contracted to 5s3p2d1f pattern {62111/411/11/1}
 Group   2 Type O   : 11s6p2d1f contracted to 5s3p2d1f pattern {62111/411/11/1}
 Group   3 Type F   : 11s6p2d1f contracted to 5s3p2d1f pattern {62111/411/11/1}

Atom   0C    basis set group =>   1
Atom   1O    basis set group =>   2
Atom   2O    basis set group =>   2
Atom   3C    basis set group =>   1
Atom   4C    basis set group =>   1
Atom   5C    basis set group =>   1
Atom   6C    basis set group =>   1
Atom   7C    basis set group =>   1
Atom   8C    basis set group =>   1
Atom   9C    basis set group =>   1
Atom  10F    basis set group =>   3
Atom  11F    basis set group =>   3
Atom  12F    basis set group =>   3
Atom  13F    basis set group =>   3
Atom  14F    basis set group =>   3
Atom  15F    basis set group =>   3
Atom  16F    basis set group =>   3
Atom  17F    basis set group =>   3
Atom  18F    basis set group =>   3
Atom  19F    basis set group =>   3
Atom  20F    basis set group =>   3
Atom  21F    basis set group =>   3
Atom  22F    basis set group =>   3
Atom  23F    basis set group =>   3
---------------------------------
AUXILIARY/J BASIS SET INFORMATION
---------------------------------
There are 3 groups of distinct atoms

 Group   1 Type C   : 12s5p4d2f1g contracted to 6s4p3d1f1g pattern {711111/2111/211/2/1}
 Group   2 Type O   : 12s5p4d2f1g contracted to 6s4p3d1f1g pattern {711111/2111/211/2/1}
 Group   3 Type F   : 12s5p4d2f1g contracted to 6s4p3d1f1g pattern {711111/2111/211/2/1}

Atom   0C    basis set group =>   1
Atom   1O    basis set group =>   2
Atom   2O    basis set group =>   2
Atom   3C    basis set group =>   1
Atom   4C    basis set group =>   1
Atom   5C    basis set group =>   1
Atom   6C    basis set group =>   1
Atom   7C    basis set group =>   1
Atom   8C    basis set group =>   1
Atom   9C    basis set group =>   1
Atom  10F    basis set group =>   3
Atom  11F    basis set group =>   3
Atom  12F    basis set group =>   3
Atom  13F    basis set group =>   3
Atom  14F    basis set group =>   3
Atom  15F    basis set group =>   3
Atom  16F    basis set group =>   3
Atom  17F    basis set group =>   3
Atom  18F    basis set group =>   3
Atom  19F    basis set group =>   3
Atom  20F    basis set group =>   3
Atom  21F    basis set group =>   3
Atom  22F    basis set group =>   3
Atom  23F    basis set group =>   3


           ************************************************************
           *        Program running with 20 parallel MPI-processes    *
           *              working on a common directory               *
           ************************************************************
------------------------------------------------------------------------------
                             ORCA STARTUP CALCULATIONS
                           -- RI-GTO INTEGRALS CHOSEN --
------------------------------------------------------------------------------
------------------------------------------------------------------------------
                   ___                                                        
                  /   \      - P O W E R E D   B Y -                         
                 /     \                                                     
                 |  |  |   _    _      __       _____    __    __             
                 |  |  |  | |  | |    /  \     |  _  \  |  |  /  |          
                  \  \/   | |  | |   /    \    | | | |  |  | /  /          
                 / \  \   | |__| |  /  /\  \   | |_| |  |  |/  /          
                |  |  |   |  __  | /  /__\  \  |    /   |      \           
                |  |  |   | |  | | |   __   |  |    \   |  |\   \          
                \     /   | |  | | |  |  |  |  | |\  \  |  | \   \       
                 \___/    |_|  |_| |__|  |__|  |_| \__\ |__|  \__/        
                                                                              
                      - O R C A' S   B I G   F R I E N D -                    
                                      &                                       
                       - I N T E G R A L  F E E D E R -                       
                                                                              
 v1 FN, 2020, v2 2021, v3 2022-2024                                           
------------------------------------------------------------------------------


----------------------
SHARK INTEGRAL PACKAGE
----------------------

Number of atoms                             ...     24
Number of basis functions                   ...    744
Number of shells                            ...    264
Maximum angular momentum                    ...      3
Integral batch strategy                     ... SHARK/LIBINT Hybrid
RI-J (if used) integral strategy            ... SPLIT-RIJ (Revised 2003 algorithm where possible)
Printlevel                                  ...      1
Contraction scheme used                     ... SEGMENTED contraction
Prescreening option                         ... SCHWARTZ
   Thresh                                   ... 2.500e-11
   Tcut                                     ... 2.500e-12
   Tpresel                                  ... 2.500e-12 
Coulomb Range Separation                    ... NOT USED
Exchange Range Separation                   ... NOT USED
Multipole approximations                    ... NOT USED
Finite Nucleus Model                        ... NOT USED
CABS basis                                  ... NOT available
Auxiliary Coulomb fitting basis             ... AVAILABLE
   # of basis functions in Aux-J            ...   1176
   # of shells in Aux-J                     ...    360
   Maximum angular momentum in Aux-J        ...      4
Auxiliary J/K fitting basis                 ... NOT available
Auxiliary Correlation fitting basis         ... NOT available
Auxiliary 'external' fitting basis          ... NOT available

Checking pre-screening integrals            ... done (  0.0 sec) Dimension = 264
Check shell pair data                       ... done (  0.0 sec)
Shell pair information
Shell pair cut-off parameter TPreSel        ...   2.5e-12
Total number of shell pairs                 ...     34980
Shell pairs after pre-screening             ...     22038
Total number of primitive shell pairs       ...    115968
Primitive shell pairs kept                  ...     46823
          la=0 lb=0:   4091 shell pairs
          la=1 lb=0:   5983 shell pairs
          la=1 lb=1:   2092 shell pairs
          la=2 lb=0:   3284 shell pairs
          la=2 lb=1:   2419 shell pairs
          la=2 lb=2:    686 shell pairs
          la=3 lb=0:   1515 shell pairs
          la=3 lb=1:   1182 shell pairs
          la=3 lb=2:    631 shell pairs
          la=3 lb=3:    155 shell pairs

Calculating one electron integrals          ... done (  0.0 sec)
Calculating RI/J V-Matrix + Cholesky decomp.... done (  0.1 sec)
Calculating Nuclear repulsion               ... done (  0.0 sec) ENN=   2642.948817921542 Eh

Diagonalization of the overlap matrix:
Smallest eigenvalue                        ... 6.259e-05
Time for diagonalization                   ...    0.117 sec
Threshold for overlap eigenvalues          ... 1.000e-07
Number of eigenvalues below threshold      ... 0
Time for construction of square roots      ...    0.058 sec
Total time needed                          ...    0.213 sec

-------------------
DFT GRID GENERATION
-------------------

General Integration Accuracy     IntAcc      ... 4.388
Radial Grid Type                 RadialGrid  ... OptM3 with GC (2021)
Angular Grid (max. ang.)         AngularGrid ... 4 (Lebedev-302)
Angular grid pruning method      GridPruning ... 4 (adaptive)
Weight generation scheme         WeightScheme... mBecke (2022)
Basis function cutoff            BFCut       ... 1.0000e-11
Integration weight cutoff        WCut        ... 1.0000e-14
Partially contracted basis set               ... off
Rotationally invariant grid construction     ... off
Angular grids for H and He will be reduced by one unit

Total number of grid points                  ...   145436
Total number of batches                      ...     2285
Average number of points per batch           ...       63
Average number of grid points per atom       ...     6060

--------------------
COSX GRID GENERATION
--------------------

GRIDX 1
-------
General Integration Accuracy     IntAcc      ... 3.816
Radial Grid Type                 RadialGrid  ... OptM3 with GC (2021)
Angular Grid (max. ang.)         AngularGrid ... 1 (Lebedev-50)
Angular grid pruning method      GridPruning ... 4 (adaptive)
Weight generation scheme         WeightScheme... mBecke (2022)
Basis function cutoff            BFCut       ... 1.0000e-11
Integration weight cutoff        WCut        ... 1.0000e-14
Partially contracted basis set               ... on
Rotationally invariant grid construction     ... off
Angular grids for H and He will be reduced by one unit

Total number of grid points                  ...    18253
Total number of batches                      ...      153
Average number of points per batch           ...      119
Average number of grid points per atom       ...      761
UseSFitting                                  ... on

GRIDX 2
-------
General Integration Accuracy     IntAcc      ... 4.020
Radial Grid Type                 RadialGrid  ... OptM3 with GC (2021)
Angular Grid (max. ang.)         AngularGrid ... 2 (Lebedev-110)
Angular grid pruning method      GridPruning ... 4 (adaptive)
Weight generation scheme         WeightScheme... mBecke (2022)
Basis function cutoff            BFCut       ... 1.0000e-11
Integration weight cutoff        WCut        ... 1.0000e-14
Partially contracted basis set               ... on
Rotationally invariant grid construction     ... off
Angular grids for H and He will be reduced by one unit

Total number of grid points                  ...    43279
Total number of batches                      ...      350
Average number of points per batch           ...      123
Average number of grid points per atom       ...     1803
UseSFitting                                  ... on

GRIDX 3
-------
General Integration Accuracy     IntAcc      ... 4.338
Radial Grid Type                 RadialGrid  ... OptM3 with GC (2021)
Angular Grid (max. ang.)         AngularGrid ... 3 (Lebedev-194)
Angular grid pruning method      GridPruning ... 4 (adaptive)
Weight generation scheme         WeightScheme... mBecke (2022)
Basis function cutoff            BFCut       ... 1.0000e-11
Integration weight cutoff        WCut        ... 1.0000e-14
Partially contracted basis set               ... on
Rotationally invariant grid construction     ... off
Angular grids for H and He will be reduced by one unit

Total number of grid points                  ...    95937
Total number of batches                      ...      761
Average number of points per batch           ...      126
Average number of grid points per atom       ...     3997
UseSFitting                                  ... on
Initializing property integral containers    ... done (  0.0 sec)

SHARK setup successfully completed in   3.8 seconds

Maximum memory used throughout the entire STARTUP-calculation: 57.1 MB


           ************************************************************
           *        Program running with 20 parallel MPI-processes    *
           *              working on a common directory               *
           ************************************************************
-------------------------------------------------------------------------------
                                 ORCA GUESS
                   Start orbitals & Density for SCF / CASSCF
-------------------------------------------------------------------------------

------------
SCF SETTINGS
------------
Hamiltonian:
 Density Functional     Method          .... DFT(GTOs)
  Functional kind                       .... Exchange
  Functional name                       .... Re-regularized SCAN exchange by Furness et al
  Functional family                     .... MGGA
  Functional refs                              
    [ 0] J. W. Furness, A. D. Kaplan, J. Ning, J. P. Perdew, and J. Sun.,  J. Phys. Chem. Lett. 11, 8208-8215 (2020), doi: 10.1021/acs.jpclett.0c02405
    [ 1] J. W. Furness, A. D. Kaplan, J. Ning, J. P. Perdew, and J. Sun.,  J. Phys. Chem. Lett. 11, 9248-9248 (2020), doi: 10.1021/acs.jpclett.0c03077
  Functional external parameters        .... 6
    Parameter  0 _c1        =  6.670000e-01 : c1 parameter        
    Parameter  1 _c2        =  8.000000e-01 : c2 parameter        
    Parameter  2 _d         =  1.240000e+00 : d parameter         
    Parameter  3 _k1        =  6.500000e-02 : k1 parameter        
    Parameter  4 _eta       =  1.000000e-03 : eta parameter       
    Parameter  5 _dp2       =  3.610000e-01 : dp2 parameter       
  Functional kind                       .... Correlation
  Functional name                       .... Re-regularized SCAN correlation by Furness et al
  Functional family                     .... MGGA
  Functional refs                              
    [ 0] J. W. Furness, A. D. Kaplan, J. Ning, J. P. Perdew, and J. Sun.,  J. Phys. Chem. Lett. 11, 8208-8215 (2020), doi: 10.1021/acs.jpclett.0c02405
    [ 1] J. W. Furness, A. D. Kaplan, J. Ning, J. P. Perdew, and J. Sun.,  J. Phys. Chem. Lett. 11, 9248-9248 (2020), doi: 10.1021/acs.jpclett.0c03077
  Functional external parameters        .... 1
    Parameter  0 _eta       =  1.000000e-03 : Regularization parameter
 Gradients option       PostSCFGGA      .... off
 Hybrid DFT is turned on
   Fraction HF Exchange ScalHFX         ....  0.100000
   Scaling of DF-GGA-X  ScalDFX         ....  0.900000
   Scaling of DF-GGA-C  ScalDFC         ....  1.000000
   Scaling of DF-LDA-C  ScalLDAC        ....  1.000000
   Perturbative correction              ....  0.000000
   NL short-range parameter             .... 11.900000
 RI-approximation to the Coulomb term is turned on
   Number of AuxJ basis functions       .... 1176
   RIJ-COSX (HFX calculated with COS-X)).... on


General Settings:
 Integral files         IntName         .... rf_mecn_freq_r2s_C5_D_B
 Hartree-Fock type      HFTyp           .... UHF
 Total Charge           Charge          ....   -1
 Multiplicity           Mult            ....    2
 Number of Electrons    NEL             ....  191
 Basis Dimension        Dim             ....  744
 Nuclear Repulsion      ENuc            ....   2642.9488179215 Eh

Convergence Acceleration:
 AO-DIIS                CNVDIIS         .... on
   Start iteration      DIISMaxIt       ....     0
   Startup error        DIISStart       ....  0.200000
   # of expansion vecs  DIISMaxEq       ....     5
   Bias factor          DIISBfac        ....   1.050
   Max. coefficient     DIISMaxC        ....  10.000
 MO-DIIS                CNVKDIIS        .... off
 Trust-Rad. Augm. Hess. CNVTRAH         .... auto
   Auto Start mean grad. ratio tolernc. ....  1.125000
   Auto Start start iteration           ....    50
   Auto Start num. interpolation iter.  ....    10
   Max. Number of Micro iterations      ....    24
   Max. Number of Macro iterations      .... Maxiter - #DIIS iter
   Number of Davidson start vectors     ....     2
   Converg. threshold    (grad. norm)   ....   1.000e-05
   Grad. Scal. Fac. for Micro threshold ....   0.100
   Minimum threshold for Micro iter.    ....   1.000e-02
   NR start threshold (gradient norm)   ....   1.000e-04
   Initial trust radius                 ....   0.400
   Minimum AH scaling param. (alpha)    ....   1.000
   Maximum AH scaling param. (alpha)    .... 1000.000
   Quad. conv. algorithm                .... NR
   White noise on init. David. guess    .... on
   Maximum white noise                  ....   0.010
   Pseudo random numbers                .... off
   Inactive MOs                         .... canonical
   Orbital update algorithm             .... Taylor
   Preconditioner                       .... Diag
   Full preconditioner red. dimension   ....   250
 SOSCF                  CNVSOSCF        .... on
   Start iteration      SOSCFMaxIt      ....   150
   Startup grad/error   SOSCFStart      ....  0.001000
   Hessian update       SOSCFHessUp     .... L-BFGS
 Level Shifting         CNVShift        .... on
   Level shift para.    LevelShift      ....    0.2500
   Turn off err/grad.   ShiftErr        ....    0.0000
 Zerner damping         CNVZerner       .... off
 Static damping         CNVDamp         .... on
   Fraction old density DampFac         ....    0.8500
   Max. Damping (<1)    DampMax         ....    0.9800
   Min. Damping (>=0)   DampMin         ....    0.0000
   Turn off err/grad.   DampErr         ....    0.0300

SCF Procedure:
 Maximum # iterations   MaxIter         ....  1500
 SCF integral mode      SCFMode         .... Direct
   Integral package                     .... SHARK and LIBINT hybrid scheme
 Reset frequency        DirectResetFreq ....    20
 Integral Threshold     Thresh          ....  2.500e-11 Eh
 Primitive CutOff       TCut            ....  2.500e-12 Eh

Convergence Tolerance:
 Convergence Check Mode ConvCheckMode   .... Total+1el-Energy
 Convergence forced     ConvForced      .... 0
 Energy Change          TolE            ....  1.000e-08 Eh
 1-El. energy change                    ....  1.000e-05 Eh
 Orbital Gradient       TolG            ....  1.000e-05
 Orbital Rotation angle TolX            ....  1.000e-05
 DIIS Error             TolErr          ....  5.000e-07

------------------------------
INITIAL GUESS: MODEL POTENTIAL
------------------------------
Loading Hartree-Fock densities                     ... done
Calculating cut-offs                               ... done
Initializing the effective Hamiltonian             ... done
Setting up the integral package (SHARK)            ... done
Starting the Coulomb interaction                   ... done (   0.2 sec)
Making the grid                                    ... done (   0.4 sec)
Mapping shells                                     ... done
Starting the XC term evaluation                    ... done (   0.2 sec)
  promolecular density results
     # of electrons  =    190.001034475
     EX              =   -197.249745028
     EC              =     -6.679814666
     EX+EC           =   -203.929559693
Transforming the Hamiltonian                       ... done (   0.1 sec)
Diagonalizing the Hamiltonian                      ... done (   0.1 sec)
Back transforming the eigenvectors                 ... done (   0.0 sec)
Now organizing SCF variables                       ... done
                      ------------------
                      INITIAL GUESS DONE (   1.2 sec)
                      ------------------
             **** ENERGY FILE WAS UPDATED (rf_mecn_freq_r2s_C5_D_B.en.tmp) ****
Finished Guess after   2.0 sec
Maximum memory used throughout the entire GUESS-calculation: 45.9 MB


           ************************************************************
           *        Program running with 20 parallel MPI-processes    *
           *              working on a common directory               *
           ************************************************************

-------------------------------------------------------------------------------------------
                                      ORCA LEAN-SCF
                              memory conserving SCF solver
-------------------------------------------------------------------------------------------

--------------------
CPCM SOLVATION MODEL
--------------------
CPCM parameters:
  Epsilon                                         ...      35.6880
  Refrac                                          ...       1.3442
  Rsolv                                           ...       1.3000
  Surface type                                    ... GAUSSIAN VDW
  Discretization scheme                           ... Constant charge density
    Threshold for H atoms                         ...       5.0000 (charges/Ang^2)
    Threshold for non-H atoms                     ...       5.0000 (charges/Ang^2)
  Epsilon function type                           ...         CPCM
Solvent:                                          ... ACETONITRILE
SMD-CDS solvent descriptors:
  Soln                                            ...       1.3442
  Soln25                                          ...       1.3416
  Sola                                            ...       0.0700
  Solb                                            ...       0.3200
  Solg                                            ...      41.2500
  Solc                                            ...       0.0000
  Solh                                            ...       0.0000
Radii:
  Scheme                                          ... Element-dependent radii
  Radius for C  used is    3.4960 Bohr (=   1.8500 Ang.)
  Radius for O  used is    4.0969 Bohr (=   2.1680 Ang.)
  Radius for F  used is    3.2692 Bohr (=   1.7300 Ang.)
Calculating surface                               ...        done! (  0.0s)
Cavity surface points                             ...         2142
Cavity Volume                                     ...    2102.2561
Cavity Surface-area                               ...    1102.2777
Calculating surface distance matrix               ...        done! (  0.0s)
Performing Cholesky decomposition & store         ...        done! (  0.1s)
Overall time for CPCM initialization              ...                 0.2s

----------------------------------------D-I-I-S--------------------------------------------
Iteration    Energy (Eh)           Delta-E    RMSDP     MaxDP     DIISErr   Damp  Time(sec)
-------------------------------------------------------------------------------------------
               ***  Starting incremental Fock matrix formation  ***
    1    -1852.6835273319093176     0.00e+00  2.55e-04  3.49e-02  1.57e-01  0.850   7.7
Warning: op=0 Small HOMO/LUMO gap (   0.057) - skipping pre-diagonalization
         Will do a full diagonalization
    2    -1852.8118702998599474    -1.28e-01  3.34e-04  7.17e-02  1.11e-01  0.850   5.6
                               ***Turning on AO-DIIS***
    3    -1852.8836619554085701    -7.18e-02  1.71e-04  3.41e-02  6.89e-02  0.850   4.9
    4    -1852.9274053234566964    -4.37e-02  9.58e-05  1.37e-02  5.20e-02  0.850   4.6
    5    -1852.9587341443075275    -3.13e-02  6.35e-05  4.41e-03  4.30e-02  0.850   4.5
    6    -1852.9836066644729726    -2.49e-02  5.04e-05  4.16e-03  3.69e-02  0.850   4.2
    7    -1853.0043204486019022    -2.07e-02  4.44e-05  3.77e-03  3.18e-02  0.850   4.2
    8    -1853.0218575417447937    -1.75e-02  3.92e-05  3.28e-03  2.69e-02  0.850   4.2
    9    -1853.0365108507849072    -1.47e-02  2.25e-04  1.86e-02  2.24e-02  0.000   4.3
   10    -1853.1136787097229899    -7.72e-02  1.68e-05  2.99e-03  2.66e-03  0.000   4.6
                              *** Initializing SOSCF ***
---------------------------------------S-O-S-C-F--------------------------------------
Iteration    Energy (Eh)           Delta-E    RMSDP     MaxDP     MaxGrad    Time(sec)
--------------------------------------------------------------------------------------
   11    -1853.1137900026387797    -1.11e-04  8.90e-06  1.48e-03  6.41e-04     4.5
               *** Restarting incremental Fock matrix formation ***
   12    -1853.1138104753499647    -2.05e-05  1.13e-05  7.57e-04  8.43e-04     7.4
   13    -1853.1138196651190810    -9.19e-06  8.71e-06  9.22e-04  5.42e-04     5.2
   14    -1853.1138212483265306    -1.58e-06  5.38e-06  4.65e-04  4.50e-04     5.0
   15    -1853.1138247086919364    -3.46e-06  2.15e-06  1.95e-04  8.88e-05     5.1
   16    -1853.1138245890615508     1.20e-07  1.51e-06  1.26e-04  8.44e-05     4.4
   17    -1853.1138252253676910    -6.36e-07  4.13e-07  4.61e-05  1.71e-05     4.3
   18    -1853.1138252171867862     8.18e-09  1.98e-07  2.02e-05  2.42e-05     3.9
                 **** Energy Check signals convergence ****

               *****************************************************
               *                     SUCCESS                       *
               *           SCF CONVERGED AFTER  18 CYCLES          *
               *****************************************************

Recomputing exchange energy using gridx3       ... done (    8.758 sec)
Old exchange energy                            :    -19.918628907 Eh
New exchange energy                            :    -19.918631155 Eh
Exchange energy change after final integration :     -0.000002248 Eh
Total energy after final integration           :  -1853.113827465 Eh

SMD CDS free energy correction energy :                 3.15748     Kcal/mol
Total Energy after SMD CDS correction =             -1853.108795699 Eh
             **** ENERGY FILE WAS UPDATED (rf_mecn_freq_r2s_C5_D_B.en.tmp) ****

----------------
TOTAL SCF ENERGY
----------------

Total Energy       :      -1853.10879569940630 Eh          -50425.65392 eV

Components:
Nuclear Repulsion  :       2642.94881792154229 Eh           71918.29359 eV
Electronic Energy  :      -4495.97853889629550 Eh         -122341.79578 eV
One Electron Energy:      -7860.78406349953912 Eh         -213902.80898 eV
Two Electron Energy:       3364.80552460324407 Eh           91561.01320 eV
CPCM Dielectric    :         -0.08410424243484 Eh              -2.28859 eV
SMD CDS (Gcds)     :          0.00503176542929 Eh               0.13692 eV

Virial components:
Potential Energy   :      -3700.09041857186003 Eh         -100684.57899 eV
Kinetic Energy     :       1846.98162287245395 Eh           50258.92507 eV
Virial Ratio       :          2.00331739782956

DFT components:
N(Alpha)           :       96.000015052038 electrons
N(Beta)            :       95.000011532590 electrons
N(Total)           :      191.000026584628 electrons
E(X)               :     -180.220932312571 Eh       
E(C)               :       -6.649790207349 Eh       
E(XC)              :     -186.870722519920 Eh       

CPCM Solvation Model Properties:
Surface-charge          :          0.99049182801217
Corrected charge        :          1.00000000000000
Outlying charge corr.   :          0.00000500075103 Eh               0.00014 eV
Free-energy (cav+disp)  :          0.00503176542929 Eh               0.13692 eV

---------------
SCF CONVERGENCE
---------------

  Last Energy change         ...   -8.1809e-09  Tolerance :   1.0000e-08
  Last MAX-Density change    ...    2.0191e-05  Tolerance :   1.0000e-07
  Last RMS-Density change    ...    1.9788e-07  Tolerance :   5.0000e-09
  Last DIIS Error            ...    6.4105e-04  Tolerance :   5.0000e-07
  Last Orbital Gradient      ...    2.4237e-05  Tolerance :   1.0000e-05
  Last Orbital Rotation      ...    4.3851e-05  Tolerance :   1.0000e-05


----------------------
UHF SPIN CONTAMINATION
----------------------

Warning: in a DFT calculation there is little theoretical justification to 
         calculate <S**2> as in Hartree-Fock theory. We will do it anyways
         but you should keep in mind that the values have only limited relevance

Expectation value of <S**2>     :     0.757087
Ideal value S*(S+1) for S=0.5   :     0.750000
Deviation                       :     0.007087

----------------
ORBITAL ENERGIES
----------------
                 SPIN UP ORBITALS
  NO   OCC          E(Eh)            E(eV) 
   0   1.0000     -24.740773      -673.2307 
   1   1.0000     -24.730826      -672.9600 
   2   1.0000     -24.729665      -672.9284 
   3   1.0000     -24.729077      -672.9124 
   4   1.0000     -24.728778      -672.9043 
   5   1.0000     -24.728484      -672.8963 
   6   1.0000     -24.723798      -672.7688 
   7   1.0000     -24.717747      -672.6041 
   8   1.0000     -24.716769      -672.5775 
   9   1.0000     -24.715135      -672.5330 
  10   1.0000     -24.709665      -672.3842 
  11   1.0000     -24.708735      -672.3589 
  12   1.0000     -24.685007      -671.7132 
  13   1.0000     -24.684534      -671.7003 
  14   1.0000     -19.049351      -518.3592 
  15   1.0000     -19.047292      -518.3032 
  16   1.0000     -10.438417      -284.0438 
  17   1.0000     -10.382280      -282.5162 
  18   1.0000     -10.381476      -282.4943 
  19   1.0000     -10.372236      -282.2429 
  20   1.0000     -10.354892      -281.7709 
  21   1.0000     -10.321147      -280.8527 
  22   1.0000     -10.304394      -280.3968 
  23   1.0000     -10.233046      -278.4553 
  24   1.0000      -1.359685       -36.9989 
  25   1.0000      -1.323858       -36.0240 
  26   1.0000      -1.314331       -35.7648 
  27   1.0000      -1.305840       -35.5337 
  28   1.0000      -1.297521       -35.3073 
  29   1.0000      -1.292056       -35.1586 
  30   1.0000      -1.270035       -34.5594 
  31   1.0000      -1.268230       -34.5103 
  32   1.0000      -1.264646       -34.4128 
  33   1.0000      -1.257878       -34.2286 
  34   1.0000      -1.248353       -33.9694 
  35   1.0000      -1.246504       -33.9191 
  36   1.0000      -1.236140       -33.6371 
  37   1.0000      -1.209529       -32.9129 
  38   1.0000      -1.028785       -27.9947 
  39   1.0000      -0.944447       -25.6997 
  40   1.0000      -0.853466       -23.2240 
  41   1.0000      -0.820789       -22.3348 
  42   1.0000      -0.789904       -21.4944 
  43   1.0000      -0.750924       -20.4337 
  44   1.0000      -0.704114       -19.1599 
  45   1.0000      -0.677681       -18.4406 
  46   1.0000      -0.654249       -17.8030 
  47   1.0000      -0.636468       -17.3192 
  48   1.0000      -0.629655       -17.1338 
  49   1.0000      -0.625712       -17.0265 
  50   1.0000      -0.608968       -16.5709 
  51   1.0000      -0.606261       -16.4972 
  52   1.0000      -0.602935       -16.4067 
  53   1.0000      -0.597062       -16.2469 
  54   1.0000      -0.594234       -16.1699 
  55   1.0000      -0.582584       -15.8529 
  56   1.0000      -0.573762       -15.6129 
  57   1.0000      -0.564483       -15.3604 
  58   1.0000      -0.562627       -15.3099 
  59   1.0000      -0.555469       -15.1151 
  60   1.0000      -0.538184       -14.6447 
  61   1.0000      -0.519488       -14.1360 
  62   1.0000      -0.500056       -13.6072 
  63   1.0000      -0.492612       -13.4047 
  64   1.0000      -0.487650       -13.2696 
  65   1.0000      -0.481881       -13.1127 
  66   1.0000      -0.473257       -12.8780 
  67   1.0000      -0.472597       -12.8600 
  68   1.0000      -0.468459       -12.7474 
  69   1.0000      -0.463674       -12.6172 
  70   1.0000      -0.461952       -12.5703 
  71   1.0000      -0.459217       -12.4959 
  72   1.0000      -0.450867       -12.2687 
  73   1.0000      -0.448252       -12.1976 
  74   1.0000      -0.447545       -12.1783 
  75   1.0000      -0.443993       -12.0817 
  76   1.0000      -0.440668       -11.9912 
  77   1.0000      -0.435188       -11.8421 
  78   1.0000      -0.432000       -11.7553 
  79   1.0000      -0.428108       -11.6494 
  80   1.0000      -0.426205       -11.5976 
  81   1.0000      -0.424017       -11.5381 
  82   1.0000      -0.419691       -11.4204 
  83   1.0000      -0.416350       -11.3295 
  84   1.0000      -0.412036       -11.2121 
  85   1.0000      -0.403102       -10.9690 
  86   1.0000      -0.396443       -10.7878 
  87   1.0000      -0.388720       -10.5776 
  88   1.0000      -0.385587       -10.4924 
  89   1.0000      -0.375062       -10.2060 
  90   1.0000      -0.356487        -9.7005 
  91   1.0000      -0.334147        -9.0926 
  92   1.0000      -0.264368        -7.1938 
  93   1.0000      -0.241528        -6.5723 
  94   1.0000      -0.225042        -6.1237 
  95   1.0000      -0.222494        -6.0544 
  96   0.0000      -0.007297        -0.1985 
  97   0.0000       0.015802         0.4300 
  98   0.0000       0.032559         0.8860 
  99   0.0000       0.050904         1.3852 
 100   0.0000       0.062331         1.6961 
 101   0.0000       0.089744         2.4421 
 102   0.0000       0.104338         2.8392 
 103   0.0000       0.122539         3.3345 
 104   0.0000       0.128879         3.5070 
 105   0.0000       0.132986         3.6187 
 106   0.0000       0.138224         3.7613 

                 SPIN DOWN ORBITALS
  NO   OCC          E(Eh)            E(eV) 
   0   1.0000     -24.735637      -673.0909 
   1   1.0000     -24.730824      -672.9599 
   2   1.0000     -24.729665      -672.9284 
   3   1.0000     -24.729000      -672.9103 
   4   1.0000     -24.728770      -672.9041 
   5   1.0000     -24.728402      -672.8940 
   6   1.0000     -24.723170      -672.7517 
   7   1.0000     -24.716387      -672.5671 
   8   1.0000     -24.715734      -672.5493 
   9   1.0000     -24.714275      -672.5096 
  10   1.0000     -24.709648      -672.3837 
  11   1.0000     -24.708701      -672.3579 
  12   1.0000     -24.684985      -671.7126 
  13   1.0000     -24.684540      -671.7005 
  14   1.0000     -19.049209      -518.3553 
  15   1.0000     -19.047265      -518.3024 
  16   1.0000     -10.438424      -284.0439 
  17   1.0000     -10.383161      -282.5402 
  18   1.0000     -10.381360      -282.4912 
  19   1.0000     -10.373325      -282.2725 
  20   1.0000     -10.354241      -281.7532 
  21   1.0000     -10.321007      -280.8489 
  22   1.0000     -10.287352      -279.9331 
  23   1.0000     -10.233014      -278.4545 
  24   1.0000      -1.359642       -36.9977 
  25   1.0000      -1.322458       -35.9859 
  26   1.0000      -1.312920       -35.7264 
  27   1.0000      -1.304391       -35.4943 
  28   1.0000      -1.293523       -35.1985 
  29   1.0000      -1.287432       -35.0328 
  30   1.0000      -1.269909       -34.5560 
  31   1.0000      -1.268176       -34.5088 
  32   1.0000      -1.264621       -34.4121 
  33   1.0000      -1.257582       -34.2205 
  34   1.0000      -1.247048       -33.9339 
  35   1.0000      -1.243969       -33.8501 
  36   1.0000      -1.235762       -33.6268 
  37   1.0000      -1.209510       -32.9124 
  38   1.0000      -1.028647       -27.9909 
  39   1.0000      -0.944280       -25.6952 
  40   1.0000      -0.839659       -22.8483 
  41   1.0000      -0.816862       -22.2279 
  42   1.0000      -0.782886       -21.3034 
  43   1.0000      -0.749042       -20.3825 
  44   1.0000      -0.699721       -19.0404 
  45   1.0000      -0.674375       -18.3507 
  46   1.0000      -0.650334       -17.6965 
  47   1.0000      -0.635861       -17.3027 
  48   1.0000      -0.628159       -17.0931 
  49   1.0000      -0.625302       -17.0153 
  50   1.0000      -0.607520       -16.5315 
  51   1.0000      -0.602515       -16.3953 
  52   1.0000      -0.599426       -16.3112 
  53   1.0000      -0.595800       -16.2126 
  54   1.0000      -0.593102       -16.1391 
  55   1.0000      -0.581113       -15.8129 
  56   1.0000      -0.570761       -15.5312 
  57   1.0000      -0.562598       -15.3091 
  58   1.0000      -0.560997       -15.2655 
  59   1.0000      -0.554128       -15.0786 
  60   1.0000      -0.538045       -14.6409 
  61   1.0000      -0.500547       -13.6206 
  62   1.0000      -0.492197       -13.3934 
  63   1.0000      -0.489709       -13.3257 
  64   1.0000      -0.486775       -13.2458 
  65   1.0000      -0.480867       -13.0850 
  66   1.0000      -0.472128       -12.8473 
  67   1.0000      -0.470752       -12.8098 
  68   1.0000      -0.467484       -12.7209 
  69   1.0000      -0.461081       -12.5466 
  70   1.0000      -0.460327       -12.5261 
  71   1.0000      -0.458429       -12.4745 
  72   1.0000      -0.449076       -12.2200 
  73   1.0000      -0.447741       -12.1837 
  74   1.0000      -0.446863       -12.1598 
  75   1.0000      -0.441008       -12.0004 
  76   1.0000      -0.438557       -11.9338 
  77   1.0000      -0.434847       -11.8328 
  78   1.0000      -0.430936       -11.7264 
  79   1.0000      -0.426961       -11.6182 
  80   1.0000      -0.424487       -11.5509 
  81   1.0000      -0.423270       -11.5178 
  82   1.0000      -0.419195       -11.4069 
  83   1.0000      -0.415954       -11.3187 
  84   1.0000      -0.410766       -11.1775 
  85   1.0000      -0.401875       -10.9356 
  86   1.0000      -0.396325       -10.7845 
  87   1.0000      -0.388241       -10.5646 
  88   1.0000      -0.384192       -10.4544 
  89   1.0000      -0.374927       -10.2023 
  90   1.0000      -0.354222        -9.6389 
  91   1.0000      -0.331314        -9.0155 
  92   1.0000      -0.241422        -6.5694 
  93   1.0000      -0.225073        -6.1245 
  94   1.0000      -0.222998        -6.0681 
  95   0.0000      -0.119774        -3.2592 
  96   0.0000      -0.004841        -0.1317 
  97   0.0000       0.017828         0.4851 
  98   0.0000       0.037428         1.0185 
  99   0.0000       0.052395         1.4257 
 100   0.0000       0.078267         2.1298 
 101   0.0000       0.099591         2.7100 
 102   0.0000       0.105791         2.8787 
 103   0.0000       0.125804         3.4233 
 104   0.0000       0.131915         3.5896 
 105   0.0000       0.137666         3.7461 
*Only the first 10 virtual orbitals were printed.

                    ********************************
                    * MULLIKEN POPULATION ANALYSIS *
                    ********************************

--------------------------------------------
MULLIKEN ATOMIC CHARGES AND SPIN POPULATIONS
--------------------------------------------
   0 C :    0.215344    0.001202
   1 O :   -0.509145    0.004349
   2 O :   -0.523817    0.000903
   3 C :    0.338968    0.004310
   4 C :    0.290332    0.026072
   5 C :    0.381370   -0.033129
   6 C :    0.120556    0.844498
   7 C :    0.331474   -0.001249
   8 C :    0.340369   -0.004176
   9 C :    0.470282    0.000080
  10 F :   -0.208395   -0.000065
  11 F :   -0.215075    0.000500
  12 F :   -0.186087    0.000463
  13 F :   -0.192812    0.000434
  14 F :   -0.176730    0.005948
  15 F :   -0.178079    0.014833
  16 F :   -0.148182    0.090121
  17 F :   -0.177635    0.033657
  18 F :   -0.174027    0.008942
  19 F :   -0.166762    0.000778
  20 F :   -0.164387    0.001371
  21 F :   -0.156421    0.000032
  22 F :   -0.155967    0.000121
  23 F :   -0.155177    0.000007
Sum of atomic charges         :   -1.0000000
Sum of atomic spin populations:    1.0000000

-----------------------------------------------------
MULLIKEN REDUCED ORBITAL CHARGES AND SPIN POPULATIONS
-----------------------------------------------------
CHARGE
  0 C s       :     3.016673  s :     3.016673
      pz      :     0.867700  p :     2.493969
      px      :     0.841586
      py      :     0.784683
      dz2     :     0.036876  d :     0.249463
      dxz     :     0.020282
      dyz     :     0.071238
      dx2y2   :     0.045760
      dxy     :     0.075306
      f0      :     0.003263  f :     0.024551
      f+1     :     0.001787
      f-1     :     0.003767
      f+2     :     0.005585
      f-2     :     0.002048
      f+3     :     0.004753
      f-3     :     0.003348

  1 O s       :     3.802059  s :     3.802059
      pz      :     1.545559  p :     4.676156
      px      :     1.537298
      py      :     1.593299
      dz2     :     0.006021  d :     0.029088
      dxz     :     0.004173
      dyz     :     0.007654
      dx2y2   :     0.005308
      dxy     :     0.005933
      f0      :     0.000179  f :     0.001841
      f+1     :     0.000105
      f-1     :     0.000424
      f+2     :     0.000335
      f-2     :     0.000365
      f+3     :     0.000200
      f-3     :     0.000234

  2 O s       :     3.802530  s :     3.802530
      pz      :     1.712038  p :     4.690551
      px      :     1.611037
      py      :     1.367476
      dz2     :     0.003150  d :     0.028919
      dxz     :     0.000202
      dyz     :     0.008124
      dx2y2   :     0.008748
      dxy     :     0.008695
      f0      :     0.000218  f :     0.001817
      f+1     :     0.000039
      f-1     :     0.000280
      f+2     :     0.000327
      f-2     :     0.000015
      f+3     :     0.000517
      f-3     :     0.000420

  3 C s       :     3.118204  s :     3.118204
      pz      :     0.758961  p :     2.263103
      px      :     0.898203
      py      :     0.605939
      dz2     :     0.052485  d :     0.253489
      dxz     :     0.036064
      dyz     :     0.066446
      dx2y2   :     0.046035
      dxy     :     0.052459
      f0      :     0.005481  f :     0.026236
      f+1     :     0.002921
      f-1     :     0.003355
      f+2     :     0.005426
      f-2     :     0.002029
      f+3     :     0.004802
      f-3     :     0.002221

  4 C s       :     3.149936  s :     3.149936
      pz      :     0.643996  p :     2.250969
      px      :     0.939153
      py      :     0.667820
      dz2     :     0.053139  d :     0.281122
      dxz     :     0.055541
      dyz     :     0.070915
      dx2y2   :     0.046671
      dxy     :     0.054856
      f0      :     0.004847  f :     0.027640
      f+1     :     0.003564
      f-1     :     0.006149
      f+2     :     0.003554
      f-2     :     0.002635
      f+3     :     0.004401
      f-3     :     0.002490

  5 C s       :     3.066536  s :     3.066536
      pz      :     0.657460  p :     2.228940
      px      :     0.875988
      py      :     0.695491
      dz2     :     0.062155  d :     0.295636
      dxz     :     0.058478
      dyz     :     0.069121
      dx2y2   :     0.045691
      dxy     :     0.060191
      f0      :     0.004661  f :     0.027518
      f+1     :     0.002645
      f-1     :     0.006691
      f+2     :     0.003427
      f-2     :     0.003503
      f+3     :     0.003982
      f-3     :     0.002607

  6 C s       :     3.221361  s :     3.221361
      pz      :     0.809878  p :     2.484179
      px      :     0.885619
      py      :     0.788682
      dz2     :     0.035446  d :     0.155932
      dxz     :     0.035872
      dyz     :     0.017265
      dx2y2   :     0.025552
      dxy     :     0.041796
      f0      :     0.002722  f :     0.017973
      f+1     :     0.001688
      f-1     :     0.003163
      f+2     :     0.002725
      f-2     :     0.003331
      f+3     :     0.002540
      f-3     :     0.001803

  7 C s       :     3.099127  s :     3.099127
      pz      :     0.641833  p :     2.245809
      px      :     0.878842
      py      :     0.725133
      dz2     :     0.066361  d :     0.295955
      dxz     :     0.064681
      dyz     :     0.061001
      dx2y2   :     0.040760
      dxy     :     0.063152
      f0      :     0.004291  f :     0.027636
      f+1     :     0.004069
      f-1     :     0.006423
      f+2     :     0.003660
      f-2     :     0.003187
      f+3     :     0.002350
      f-3     :     0.003656

  8 C s       :     3.104830  s :     3.104830
      pz      :     0.680473  p :     2.238456
      px      :     0.847658
      py      :     0.710325
      dz2     :     0.059537  d :     0.288179
      dxz     :     0.058474
      dyz     :     0.066076
      dx2y2   :     0.047261
      dxy     :     0.056832
      f0      :     0.005120  f :     0.028166
      f+1     :     0.002935
      f-1     :     0.005670
      f+2     :     0.003806
      f-2     :     0.003583
      f+3     :     0.002630
      f-3     :     0.004421

  9 C s       :     3.020714  s :     3.020714
      pz      :     0.720643  p :     2.110877
      px      :     0.762660
      py      :     0.627574
      dz2     :     0.057870  d :     0.357514
      dxz     :     0.071607
      dyz     :     0.085095
      dx2y2   :     0.077539
      dxy     :     0.065403
      f0      :     0.007351  f :     0.040613
      f+1     :     0.004248
      f-1     :     0.006672
      f+2     :     0.003247
      f-2     :     0.005902
      f+3     :     0.006011
      f-3     :     0.007182

 10 F s       :     3.919651  s :     3.919651
      pz      :     1.898438  p :     5.272140
      px      :     1.903197
      py      :     1.470504
      dz2     :     0.002206  d :     0.015930
      dxz     :     0.000246
      dyz     :     0.003460
      dx2y2   :     0.006288
      dxy     :     0.003730
      f0      :     0.000061  f :     0.000674
      f+1     :     0.000013
      f-1     :     0.000134
      f+2     :     0.000099
      f-2     :     0.000008
      f+3     :     0.000145
      f-3     :     0.000215

 11 F s       :     3.921975  s :     3.921975
      pz      :     1.576113  p :     5.276852
      px      :     1.853529
      py      :     1.847210
      dz2     :     0.005119  d :     0.015585
      dxz     :     0.004165
      dyz     :     0.003952
      dx2y2   :     0.001112
      dxy     :     0.001237
      f0      :     0.000141  f :     0.000663
      f+1     :     0.000149
      f-1     :     0.000161
      f+2     :     0.000078
      f-2     :     0.000106
      f+3     :     0.000013
      f-3     :     0.000014

 12 F s       :     3.925599  s :     3.925599
      pz      :     1.858867  p :     5.243052
      px      :     1.896391
      py      :     1.487794
      dz2     :     0.002123  d :     0.016728
      dxz     :     0.000451
      dyz     :     0.004303
      dx2y2   :     0.005932
      dxy     :     0.003920
      f0      :     0.000070  f :     0.000708
      f+1     :     0.000008
      f-1     :     0.000119
      f+2     :     0.000140
      f-2     :     0.000037
      f+3     :     0.000146
      f-3     :     0.000187

 13 F s       :     3.928875  s :     3.928875
      pz      :     1.492054  p :     5.246727
      px      :     1.864657
      py      :     1.890016
      dz2     :     0.007514  d :     0.016518
      dxz     :     0.004797
      dyz     :     0.003198
      dx2y2   :     0.000606
      dxy     :     0.000402
      f0      :     0.000264  f :     0.000693
      f+1     :     0.000214
      f-1     :     0.000130
      f+2     :     0.000046
      f-2     :     0.000034
      f+3     :     0.000004
      f-3     :     0.000003

 14 F s       :     3.928515  s :     3.928515
      pz      :     1.826966  p :     5.230815
      px      :     1.898454
      py      :     1.505396
      dz2     :     0.002139  d :     0.016698
      dxz     :     0.000692
      dyz     :     0.005114
      dx2y2   :     0.005271
      dxy     :     0.003481
      f0      :     0.000076  f :     0.000702
      f+1     :     0.000005
      f-1     :     0.000121
      f+2     :     0.000173
      f-2     :     0.000056
      f+3     :     0.000120
      f-3     :     0.000149

 15 F s       :     3.926964  s :     3.926964
      pz      :     1.515380  p :     5.234098
      px      :     1.834210
      py      :     1.884508
      dz2     :     0.006706  d :     0.016330
      dxz     :     0.005215
      dyz     :     0.002972
      dx2y2   :     0.000819
      dxy     :     0.000618
      f0      :     0.000213  f :     0.000688
      f+1     :     0.000239
      f-1     :     0.000107
      f+2     :     0.000066
      f-2     :     0.000052
      f+3     :     0.000006
      f-3     :     0.000005

 16 F s       :     3.931120  s :     3.931120
      pz      :     1.649144  p :     5.197582
      px      :     1.893047
      py      :     1.655391
      dz2     :     0.004463  d :     0.018705
      dxz     :     0.002470
      dyz     :     0.006522
      dx2y2   :     0.002990
      dxy     :     0.002259
      f0      :     0.000102  f :     0.000774
      f+1     :     0.000034
      f-1     :     0.000232
      f+2     :     0.000184
      f-2     :     0.000127
      f+3     :     0.000045
      f-3     :     0.000051

 17 F s       :     3.927465  s :     3.927465
      pz      :     1.811967  p :     5.233379
      px      :     1.836926
      py      :     1.584486
      dz2     :     0.002012  d :     0.016119
      dxz     :     0.001595
      dyz     :     0.004589
      dx2y2   :     0.003718
      dxy     :     0.004205
      f0      :     0.000076  f :     0.000672
      f+1     :     0.000027
      f-1     :     0.000095
      f+2     :     0.000110
      f-2     :     0.000134
      f+3     :     0.000132
      f-3     :     0.000099

 18 F s       :     3.929887  s :     3.929887
      pz      :     1.495196  p :     5.226634
      px      :     1.875553
      py      :     1.855885
      dz2     :     0.007062  d :     0.016809
      dxz     :     0.004259
      dyz     :     0.004066
      dx2y2   :     0.000571
      dxy     :     0.000852
      f0      :     0.000235  f :     0.000697
      f+1     :     0.000173
      f-1     :     0.000172
      f+2     :     0.000041
      f-2     :     0.000066
      f+3     :     0.000004
      f-3     :     0.000005

 19 F s       :     3.929110  s :     3.929110
      pz      :     1.858391  p :     5.219811
      px      :     1.824673
      py      :     1.536747
      dz2     :     0.002215  d :     0.017121
      dxz     :     0.001112
      dyz     :     0.003856
      dx2y2   :     0.004700
      dxy     :     0.005237
      f0      :     0.000074  f :     0.000720
      f+1     :     0.000029
      f-1     :     0.000103
      f+2     :     0.000082
      f-2     :     0.000101
      f+3     :     0.000192
      f-3     :     0.000141

 20 F s       :     3.926611  s :     3.926611
      pz      :     1.514012  p :     5.219848
      px      :     1.823020
      py      :     1.882816
      dz2     :     0.006790  d :     0.017199
      dxz     :     0.005613
      dyz     :     0.003115
      dx2y2   :     0.000833
      dxy     :     0.000848
      f0      :     0.000215  f :     0.000728
      f+1     :     0.000253
      f-1     :     0.000105
      f+2     :     0.000071
      f-2     :     0.000070
      f+3     :     0.000006
      f-3     :     0.000008

 21 F s       :     3.923948  s :     3.923948
      pz      :     1.877169  p :     5.214286
      px      :     1.825220
      py      :     1.511896
      dz2     :     0.002440  d :     0.017414
      dxz     :     0.000826
      dyz     :     0.003576
      dx2y2   :     0.005291
      dxy     :     0.005281
      f0      :     0.000073  f :     0.000773
      f+1     :     0.000030
      f-1     :     0.000129
      f+2     :     0.000073
      f-2     :     0.000075
      f+3     :     0.000224
      f-3     :     0.000170

 22 F s       :     3.922940  s :     3.922940
      pz      :     1.884308  p :     5.214933
      px      :     1.638466
      py      :     1.692160
      dz2     :     0.002499  d :     0.017319
      dxz     :     0.002324
      dyz     :     0.001816
      dx2y2   :     0.003776
      dxy     :     0.006905
      f0      :     0.000070  f :     0.000775
      f+1     :     0.000089
      f-1     :     0.000075
      f+2     :     0.000013
      f-2     :     0.000122
      f+3     :     0.000190
      f-3     :     0.000215

 23 F s       :     3.923054  s :     3.923054
      pz      :     1.480043  p :     5.213858
      px      :     1.848182
      py      :     1.885633
      dz2     :     0.007897  d :     0.017485
      dxz     :     0.005250
      dyz     :     0.003235
      dx2y2   :     0.000499
      dxy     :     0.000603
      f0      :     0.000281  f :     0.000781
      f+1     :     0.000261
      f-1     :     0.000129
      f+2     :     0.000050
      f-2     :     0.000052
      f+3     :     0.000004
      f-3     :     0.000005


SPIN
  0 C s       :     0.000890  s :     0.000890
      pz      :     0.000368  p :     0.000175
      px      :     0.000098
      py      :    -0.000292
      dz2     :     0.000196  d :     0.000114
      dxz     :    -0.000054
      dyz     :     0.000065
      dx2y2   :    -0.000090
      dxy     :    -0.000002
      f0      :    -0.000000  f :     0.000023
      f+1     :     0.000001
      f-1     :     0.000010
      f+2     :     0.000003
      f-2     :     0.000003
      f+3     :     0.000009
      f-3     :    -0.000002

  1 O s       :     0.000141  s :     0.000141
      pz      :     0.003467  p :     0.004216
      px      :     0.000036
      py      :     0.000713
      dz2     :    -0.000005  d :    -0.000006
      dxz     :    -0.000002
      dyz     :     0.000002
      dx2y2   :     0.000000
      dxy     :    -0.000001
      f0      :    -0.000000  f :    -0.000001
      f+1     :     0.000000
      f-1     :    -0.000001
      f+2     :    -0.000000
      f-2     :    -0.000000
      f+3     :    -0.000000
      f-3     :     0.000000

  2 O s       :    -0.000064  s :    -0.000064
      pz      :     0.000879  p :     0.000968
      px      :    -0.000266
      py      :     0.000355
      dz2     :     0.000001  d :    -0.000002
      dxz     :    -0.000000
      dyz     :    -0.000003
      dx2y2   :    -0.000003
      dxy     :     0.000004
      f0      :    -0.000000  f :     0.000001
      f+1     :    -0.000000
      f-1     :     0.000000
      f+2     :     0.000000
      f-2     :     0.000000
      f+3     :     0.000000
      f-3     :     0.000000

  3 C s       :    -0.000534  s :    -0.000534
      pz      :    -0.000421  p :     0.004366
      px      :     0.004756
      py      :     0.000031
      dz2     :    -0.000023  d :     0.000457
      dxz     :     0.000121
      dyz     :    -0.000006
      dx2y2   :     0.000302
      dxy     :     0.000062
      f0      :     0.000002  f :     0.000021
      f+1     :    -0.000002
      f-1     :     0.000003
      f+2     :     0.000004
      f-2     :     0.000002
      f+3     :     0.000007
      f-3     :     0.000006

  4 C s       :    -0.000185  s :    -0.000185
      pz      :     0.006464  p :     0.023385
      px      :     0.011486
      py      :     0.005434
      dz2     :     0.000484  d :     0.002892
      dxz     :     0.000030
      dyz     :     0.000097
      dx2y2   :     0.002225
      dxy     :     0.000056
      f0      :    -0.000008  f :    -0.000019
      f+1     :    -0.000009
      f-1     :    -0.000012
      f+2     :    -0.000007
      f-2     :     0.000020
      f+3     :     0.000017
      f-3     :    -0.000019

  5 C s       :    -0.009956  s :    -0.009956
      pz      :    -0.007603  p :    -0.043094
      px      :    -0.025571
      py      :    -0.009920
      dz2     :    -0.000153  d :     0.018526
      dxz     :     0.010226
      dyz     :    -0.000384
      dx2y2   :     0.004876
      dxy     :     0.003960
      f0      :     0.000332  f :     0.001395
      f+1     :     0.000017
      f-1     :     0.000021
      f+2     :     0.000123
      f-2     :     0.000204
      f+3     :     0.000573
      f-3     :     0.000124

  6 C s       :     0.062307  s :     0.062307
      pz      :     0.362214  p :     0.783579
      px      :     0.053558
      py      :     0.367807
      dz2     :     0.001346  d :     0.001619
      dxz     :     0.001349
      dyz     :    -0.001723
      dx2y2   :    -0.001221
      dxy     :     0.001868
      f0      :    -0.000491  f :    -0.003006
      f+1     :    -0.000103
      f-1     :    -0.000946
      f+2     :    -0.000673
      f-2     :    -0.000525
      f+3     :    -0.000186
      f-3     :    -0.000083

  7 C s       :    -0.004269  s :    -0.004269
      pz      :     0.003824  p :    -0.012993
      px      :    -0.022790
      py      :     0.005972
      dz2     :     0.004837  d :     0.014334
      dxz     :     0.002344
      dyz     :    -0.000872
      dx2y2   :     0.000520
      dxy     :     0.007505
      f0      :    -0.000008  f :     0.001680
      f+1     :     0.000972
      f-1     :     0.000088
      f+2     :     0.000264
      f-2     :     0.000040
      f+3     :     0.000027
      f-3     :     0.000297

  8 C s       :    -0.003086  s :    -0.003086
      pz      :     0.000004  p :    -0.000485
      px      :    -0.002659
      py      :     0.002170
      dz2     :    -0.000186  d :    -0.000626
      dxz     :    -0.000174
      dyz     :    -0.000018
      dx2y2   :    -0.000205
      dxy     :    -0.000043
      f0      :    -0.000003  f :     0.000021
      f+1     :     0.000001
      f-1     :    -0.000003
      f+2     :     0.000001
      f-2     :     0.000008
      f+3     :     0.000017
      f-3     :    -0.000000

  9 C s       :    -0.000219  s :    -0.000219
      pz      :     0.000102  p :     0.000296
      px      :    -0.000054
      py      :     0.000249
      dz2     :    -0.000009  d :    -0.000004
      dxz     :    -0.000003
      dyz     :     0.000010
      dx2y2   :    -0.000003
      dxy     :     0.000001
      f0      :     0.000000  f :     0.000007
      f+1     :    -0.000000
      f-1     :     0.000000
      f+2     :     0.000001
      f-2     :     0.000003
      f+3     :     0.000002
      f-3     :     0.000002

 10 F s       :     0.000021  s :     0.000021
      pz      :    -0.000044  p :    -0.000103
      px      :    -0.000017
      py      :    -0.000042
      dz2     :     0.000001  d :     0.000016
      dxz     :     0.000000
      dyz     :     0.000000
      dx2y2   :     0.000002
      dxy     :     0.000012
      f0      :     0.000000  f :     0.000001
      f+1     :     0.000000
      f-1     :     0.000000
      f+2     :     0.000000
      f-2     :     0.000000
      f+3     :     0.000001
      f-3     :     0.000000

 11 F s       :     0.000037  s :     0.000037
      pz      :    -0.000006  p :     0.000446
      px      :     0.000341
      py      :     0.000111
      dz2     :     0.000003  d :     0.000016
      dxz     :     0.000015
      dyz     :    -0.000000
      dx2y2   :    -0.000000
      dxy     :    -0.000000
      f0      :     0.000000  f :     0.000001
      f+1     :     0.000000
      f-1     :     0.000000
      f+2     :     0.000000
      f-2     :     0.000000
      f+3     :    -0.000000
      f-3     :    -0.000000

 12 F s       :     0.000393  s :     0.000393
      pz      :     0.000655  p :    -0.000014
      px      :    -0.000137
      py      :    -0.000532
      dz2     :     0.000005  d :     0.000079
      dxz     :     0.000003
      dyz     :     0.000010
      dx2y2   :     0.000058
      dxy     :     0.000003
      f0      :     0.000000  f :     0.000004
      f+1     :     0.000000
      f-1     :     0.000000
      f+2     :     0.000000
      f-2     :     0.000000
      f+3     :     0.000001
[...]
 15:    123.93   0.000383    1.94  0.000966  ( 0.026344 -0.014508  0.007818)
 16:    160.29   0.001185    5.99  0.002306  ( 0.046871  0.009276 -0.004842)
 17:    177.32   0.000425    2.15  0.000748  (-0.012138 -0.005552  0.023880)
 18:    188.82   0.000125    0.63  0.000207  (-0.004619  0.004311 -0.012914)
 19:    200.42   0.001567    7.92  0.002440  (-0.022103  0.001002  0.044159)
 20:    215.30   0.001043    5.27  0.001512  (-0.023134 -0.031247  0.000655)
 21:    228.04   0.000132    0.67  0.000181  (-0.006778  0.000385 -0.011615)
 22:    234.43   0.000149    0.75  0.000199  ( 0.002256  0.003787  0.013389)
 23:    243.11   0.000013    0.07  0.000017  ( 0.003041 -0.002797  0.000024)
 24:    259.13   0.000156    0.79  0.000188  ( 0.000047 -0.002348 -0.013503)
 25:    280.11   0.000991    5.01  0.001104  ( 0.030915 -0.002097  0.012010)
 26:    288.78   0.000811    4.10  0.000876  ( 0.023394 -0.018119  0.000863)
 27:    311.74   0.000065    0.33  0.000065  (-0.003897  0.007008 -0.000693)
 28:    332.39   0.000322    1.63  0.000302  ( 0.016496 -0.002194  0.005036)
 29:    345.88   0.000256    1.29  0.000231  (-0.014195  0.000582 -0.005402)
 30:    359.22   0.000290    1.47  0.000252  ( 0.011067 -0.002417 -0.011120)
 31:    368.10   0.000447    2.26  0.000379  (-0.018540 -0.002871 -0.005176)
 32:    371.20   0.000252    1.27  0.000212  (-0.014305 -0.002645  0.000453)
 33:    375.15   0.000358    1.81  0.000298  ( 0.017208  0.001422 -0.000069)
 34:    397.14   0.000283    1.43  0.000223  (-0.011689 -0.008003 -0.004693)
 35:    451.59   0.000715    3.62  0.000494  (-0.018271  0.004354 -0.011896)
 36:    469.96   0.000985    4.98  0.000654  (-0.021255  0.014187 -0.001105)
 37:    510.99   0.001146    5.79  0.000700  (-0.005981  0.025298 -0.004906)
 38:    530.28   0.011781   59.54  0.006933  ( 0.080829 -0.019985  0.000678)
 39:    541.49   0.004427   22.37  0.002551  ( 0.046669  0.000062  0.019320)
 40:    548.05   0.002021   10.21  0.001151  (-0.032612 -0.006298 -0.006907)
 41:    576.48   0.002991   15.11  0.001619  ( 0.013493  0.021428 -0.031270)
 42:    596.89   0.005056   25.55  0.002643  ( 0.041315  0.022220  0.021041)
 43:    612.07   0.000227    1.15  0.000116  (-0.008820  0.003751 -0.004908)
 44:    631.96   0.004644   23.47  0.002293  (-0.042092 -0.021742 -0.006997)
 45:    674.62   0.032792  165.72  0.015169  ( 0.121416  0.007682 -0.019178)
 46:    698.77   0.010133   51.21  0.004525  (-0.065820 -0.000481 -0.013879)
 47:    708.16   0.003108   15.71  0.001370  ( 0.016200  0.009796 -0.031798)
 48:    734.03   0.011091   56.05  0.004715  ( 0.040918 -0.023149  0.050051)
 49:    787.10   0.002016   10.19  0.000799  ( 0.025874 -0.011377 -0.000526)
 50:    803.18   0.020150  101.83  0.007829  ( 0.035314  0.028243 -0.076053)
 51:    878.19   0.008218   41.53  0.002920  ( 0.028055 -0.019523  0.041856)
 52:   1016.07   0.018857   95.30  0.005792  ( 0.034514 -0.043649  0.051915)
 53:   1062.34   0.024253  122.56  0.007124  (-0.064590 -0.053537  0.009284)
 54:   1091.96   0.054870  277.29  0.015681  ( 0.042976  0.098014 -0.065017)
 55:   1105.12   0.045683  230.86  0.012900  ( 0.021091  0.079846  0.077972)
 56:   1126.65   0.006281   31.74  0.001740  ( 0.012877 -0.039528  0.003399)
 57:   1130.56   0.028734  145.21  0.007931  ( 0.028340 -0.050740  0.067479)
 58:   1136.12   0.070880  358.20  0.019469  ( 0.055983  0.025302  0.125278)
 59:   1154.41   0.055257  279.25  0.014937  (-0.007341  0.108205  0.056347)
 60:   1163.62   0.062498  315.84  0.016761  ( 0.025913  0.096205  0.082669)
 61:   1176.22   0.071953  363.62  0.019090  (-0.056088 -0.067949  0.106429)
 62:   1188.62   0.121063  611.80  0.031784  ( 0.073148 -0.148021 -0.067255)
 63:   1208.42   0.084000  424.50  0.021692  (-0.067309 -0.072199  0.109312)
 64:   1242.42   0.001871    9.46  0.000470  (-0.007688 -0.002179 -0.020152)
 65:   1255.70   0.012173   61.51  0.003025  (-0.008825 -0.054261 -0.001731)
 66:   1270.65   0.006734   34.03  0.001654  (-0.001465 -0.017109 -0.036864)
 67:   1327.06   0.023660  119.57  0.005564  ( 0.046772 -0.003165  0.058018)
 68:   1358.69   0.014940   75.50  0.003431  (-0.026457  0.011149 -0.051059)
 69:   1383.57   0.068248  344.90  0.015393  (-0.103399 -0.023255  0.064508)
 70:   1424.98   0.003409   17.23  0.000747  (-0.010685  0.019167  0.016283)
 71:   1757.53   0.159643  806.77  0.028346  (-0.033620  0.156214  0.053035)

* The epsilon (eps) is given for a Dirac delta lineshape.
** The dipole moment derivative (T) already includes vibrational overlap.

The first frequency considered to be a vibration is 6
The total number of vibrations considered is 66


--------------------------
THERMOCHEMISTRY AT 298.15K
--------------------------

Temperature         ...   298.15 K
Pressure            ...     1.00 atm
Total Mass          ...   394.06 AMU
Quasi RRHO          ...     True
Cut-Off Frequency   ...     1.00 cm^-1

Throughout the following assumptions are being made:
  (1) The electronic state is orbitally nondegenerate
      but the spin degeneracy is treated
  (2) There are no thermally accessible electronically excited states
  (3) Hindered rotations indicated by low frequency modes are not
      treated as such but are treated as vibrations and this may
      cause some error
  (4) All equations used are the standard statistical mechanics
      equations for an ideal gas
  (5) All vibrations are strictly harmonic

freq.       8.06  E(vib)   ...       0.58 
freq.      27.04  E(vib)   ...       0.55 
freq.      29.14  E(vib)   ...       0.55 
freq.      36.31  E(vib)   ...       0.54 
freq.      48.00  E(vib)   ...       0.53 
freq.      54.12  E(vib)   ...       0.52 
freq.      77.07  E(vib)   ...       0.49 
freq.      86.73  E(vib)   ...       0.48 
freq.     101.71  E(vib)   ...       0.46 
freq.     123.93  E(vib)   ...       0.43 
freq.     160.29  E(vib)   ...       0.39 
freq.     177.32  E(vib)   ...       0.37 
freq.     188.82  E(vib)   ...       0.36 
freq.     200.42  E(vib)   ...       0.35 
freq.     215.30  E(vib)   ...       0.34 
freq.     228.04  E(vib)   ...       0.33 
freq.     234.43  E(vib)   ...       0.32 
freq.     243.11  E(vib)   ...       0.31 
freq.     259.13  E(vib)   ...       0.30 
freq.     280.11  E(vib)   ...       0.28 
freq.     288.78  E(vib)   ...       0.27 
freq.     311.74  E(vib)   ...       0.25 
freq.     332.39  E(vib)   ...       0.24 
freq.     345.88  E(vib)   ...       0.23 
freq.     359.22  E(vib)   ...       0.22 
freq.     368.10  E(vib)   ...       0.21 
freq.     371.20  E(vib)   ...       0.21 
freq.     375.15  E(vib)   ...       0.21 
freq.     397.14  E(vib)   ...       0.20 
freq.     451.59  E(vib)   ...       0.16 
freq.     469.96  E(vib)   ...       0.16 
freq.     510.99  E(vib)   ...       0.14 
freq.     530.28  E(vib)   ...       0.13 
freq.     541.49  E(vib)   ...       0.12 
freq.     548.05  E(vib)   ...       0.12 
freq.     576.48  E(vib)   ...       0.11 
freq.     596.89  E(vib)   ...       0.10 
freq.     612.07  E(vib)   ...       0.10 
freq.     631.96  E(vib)   ...       0.09 
freq.     674.62  E(vib)   ...       0.08 
freq.     698.77  E(vib)   ...       0.07 
freq.     708.16  E(vib)   ...       0.07 
freq.     734.03  E(vib)   ...       0.06 
freq.     787.10  E(vib)   ...       0.05 
freq.     803.18  E(vib)   ...       0.05 
freq.     878.19  E(vib)   ...       0.04 
freq.    1016.07  E(vib)   ...       0.02 
freq.    1062.34  E(vib)   ...       0.02 
freq.    1091.96  E(vib)   ...       0.02 
freq.    1105.12  E(vib)   ...       0.02 
freq.    1126.65  E(vib)   ...       0.01 
freq.    1130.56  E(vib)   ...       0.01 
freq.    1136.12  E(vib)   ...       0.01 
freq.    1154.41  E(vib)   ...       0.01 
freq.    1163.62  E(vib)   ...       0.01 
freq.    1176.22  E(vib)   ...       0.01 
freq.    1188.62  E(vib)   ...       0.01 
freq.    1208.42  E(vib)   ...       0.01 
freq.    1242.42  E(vib)   ...       0.01 
freq.    1255.70  E(vib)   ...       0.01 
freq.    1270.65  E(vib)   ...       0.01 
freq.    1327.06  E(vib)   ...       0.01 
freq.    1358.69  E(vib)   ...       0.01 
freq.    1383.57  E(vib)   ...       0.00 
freq.    1424.98  E(vib)   ...       0.00 
freq.    1757.53  E(vib)   ...       0.00 

------------
INNER ENERGY
------------

The inner energy is: U= E(el) + E(ZPE) + E(vib) + E(rot) + E(trans)
    E(el)   - is the total energy from the electronic structure calculation
              = E(kin-el) + E(nuc-el) + E(el-el) + E(nuc-nuc)
    E(ZPE)  - the the zero temperature vibrational energy from the frequency calculation
    E(vib)  - the the finite temperature correction to E(ZPE) due to population
              of excited vibrational states
    E(rot)  - is the rotational thermal energy
    E(trans)- is the translational thermal energy

Summary of contributions to the inner energy U:
Electronic energy                ...  -1853.11688736 Eh
Zero point energy                ...      0.09400454 Eh      58.99 kcal/mol
Thermal vibrational correction   ...      0.01974311 Eh      12.39 kcal/mol
Thermal rotational correction    ...      0.00141627 Eh       0.89 kcal/mol
Thermal translational correction ...      0.00141627 Eh       0.89 kcal/mol
-----------------------------------------------------------------------
Total thermal energy                  -1853.00030717 Eh


Summary of corrections to the electronic energy:
(perhaps to be used in another calculation)
Total thermal correction                  0.02257565 Eh      14.17 kcal/mol
Non-thermal (ZPE) correction              0.09400454 Eh      58.99 kcal/mol
-----------------------------------------------------------------------
Total correction                          0.11658019 Eh      73.16 kcal/mol


--------
ENTHALPY
--------

The enthalpy is H = U + kB*T
                kB is Boltzmann's constant
Total thermal energy              ...  -1853.00030717 Eh 
Thermal Enthalpy correction       ...      0.00094421 Eh       0.59 kcal/mol
-----------------------------------------------------------------------
Total Enthalpy                    ...  -1852.99936296 Eh


Note: Only C1 symmetry has been detected, increase convergence thresholds 
      if your molecule has a higher symmetry. Symmetry factor of 1.0 is   
      used for the rotational entropy correction. 
 

Note: Rotational entropy computed according to Herzberg 
Infrared and Raman Spectra, Chapter V,1, Van Nostrand Reinhold, 1945 
Point Group:  C1, Symmetry Number:   1  
Rotational constants in cm-1:     0.018322     0.004292     0.004161 

Vibrational entropy computed according to the QRRHO of S. Grimme
Chem.Eur.J. 2012 18 9955 using a reference frequency of 100.0 cm-1


-------
ENTROPY
-------

The entropy contributions are T*S = T*(S(el)+S(vib)+S(rot)+S(trans))
     S(el)   - electronic entropy
     S(vib)  - vibrational entropy
     S(rot)  - rotational entropy
     S(trans)- translational entropy
The entropies will be listed as multiplied by the temperature to get
units of energy

Electronic entropy                ...      0.00065446 Eh      0.41 kcal/mol
Vibrational entropy               ...      0.03623614 Eh     22.74 kcal/mol
Rotational entropy                ...      0.01656039 Eh     10.39 kcal/mol
Translational entropy             ...      0.02081341 Eh     13.06 kcal/mol
-----------------------------------------------------------------------
Final entropy term                ...      0.07426440 Eh     46.60 kcal/mol

In case the symmetry of your molecule has not been determined correctly
or in case you have a reason to use a different symmetry number we print 
out the resulting rotational entropy values for sn=1,12:

 non-linear molecules -----------------------------------
|  sn= 1 | S(rot)=       0.01656039 Eh     10.39 kcal/mol|
|  sn= 2 | S(rot)=       0.01590593 Eh      9.98 kcal/mol|
|  sn= 3 | S(rot)=       0.01552310 Eh      9.74 kcal/mol|
|  sn= 4 | S(rot)=       0.01525147 Eh      9.57 kcal/mol|
|  sn= 5 | S(rot)=       0.01504079 Eh      9.44 kcal/mol|
|  sn= 6 | S(rot)=       0.01486864 Eh      9.33 kcal/mol|
|  sn= 7 | S(rot)=       0.01472310 Eh      9.24 kcal/mol|
|  sn= 8 | S(rot)=       0.01459702 Eh      9.16 kcal/mol|
|  sn= 9 | S(rot)=       0.01448581 Eh      9.09 kcal/mol|
|  sn=10 | S(rot)=       0.01438633 Eh      9.03 kcal/mol|
|  sn=11 | S(rot)=       0.01429634 Eh      8.97 kcal/mol|
|  sn=12 | S(rot)=       0.01421419 Eh      8.92 kcal/mol|
 linear molecules ---------------------------------------
|  Dinfh | S(rot)=       0.01050188 Eh      6.59 kcal/mol|
|  Cinfv | S(rot)=       0.01115633 Eh      7.00 kcal/mol|
 --------------------------------------------------------


-------------------
GIBBS FREE ENERGY
-------------------

The Gibbs free energy is G = H - T*S

Total enthalpy                    ...  -1852.99936296 Eh 
Total entropy correction          ...     -0.07426440 Eh    -46.60 kcal/mol
-----------------------------------------------------------------------
Final Gibbs free energy         ...  -1853.07362736 Eh

For completeness - the Gibbs free energy minus the electronic energy
G-E(el)                           ...      0.04326000 Eh     27.15 kcal/mol


Maximum memory used throughout the entire PROP-calculation: 521.5 MB

--------------------------------
SUGGESTED CITATIONS FOR THIS RUN
--------------------------------

Below you find a list of papers that are relevant to this ORCA run
We neither can nor want to force you to cite these papers, but we appreciate if you do
You receive ORCA, which is the product of decades of hard work by many enthusiastic individuals, for free
The only thing we kindly ask in return is that you cite our papers,
We deeply appreciate it, if you show your appreciation for ORCA by not just citing the generic ORCA reference.

Please note that relegating all ORCA citations to the supporting information does *not* help us.
SI sections are not indexed - citations you put there will not count into any citation statistics
But we need these citations in order to attract the funding resources that allow us to do what we are doing

Therefore, if you are a happy ORCA user, please consider citing a few of the papers listed below in the main body of your paper

In addition to the list printed below, the program has created the file rf_mecn_freq_r2s_C5_D_B.bibtex that contains the list in bibtex format
You can import this file easily into all common literature databanks and citation aid programs


List of essential papers. We consider these as the minimum necessary citations

  1. Neese,F.
     Software update: the ORCA program system, version 5.0
     WIRES Comput. Molec. Sci., 2022 12(1)e1606
     doi.org/10.1002/wcms.1606

List of papers to cite with high priority. The work reported in these papers was absolutely
necessary for this run to complete.
Our perspective: the developers of density functionals and basis sets usually get cited in chemistry papers
Good! But without the algorithms to do something with them, the functionals or basis sets would not do anything.
Hence, in our opinion, the algorithm design and method developments papers are equally worthy of getting cited

  1. Neese,F.
     An improvement of the resolution of the identity approximation for the formation of the Coulomb matrix
     J. Comp. Chem., 2003 24(14)1740-1747
     doi.org/10.1002/jcc.10318
  2. Neese,F.; Wennmohs,F.; Hansen,A.; Becker,U.
     Efficient, approximate and parallel Hartree-Fock and hybrid DFT calculations. A 'chain-of-spheres' algorithm for the Hartree-Fock exchange
     Chem. Phys., 2009 356(1-3)98-109
     doi.org/10.1016/j.chemphys.2008.10.036
  3. Bykov,D.; Petrenko,T.; Izsak,R.; Kossmann,S.; Becker,U.; Valeev,E.; Neese,F.
     Efficient implementation of the analytic second derivatives of Hartree-Fock and hybrid DFT energies: a detailed analysis of different approximations
     Molec. Phys., 2015 113 1961-1977
     doi.org/10.1080/00268976.2015.1025114
  4. Garcia-Rates,M.; Neese,F.
     Efficient implementation of the analytical second derivatives of hartree-fock and hybrid DFT energies within the framework of the conductor-like polarizable continuum model
     J. Comput. Chem., 2019 40 1816-1828
     doi.org/10.1002/jcc.25833
  5. Garcia-Rates,M.; Neese,F.
     Effect of the Solute Cavity on the Solvation Energy and its Derivatives within the Framework of the Gaussian Charge Scheme
     J. Comput. Chem., 2020 41 922-939
     doi.org/10.1002/jcc.26139
  6. Helmich-Paris,B.; de Souza,B.; Neese,F.; Izsák,R.
     An improved chain of spheres for exchange algorithm
     J. Chem. Phys., 2021 155 104109
     doi.org/doi: 10.1063/5.0058766.
  7. Neese,F.
     The SHARK Integral Generation and Digestion System
     J. Comp. Chem., 2022  1-16
     doi.org/10.1002/jcc.26942
  8. Lehtola,S.; Steigemann,C.; Oliveira,M.; Marques,M.
     Recent developments in Libxc - A comprehensive library of functionals for density functional theory
     Software X, 2018 7 
     doi.org/10.1016/j.softx.2017.11.002
  9. Grimme,S.; Antony,J.; Ehrlich,S.; Krieg,H.
     A consistent and accurate ab initio parametrization of density functional dispersion correction (DFT-D) for the 94 elements H-Pu
     J. Chem. Phys., 2010 132 154104
     doi.org/10.1063/1.3382344
 10. Grimme,S.; Ehrlich,S.; Goerigk,L.
     Effect of the damping function in dispersion corrected density functional theory
     J. Comput. Chem., 2011 32(7)1456-1465
     doi.org/10.1002/jcc.21759
 11. Bursch,M.; Neugebauer,H.; Ehlert,S.; Grimme,S.
     Dispersion corrected r2SCAN based global hybrid functionals: r2SCANh, r2SCAN0, and r2SCAN50
     J. Phys. Chem., 2022 156(13)134105
     doi.org/10.1063/5.0086040

List of suggested additional citations. These are papers that are important in the 'surrounding' of 
of this run, or papers that preceded the highly important papers. If you like your results we are grateful for a citation.

  1. Izsak,R.; Neese,F.
     An overlap fitted chain of spheres exchange method
     J. Chem. Phys., 2011 135 144105
     doi.org/10.1063/1.3646921
  2. Izsak,R.; Hansen,A.; Neese,F.
     The resolution of identity and chain of spheres approximations for the LPNO-CCSD singles Fock term
     Molec. Phys., 2012 110 2413-2417
     doi.org/10.1080/00268976.2012.687466
  3. Neese,F.
     The ORCA program system
     WIRES Comput. Molec. Sci., 2012 2(1)73-78
     doi.org/10.1002/wcms.81
  4. Izsak,R.; Neese,F.; Klopper,W.
     Robust fitting techniques in the chain of spheres approximation to the Fock exchange: The role of the complementary space
     J. Chem. Phys., 2013 139 
     doi.org/10.1063/1.4819264
  5. Neese,F.
     Software update: the ORCA program system, version 4.0
     WIRES Comput. Molec. Sci., 2018 8(1)1-6
     doi.org/10.1002/wcms.1327
  6. Neese,F.; Wennmohs,F.; Becker,U.; Riplinger,C.
     The ORCA quantum chemistry program package
     J. Chem. Phys., 2020 152 Art. No. L224108
     doi.org/10.1063/5.0004608
  7. Wittmann,L.; Neugebauer,H.; Grimme,S.; Bursch,M.
     Dispersion-corrected r2SCAN based double-hybrid functionals
     J. Chem. Phys., 2023 159(22)224103
     doi.org/10.1063/5.0174988

List of optional additional citations

  1. Neese,F.
     Approximate second-order SCF convergence for spin unrestricted wavefunctions
     Chem. Phys. Lett., 2000 325(1-3)93-98
     doi.org/10.1016/s0009-2614(00)00662-x

Timings for individual modules:

Sum of individual times          ...     1424.611 sec (=  23.744 min)
Startup calculation              ...        4.412 sec (=   0.074 min)   0.3 %
SCF iterations                   ...      102.849 sec (=   1.714 min)   7.2 %
Property integrals               ...      424.068 sec (=   7.068 min)  29.8 %
SCF Response                     ...      617.431 sec (=  10.291 min)  43.3 %
Property calculations            ...      275.851 sec (=   4.598 min)  19.4 %
                             ****ORCA TERMINATED NORMALLY****
TOTAL RUN TIME: 0 days 0 hours 23 minutes 45 seconds 426 msec
