
                                 *****************
                                 * O   R   C   A *
                                 *****************

                                            #,                                       
                                            ###                                      
                                            ####                                     
                                            #####                                    
                                            ######                                   
                                           ########,                                 
                                     ,,################,,,,,                         
                               ,,#################################,,                 
                          ,,##########################################,,             
                       ,#########################################, ''#####,          
                    ,#############################################,,   '####,        
                  ,##################################################,,,,####,       
                ,###########''''           ''''###############################       
              ,#####''   ,,,,##########,,,,          '''####'''          '####       
            ,##' ,,,,###########################,,,                        '##       
           ' ,,###''''                  '''############,,,                           
         ,,##''                                '''############,,,,        ,,,,,,###''
      ,#''                                            '''#######################'''  
     '                                                          ''''####''''         
             ,#######,   #######,   ,#######,      ##                                
            ,#'     '#,  ##    ##  ,#'     '#,    #''#        ,####,   ,####,        
            ##       ##  ##   ,#'  ##            #'  '#       #'       #'  '#        
            ##       ##  #######   ##           ,######,      #####,   #    #        
            '#,     ,#'  ##    ##  '#,     ,#' ,#      #,     #,   #   #,  ,#        
             '#######'   ##     ##  '#######'  #'      '#     '####' # '####'        



                #########################################################
                #                        -***-                          #
                #          Department of theory and spectroscopy        #
                #                                                       #
                #                      Frank Neese                      #
                #                                                       #
                #     Directorship, Architecture, Infrastructure        #
                #                    SHARK, DRIVERS                     #
                #        Core code/Algorithms in most modules           #
                #                                                       #
                #        Max Planck Institute fuer Kohlenforschung      #
                #                Kaiser Wilhelm Platz 1                 #
                #                 D-45470 Muelheim/Ruhr                 #
                #                      Germany                          #
                #                                                       #
                #                  All rights reserved                  #
                #                        -***-                          #
                #########################################################


                         Program Version 6.0.1  -  RELEASE   -


 With contributions from (in alphabetic order):
[Max-Planck-Institut fuer Kohlenforschung]                               
  Daniel Aravena         : Magnetic Suceptibility                        
  Michael Atanasov       : Ab Initio Ligand Field Theory (pilot matlab implementation)
  Alexander A. Auer      : GIAO ZORA, VPT2 properties, NMR spectrum      
  Ute Becker             : All parallelization in ORCA, NUMFREQ, NUMCALC 
  Giovanni Bistoni       : ED, misc. LED, open-shell LED, HFLD           
  Martin Brehm           : Molecular dynamics                            
  Dmytro Bykov           : pre 5.0 version of the SCF Hessian            
  Marcos Casanova-Páez   : Triplet and SCS-CIS(D). UHF-(DLPNO)-IP/EA/STEOM-CCSD. UHF-CVS-IP/STEOM-CCSD   
  Vijay G. Chilkuri      : MRCI spin determinant printing, contributions to CSF-ICE 
  Pauline Colinet        : FMM embedding                                 
  Dipayan Datta          : RHF DLPNO-CCSD density                        
  Achintya Kumar Dutta   : EOM-CC, STEOM-CC                              
  Nicolas Foglia         : Exact transition moments, OPA infrastructure, MCD improvements    
  Dmitry Ganyushin       : Spin-Orbit,Spin-Spin,Magnetic field MRCI      
  Miquel Garcia-Rates    : C-PCM and meta-GGA Hessian, CCSD/C-PCM, Gaussian charge scheme 
  Tiago L. C. Gouveia    : GS-ROHF, GS-ROCIS                             
  Yang Guo               : DLPNO-NEVPT2, F12-NEVPT2, CIM, IAO-localization        
  Andreas Hansen         : Spin unrestricted coupled pair/coupled cluster methods 
  Ingolf Harden          : AUTO-CI MPn and infrastructure                
  Benjamin Helmich-Paris : MC-RPA, TRAH-(SCF,CASSCF), AVAS, COSX integrals, SCF dyn. polar. 
  Lee Huntington         : MR-EOM, pCC                                   
  Robert Izsak           : Overlap fitted RIJCOSX, COSX-SCS-MP3, EOM     
  Riya Kayal             : Wick's Theorem for AUTO-CI, AUTO-CI UHF-CCSDT 
  Emily Kempfer          : AUTO-CI, RHF CISDT and CCSDT                  
  Christian Kollmar      : KDIIS, OOCD, Brueckner-CCSD(T), CCSD density, CASPT2, CASPT2-K, improved NEVPT2 
  Axel Koslowski         : Symmetry handling                             
  Simone Kossmann        : meta-GGA functionals, TD-DFT gradient, OOMP2, (MP2 Hessian; deprecated post 5.0) 
  Lucas Lang             : DCDCAS                                        
  Marvin Lechner         : AUTO-CI (C++ implementation), FIC-MRCC        
  Spencer Leger          : CASSCF response                               
  Dagmar Lenk            : GEPOL surface, SMD, ORCA-2-JSON               
  Dimitrios Liakos       : Extrapolation schemes; Compound Job, initial MDCI parallelization 
  Dimitrios Manganas     : Further ROCIS development; embedding schemes. LFT, Crystal Embedding 
  Dimitrios Pantazis     : SARC Basis sets                               
  Anastasios Papadopoulos: AUTO-CI, single reference methods and gradients 
  Taras Petrenko         : pre 6.0 DFT Hessian and TD-DFT gradient, (ASA, deprecated), ECA, 1-Electron XAS/XES, NRVS 
  Peter Pinski           : DLPNO-MP2, DLPNO-MP2 Gradient                 
  Christoph Reimann      : Effective Core Potentials                     
  Marius Retegan         : Local ZFS, SOC                                
  Christoph Riplinger    : Optimizer, TS searches, QM/MM, DLPNO-CCSD(T), (RO)-DLPNO pert. Triples 
  Michael Roemelt        : Original ROCIS implementation                 
  Masaaki Saitow         : Open-shell DLPNO-CCSD energy and density      
  Barbara Sandhoefer     : DKH picture change effects                    
  Kantharuban Sivalingam : CASSCF convergence/infrastructure, NEVPT2 and variants, FIC-MRCI 
  Bernardo de Souza      : ESD, SOC TD-DFT                               
  Georgi L. Stoychev     : AutoAux, RI-MP2 NMR, DLPNO-MP2 response, X2C  
  Van Anh Tran           : RI-MP2 g-tensors                              
  Willem Van den Heuvel  : Paramagnetic NMR                              
  Zikuan Wang            : NOTCH, Electric field optimization            
  Frank Wennmohs         : Technical directorship and infrastructure     
  Hang Xu                : AUTO-CI-Response properties                   
                                                                         
[FACCTs GmbH]                                                            
  Markus Bursch, Miquel Garcia-Rates, Christoph Riplinger, Bernardo de Souza, Georgi L. Stoychev 
                                                                 
  APM, Basis sets (HGBS, AHGBS, def-TZVP (Ac-Lr), def2-XVPD (La-Lu)), CI-OPT, improved COSX, DLPNO-Multilevel,           
  DOCKER, DRACO, updates on ESD, GOAT, IRC, LR-CPCM, MBIS, meta-GGA TD-DFT gradient, ML-optimized integration grids, 
  MM, NACMEs, nearIR, NEB, NEB-TS, NL-DFT gradient (VV10), 2- and 3-layer-ONIOM, interface openCOSMO-RS, QMMM,   
  Crystal-QMMM, SF, symmetry and pop. for TD-DFT, r2SCAN hybrids, SOLVATOR                                   
                                                                         
[Other institutions]                                                     
  V. Asgeirsson          : NEB                                           
  Christoph Bannwarth    : sTDA-DFT, sTD-DFT, PBEh-3c, B97-3c, D3        
  Sebastian Ehlert       : rSCAN, r2SCAN, r2SCAN-3c, D4, dhf basis sets  
  Marvin Friede          : D4 for Fr, Ra, Ac-Lr                          
  Lars Goerigk           : TD-DFT with DH, B97 family of functionals     
  Stefan Grimme          : VdW corrections, initial TS optimization, DFT functionals, gCP, sTDA/sTD-DF 
  Waldemar Hujo          : DFT-NL                                        
  H. Jonsson             : NEB                                           
  Holger Kruse           : gCP                                           
  Marcel Mueller         : wB97X-3c, vDZP basis set                      
  Hagen Neugebauer       : wr2SCAN                                       
  Tobias Risthaus        : range-separated hybrid DFT                    
  Lukas Wittmann         : regularized MP2, r2SCAN double-hybrids, wr2SCAN        
                                                                         
We gratefully acknowledge several colleagues who have allowed us to      
interface, adapt or use parts of their codes:                            
  Ed Valeev, F. Pavosevic, A. Kumar             : LibInt (2-el integral package), F12 methods 
  Garnet Chan, S. Sharma, J. Yang, R. Olivares  : DMRG                   
  Ulf Ekstrom                                   : XCFun DFT Library      
  Mihaly Kallay                                 : mrcc  (arbitrary order and MRCC methods)
  Frank Weinhold                                : gennbo (NPA and NBO analysis)           
  Simon Mueller                                 : openCOSMO-RS                            
  Christopher J. Cramer and Donald G. Truhlar   : smd solvation model                     
  S Lehtola, MJT Oliveira, MAL Marques          : LibXC Library                           
  Liviu Ungur et al                             : ANISO software                          


 Your calculation uses the libint2 library for the computation of 2-el integrals
 For citations please refer to: http://libint.valeyev.net

 Your ORCA version has been built with support for libXC version: 6.2.2
 For citations please refer to: https://libxc.gitlab.io

 This ORCA versions uses:
   CBLAS   interface :  Fast vector & matrix operations
   LAPACKE interface :  Fast linear algebra routines
   SCALAPACK package :  Parallel linear algebra routines
   Shared memory     :  Shared parallel matrices
   BLAS/LAPACK       :  OpenBLAS 0.3.27  USE64BITINT DYNAMIC_ARCH NO_AFFINITY SkylakeX SINGLE_THREADED
        Core in use  :  SkylakeX
   Copyright (c) 2011-2014, The OpenBLAS Project


NOTE: MaxCore=8000 MB was set to SCF,MP2,MDCI,CIPSI,MRCI and CIS
      => If you want to overwrite this, your respective input block should be placed after the MaxCore statement
Your calculation utilizes the atom-pairwise dispersion correction
with the Becke-Johnson damping scheme (D3BJ)


Your calculation utilizes the SMD solvation module
Please cite in your paper:
A.V. Marenich, C.J. Cramer, D.G. Truhlar J. Phys. Chem. B, 113, (2009), 6378 

Warning: RI is on but no J-basis has been assigned. Assigning Def2/J (nothing to worry about!)
================================================================================

----- Orbital basis set information -----
Your calculation utilizes the basis: def2-TZVP
   F. Weigend and R. Ahlrichs, Phys. Chem. Chem. Phys. 7, 3297 (2005).

----- AuxJ basis set information -----
Your calculation utilizes the auxiliary basis: def2/J
   F. Weigend, Phys. Chem. Chem. Phys. 8, 1057 (2006).

================================================================================
                                        WARNINGS
                       Please study these warnings very carefully!
================================================================================

WARNING: Old DensityContainer found on disk!
         Will remove this file - 
         If you want to keep old densities, please start your calculation with a different basename. 


WARNING: Geometry Optimization
  ===> : Switching off AutoStart
         For restart on a previous wavefunction, please use MOREAD

================================================================================
                                       INPUT FILE
================================================================================
NAME = rf_mecn_1H2O_opt_B3L_sw_003.inp
|  1> !B3LYP def2-TZVP opt d3 TightSCF SlowConv defgrid2
|  2>  
|  3> %pal
|  4> nprocs 20
|  5> end
|  6>  
|  7> %scf
|  8> MaxIter 1500
|  9> end
| 10>  
| 11> %maxcore 8000
| 12>  
| 13> !CPCM
| 14> %cpcm smd true
| 15> SMDsolvent "ACETONITRILE"
| 16> end
| 17>  
| 18> * xyz -1 1
| 19> 6        6.857280945     27.901753127      3.100719684
| 20> 6        6.154044945     26.704598127      2.411135684
| 21> 6        7.086539945     25.482838127      2.185613684
| 22> 6        6.299616945     24.171731127      1.900070684
| 23> 6        7.185881945     23.070259127      1.248991684
| 24> 6        6.565390945     21.647303127      1.360366684
| 25> 6        7.185681945     20.616666127      0.394672684
| 26> 6        6.843394945     19.121603127      0.784430684
| 27> 9        8.006806945     28.182557127      2.503585684
| 28> 9        7.082780945     27.647576127      4.378925684
| 29> 9        6.067588945     28.966668127      3.018348684
| 30> 9        5.116418945     26.361022127      3.182510684
| 31> 9        5.702795945     27.135986127      1.230360684
| 32> 9        7.887905945     25.777720127      1.156931684
| 33> 9        7.829891945     25.318192127      3.287321684
| 34> 9        5.806494945     23.745652127      3.066652684
| 35> 9        5.287431945     24.474179127      1.076603684
| 36> 9        7.350609945     23.413929127     -0.034316316
| 37> 9        8.377622945     23.098911127      1.865134684
| 38> 9        6.756126945     21.255165127      2.631170684
| 39> 9        5.250981945     21.784657127      1.133608684
| 40> 9        6.706596945     20.903759127     -0.845345316
| 41> 9        8.519170945     20.869305127      0.364163684
| 42> 8        7.813741945     18.363469127      0.789215684
| 43> 8        5.634555945     18.967368127      0.997888684
| 44> 8        2.818390092     18.736599843      1.412612662
| 45> 1        2.716934106     17.791620290      1.243555674
| 46> 1        3.748070901     18.906228277      1.215686974
| 47> *
| 48> 
| 49>                          ****END OF INPUT****
================================================================================

                       *****************************
                       * Geometry Optimization Run *
                       *****************************

Geometry optimization settings:
Update method            Update   .... BFGS
Choice of coordinates    CoordSys .... (2022) Redundant Internals
Initial Hessian          InHess   .... Almloef's Model
Max. no of cycles        MaxIter  .... 84

Convergence Tolerances:
Energy Change            TolE     ....  5.0000e-06 Eh
Max. Gradient            TolMAXG  ....  3.0000e-04 Eh/bohr
RMS Gradient             TolRMSG  ....  1.0000e-04 Eh/bohr
Max. Displacement        TolMAXD  ....  4.0000e-03 bohr
RMS Displacement         TolRMSD  ....  2.0000e-03 bohr
Strict Convergence                .... False

------------------------------------------------------------------------------
                        ORCA OPTIMIZATION COORDINATE SETUP
------------------------------------------------------------------------------

The optimization will be done in redundant internal coordinates (2022)
Making redundant internal coordinates   ...  (2022 redundants) done
Evaluating the initial hessian          ...  (Almloef) done
Evaluating the coordinates              ...  done
Calculating the B-matrix                .... done
Calculating the G-matrix                .... done
Diagonalizing the G-matrix              .... done
Small eigenvalue found = 2.494e-03
Small eigenvalue found = 9.182e-03
Small eigenvalue found = 1.155e-02
Small eigenvalue found = 2.495e-02
The first mode is                       ....   42
The number of degrees of freedom        ....   78

    -----------------------------------------------------------------
                    Redundant Internal Coordinates


    -----------------------------------------------------------------
         Definition                    Initial Value    Approx d2E/dq
    -----------------------------------------------------------------
      1. B(C   1,C   0)                  1.5502         0.346804   
      2. B(C   2,C   1)                  1.5534         0.342781   
      3. B(C   3,C   2)                  1.5556         0.340086   
      4. B(C   4,C   3)                  1.5565         0.338954   
      5. B(C   5,C   4)                  1.5563         0.339111   
      6. B(C   6,C   5)                  1.5426         0.356709   
      7. B(C   7,C   6)                  1.5825         0.308055   
      8. B(F   8,C   0)                  1.3255         0.659090   
      9. B(F   9,C   0)                  1.3226         0.666042   
     10. B(F  10,C   0)                  1.3283         0.652181   
     11. B(F  11,C   1)                  1.3378         0.629847   
     12. B(F  12,C   1)                  1.3356         0.634870   
     13. B(F  13,C   2)                  1.3369         0.631928   
     14. B(F  14,C   2)                  1.3392         0.626649   
     15. B(F  15,C   3)                  1.3363         0.633409   
     16. B(F  16,C   3)                  1.3394         0.626090   
     17. B(F  17,C   4)                  1.3387         0.627782   
     18. B(F  18,C   4)                  1.3419         0.620447   
     19. B(F  19,C   5)                  1.3435         0.616728   
     20. B(F  20,C   5)                  1.3409         0.622782   
     21. B(F  21,C   6)                  1.3600         0.580545   
     22. B(F  22,C   6)                  1.3576         0.585779   
     23. B(O  23,C   7)                  1.2314         1.002075   
     24. B(O  24,C   7)                  1.2372         0.981004   
     25. B(H  26,O  25)                  0.9653         0.509876   
     26. B(H  27,O  24)                  1.9000         0.016453   
     27. B(H  27,O  25)                  0.9653         0.509876   
     28. A(C   1,C   0,F   9)          111.0282         0.392261   
     29. A(C   1,C   0,F   8)          110.8930         0.391542   
     30. A(F   8,C   0,F  10)          108.5307         0.433227   
     31. A(F   8,C   0,F   9)          109.1619         0.434870   
     32. A(C   1,C   0,F  10)          108.7739         0.390821   
     33. A(F   9,C   0,F  10)          108.3827         0.434046   
     34. A(C   2,C   1,F  11)          110.3230         0.387660   
     35. A(C   0,C   1,C   2)          113.5553         0.353571   
     36. A(F  11,C   1,F  12)          109.3079         0.427641   
     37. A(C   0,C   1,F  11)          107.0787         0.388450   
     38. A(C   2,C   1,F  12)          109.1769         0.388197   
     39. A(C   0,C   1,F  12)          107.2827         0.388989   
     40. A(C   3,C   2,F  13)          110.3587         0.387350   
     41. A(F  13,C   2,F  14)          109.1107         0.426896   
     42. A(C   1,C   2,F  14)          108.0873         0.387316   
     43. A(C   1,C   2,C   3)          112.6983         0.352402   
     44. A(C   1,C   2,F  13)          107.3405         0.387883   
     45. A(C   3,C   2,F  14)          109.1587         0.386784   
     46. A(F  15,C   3,F  16)          109.2595         0.427007   
     47. A(C   4,C   3,F  16)          109.4458         0.386499   
     48. A(C   2,C   3,F  16)          107.7470         0.386724   
     49. A(C   4,C   3,F  15)          110.4668         0.387282   
     50. A(C   2,C   3,C   4)          112.6559         0.351734   
     51. A(C   2,C   3,F  15)          107.1682         0.387508   
     52. A(C   3,C   4,F  18)          107.3682         0.385890   
     53. A(C   5,C   4,F  17)          110.6326         0.386712   
     54. A(C   3,C   4,F  17)          106.8213         0.386681   
     55. A(C   3,C   4,C   5)          112.9589         0.351563   
     56. A(F  17,C   4,F  18)          108.9895         0.425634   
     57. A(C   5,C   4,F  18)          109.9216         0.385921   
     58. A(C   4,C   5,C   6)          113.9380         0.354615   
     59. A(F  19,C   5,F  20)          109.2091         0.424568   
     60. A(C   6,C   5,F  20)          110.9006         0.389596   
     61. A(C   4,C   5,F  20)          106.5622         0.386174   
     62. A(C   6,C   5,F  19)          109.8795         0.388932   
     63. A(C   4,C   5,F  19)          106.1374         0.385517   
     64. A(C   5,C   6,C   7)          112.9578         0.348903   
     65. A(F  21,C   6,F  22)          106.6335         0.415450   
     66. A(C   7,C   6,F  22)          113.1920         0.375779   
     67. A(C   5,C   6,F  22)          106.5420         0.385457   
     68. A(C   7,C   6,F  21)          110.3532         0.375197   
     69. A(C   5,C   6,F  21)          106.7446         0.384856   
     70. A(O  23,C   7,O  24)          133.8297         0.508781   
     71. A(C   6,C   7,O  24)          111.8150         0.413089   
     72. A(C   6,C   7,O  23)          114.3410         0.414652   
     73. A(C   7,O  24,H  27)          173.6796         0.231741   
     74. A(H  26,O  25,H  27)          103.7396         0.319780   
     75. A(O  24,H  27,O  25)          170.1504         0.195092   
     76. D(F  11,C   1,C   0,F   9)     49.4768         0.009705   
     77. D(C   2,C   1,C   0,F   8)     48.9947         0.009705   
     78. D(F  11,C   1,C   0,F   8)    171.0207         0.009705   
     79. D(F  11,C   1,C   0,F  10)    -69.7011         0.009705   
     80. D(C   2,C   1,C   0,F   9)    -72.5492         0.009705   
     81. D(C   2,C   1,C   0,F  10)    168.2729         0.009705   
     82. D(C   3,C   2,C   1,C   0)    162.7875         0.009500   
     83. D(F  13,C   2,C   1,F  12)     44.1537         0.009500   
     84. D(F  13,C   2,C   1,C   0)    -75.4998         0.009500   
     85. D(F  13,C   2,C   1,F  11)    164.2939         0.009500   
     86. D(C   3,C   2,C   1,F  11)     42.5812         0.009500   
     87. D(C   3,C   2,C   1,F  12)    -77.5590         0.009500   
     88. D(C   4,C   3,C   2,F  13)     42.1846         0.009364   
     89. D(C   4,C   3,C   2,F  14)    -77.7232         0.009364   
     90. D(C   4,C   3,C   2,C   1)    162.1720         0.009364   
     91. D(F  15,C   3,C   2,F  14)     43.9807         0.009364   
     92. D(F  15,C   3,C   2,F  13)    163.8885         0.009364   
     93. D(F  15,C   3,C   2,C   1)    -76.1241         0.009364   
     94. D(F  17,C   4,C   3,F  16)     43.8732         0.009308   
     95. D(F  17,C   4,C   3,F  15)    164.2137         0.009308   
     96. D(F  17,C   4,C   3,C   2)    -75.9715         0.009308   
     97. D(C   5,C   4,C   3,F  16)    -77.9884         0.009308   
     98. D(C   5,C   4,C   3,F  15)     42.3521         0.009308   
     99. D(C   5,C   4,C   3,C   2)    162.1669         0.009308   
    100. D(F  19,C   5,C   4,F  18)     44.0726         0.009315   
    101. D(F  19,C   5,C   4,F  17)    164.4895         0.009315   
    102. D(F  19,C   5,C   4,C   3)    -75.8189         0.009315   
    103. D(C   6,C   5,C   4,F  18)    -76.9753         0.009315   
    104. D(C   6,C   5,C   4,F  17)     43.4416         0.009315   
    105. D(C   6,C   5,C   4,C   3)    163.1331         0.009315   
    106. D(C   7,C   6,C   5,C   4)    164.0956         0.010222   
    107. D(F  21,C   6,C   5,F  20)     45.7788         0.010222   
    108. D(F  21,C   6,C   5,F  19)    166.6154         0.010222   
    109. D(F  21,C   6,C   5,C   4)    -74.4447         0.010222   
    110. D(C   7,C   6,C   5,F  20)    -75.6808         0.010222   
    111. D(C   7,C   6,C   5,F  19)     45.1557         0.010222   
    112. D(O  24,C   7,C   6,F  21)    -70.5516         0.007386   
    113. D(O  24,C   7,C   6,C   5)     48.8461         0.007386   
    114. D(O  23,C   7,C   6,F  22)    -11.1459         0.007386   
    115. D(O  23,C   7,C   6,F  21)    108.2663         0.007386   
    116. D(O  23,C   7,C   6,C   5)   -132.3360         0.007386   
    117. D(H  27,O  24,C   7,O  23)   -158.3762         0.078375   
    118. D(H  27,O  24,C   7,C   6)     20.1307         0.078375   
    119. D(O  24,H  27,O  25,H  26)    -44.6419         0.289652   
    120. D(O  25,H  27,O  24,C   7)    180.0000         0.001625   
    -----------------------------------------------------------------

Number of atoms                         .... 28
Number of degrees of freedom            .... 120


         *************************************************************
         *                GEOMETRY OPTIMIZATION CYCLE   1            *
         *************************************************************
---------------------------------
CARTESIAN COORDINATES (ANGSTROEM)
---------------------------------
  C      6.857281   27.901753    3.100720
  C      6.154045   26.704598    2.411136
  C      7.086540   25.482838    2.185614
  C      6.299617   24.171731    1.900071
  C      7.185882   23.070259    1.248992
  C      6.565391   21.647303    1.360367
  C      7.185682   20.616666    0.394673
  C      6.843395   19.121603    0.784431
  F      8.006807   28.182557    2.503586
  F      7.082781   27.647576    4.378926
  F      6.067589   28.966668    3.018349
  F      5.116419   26.361022    3.182511
  F      5.702796   27.135986    1.230361
  F      7.887906   25.777720    1.156932
  F      7.829892   25.318192    3.287322
  F      5.806495   23.745652    3.066653
  F      5.287432   24.474179    1.076604
  F      7.350610   23.413929   -0.034316
  F      8.377623   23.098911    1.865135
  F      6.756127   21.255165    2.631171
  F      5.250982   21.784657    1.133609
  F      6.706597   20.903759   -0.845345
  F      8.519171   20.869305    0.364164
  O      7.813742   18.363469    0.789216
  O      5.634556   18.967368    0.997889
  O      2.818390   18.736600    1.412613
  H      2.716934   17.791620    1.243556
  H      3.748071   18.906228    1.215687

----------------------------
CARTESIAN COORDINATES (A.U.)
----------------------------
  NO LB      ZA    FRAG     MASS         X           Y           Z
   0 C     6.0000    0    12.011   12.958383   52.726672    5.859511
   1 C     6.0000    0    12.011   11.629460   50.464377    4.556386
   2 C     6.0000    0    12.011   13.391620   48.155585    4.130211
   3 C     6.0000    0    12.011   11.904551   45.677952    3.590613
   4 C     6.0000    0    12.011   13.579349   43.596472    2.360252
   5 C     6.0000    0    12.011   12.406791   40.907474    2.570720
   6 C     6.0000    0    12.011   13.578971   38.959853    0.745823
   7 C     6.0000    0    12.011   12.932142   36.134593    1.482359
   8 F     9.0000    0    18.998   15.130672   53.257315    4.731091
   9 F     9.0000    0    18.998   13.384516   52.246347    8.274970
  10 F     9.0000    0    18.998   11.466081   54.739070    5.703852
  11 F     9.0000    0    18.998    9.668631   49.815112    6.014074
  12 F     9.0000    0    18.998   10.776723   51.279582    2.325045
  13 F     9.0000    0    18.998   14.905982   48.712831    2.186284
  14 F     9.0000    0    18.998   14.796351   47.844449    6.212138
  15 F     9.0000    0    18.998   10.972685   44.872779    5.795134
  16 F     9.0000    0    18.998    9.991798   46.249496    2.034486
  17 F     9.0000    0    18.998   13.890640   44.245914   -0.064848
  18 F     9.0000    0    18.998   15.831413   43.650616    3.524594
  19 F     9.0000    0    18.998   12.767230   40.166441    4.972192
  20 F     9.0000    0    18.998    9.922918   41.167036    2.142210
  21 F     9.0000    0    18.998   12.673632   39.502380   -1.597471
  22 F     9.0000    0    18.998   16.098900   39.437271    0.688170
  23 O     8.0000    0    15.999   14.765832   34.701928    1.491402
  24 O     8.0000    0    15.999   10.647768   35.843131    1.885736
  25 O     8.0000    0    15.999    5.325985   35.407042    2.669451
  26 H     1.0000    0     1.008    5.134261   33.621290    2.349980
  27 H     1.0000    0     1.008    7.082828   35.727594    2.297315

--------------------------------
INTERNAL COORDINATES (ANGSTROEM)
--------------------------------
 C      0   0   0     0.000000000000     0.00000000     0.00000000
 C      1   0   0     1.550240967971     0.00000000     0.00000000
 C      2   1   0     1.553417070561   113.55533844     0.00000000
 C      3   2   1     1.555565549319   112.69827683   162.78749478
 C      4   3   2     1.556473604418   112.65593685   162.17204174
 C      5   4   3     1.556347406475   112.95890429   162.16693919
 C      6   5   4     1.542575266263   113.93798420   163.13314068
 C      7   6   5     1.582493305800   112.95775891   164.09560104
 F      1   2   3     1.325454610708   110.89295443    48.99470066
 F      1   2   3     1.322598493786   111.02821211   287.45080856
 F      1   2   3     1.328323151093   108.77385697   168.27294708
 F      2   1   3     1.337808496862   107.07872998   122.02597894
 F      2   1   3     1.335646235786   107.28270546   239.27402584
 F      3   2   1     1.336910437166   107.34054952   284.50021141
 F      3   2   1     1.339194167581   108.08730739    42.06766241
 F      4   3   2     1.336273244456   107.16821115   283.87589533
 F      4   3   2     1.339436884298   107.74698212    41.35047990
 F      5   4   3     1.338702284210   106.82131950   284.02853646
 F      5   4   3     1.341901540589   107.36821732    40.81959257
 F      6   5   4     1.343538328131   106.13743735   284.18106314
 F      6   5   4     1.340878939786   106.56217547    40.50128759
 F      7   6   5     1.359996128008   106.74461671   285.55525164
 F      7   6   5     1.357553010576   106.54195382    39.20780969
 O      8   7   6     1.231407064536   114.34099629   227.66396244
 O      8   7   6     1.237192176224   111.81500307    48.84611502
 O     25   8   7     2.855878164494   176.99440113    20.13066459
 H     26  25   8     0.965328927296    99.05067288   136.27702780
 H     26  25   8     0.965328927795     6.53484144     0.00000000

---------------------------
INTERNAL COORDINATES (A.U.)
---------------------------
 C      0   0   0     0.000000000000     0.00000000     0.00000000
 C      1   0   0     2.929530871051     0.00000000     0.00000000
 C      2   1   0     2.935532835118   113.55533844     0.00000000
 C      3   2   1     2.939592871575   112.69827683   162.78749478
 C      4   3   2     2.941308847027   112.65593685   162.17204174
 C      5   4   3     2.941070367477   112.95890429   162.16693919
 C      6   5   4     2.915044794198   113.93798420   163.13314068
 C      7   6   5     2.990478956726   112.95775891   164.09560104
 F      1   2   3     2.504746217182   110.89295443    48.99470066
 F      1   2   3     2.499348938392   111.02821211   287.45080856
 F      1   2   3     2.510166972913   108.77385697   168.27294708
 F      2   1   3     2.528091678703   107.07872998   122.02597894
 F      2   1   3     2.524005597439   107.28270546   239.27402584
 F      3   2   1     2.526394591825   107.34054952   284.50021141
 F      3   2   1     2.530710216873   108.08730739    42.06766241
 F      4   3   2     2.525190472108   107.16821115   283.87589533
 F      4   3   2     2.531168884996   107.74698212    41.35047990
 F      5   4   3     2.529780692011   106.82131950   284.02853646
 F      5   4   3     2.535826410399   107.36821732    40.81959257
 F      6   5   4     2.538919490593   106.13743735   284.18106314
 F      6   5   4     2.533893974938   106.56217547    40.50128759
 F      7   6   5     2.570020225129   106.74461671   285.55525164
 F      7   6   5     2.565403402268   106.54195382    39.20780969
 O      8   7   6     2.327022111350   114.34099629   227.66396244
 O      8   7   6     2.337954388093   111.81500307    48.84611502
 O     25   8   7     5.396827602739   176.99440113    20.13066459
 H     26  25   8     1.824207301742    99.05067288   136.27702780
 H     26  25   8     1.824207302685     6.53484144     0.00000000

---------------------
BASIS SET INFORMATION
---------------------
There are 4 groups of distinct atoms

 Group   1 Type C   : 11s6p2d1f contracted to 5s3p2d1f pattern {62111/411/11/1}
 Group   2 Type F   : 11s6p2d1f contracted to 5s3p2d1f pattern {62111/411/11/1}
 Group   3 Type O   : 11s6p2d1f contracted to 5s3p2d1f pattern {62111/411/11/1}
 Group   4 Type H   : 5s1p contracted to 3s1p pattern {311/1}

Atom   0C    basis set group =>   1
Atom   1C    basis set group =>   1
Atom   2C    basis set group =>   1
Atom   3C    basis set group =>   1
Atom   4C    basis set group =>   1
Atom   5C    basis set group =>   1
Atom   6C    basis set group =>   1
Atom   7C    basis set group =>   1
Atom   8F    basis set group =>   2
Atom   9F    basis set group =>   2
Atom  10F    basis set group =>   2
Atom  11F    basis set group =>   2
Atom  12F    basis set group =>   2
Atom  13F    basis set group =>   2
Atom  14F    basis set group =>   2
Atom  15F    basis set group =>   2
Atom  16F    basis set group =>   2
Atom  17F    basis set group =>   2
Atom  18F    basis set group =>   2
Atom  19F    basis set group =>   2
Atom  20F    basis set group =>   2
Atom  21F    basis set group =>   2
Atom  22F    basis set group =>   2
Atom  23O    basis set group =>   3
Atom  24O    basis set group =>   3
Atom  25O    basis set group =>   3
Atom  26H    basis set group =>   4
Atom  27H    basis set group =>   4
---------------------------------
AUXILIARY/J BASIS SET INFORMATION
---------------------------------
There are 4 groups of distinct atoms

 Group   1 Type C   : 12s5p4d2f1g contracted to 6s4p3d1f1g pattern {711111/2111/211/2/1}
 Group   2 Type F   : 12s5p4d2f1g contracted to 6s4p3d1f1g pattern {711111/2111/211/2/1}
 Group   3 Type O   : 12s5p4d2f1g contracted to 6s4p3d1f1g pattern {711111/2111/211/2/1}
 Group   4 Type H   : 5s2p1d contracted to 3s1p1d pattern {311/2/1}

Atom   0C    basis set group =>   1
Atom   1C    basis set group =>   1
Atom   2C    basis set group =>   1
Atom   3C    basis set group =>   1
Atom   4C    basis set group =>   1
Atom   5C    basis set group =>   1
Atom   6C    basis set group =>   1
Atom   7C    basis set group =>   1
Atom   8F    basis set group =>   2
Atom   9F    basis set group =>   2
Atom  10F    basis set group =>   2
Atom  11F    basis set group =>   2
Atom  12F    basis set group =>   2
Atom  13F    basis set group =>   2
Atom  14F    basis set group =>   2
Atom  15F    basis set group =>   2
Atom  16F    basis set group =>   2
Atom  17F    basis set group =>   2
Atom  18F    basis set group =>   2
Atom  19F    basis set group =>   2
Atom  20F    basis set group =>   2
Atom  21F    basis set group =>   2
Atom  22F    basis set group =>   2
Atom  23O    basis set group =>   3
Atom  24O    basis set group =>   3
Atom  25O    basis set group =>   3
Atom  26H    basis set group =>   4
Atom  27H    basis set group =>   4


           ************************************************************
           *        Program running with 20 parallel MPI-processes    *
           *              working on a common directory               *
           ************************************************************
------------------------------------------------------------------------------
                             ORCA STARTUP CALCULATIONS
                           -- RI-GTO INTEGRALS CHOSEN --
------------------------------------------------------------------------------
------------------------------------------------------------------------------
                   ___                                                        
                  /   \      - P O W E R E D   B Y -                         
                 /     \                                                     
                 |  |  |   _    _      __       _____    __    __             
                 |  |  |  | |  | |    /  \     |  _  \  |  |  /  |          
                  \  \/   | |  | |   /    \    | | | |  |  | /  /          
                 / \  \   | |__| |  /  /\  \   | |_| |  |  |/  /          
                |  |  |   |  __  | /  /__\  \  |    /   |      \           
                |  |  |   | |  | | |   __   |  |    \   |  |\   \          
                \     /   | |  | | |  |  |  |  | |\  \  |  | \   \       
                 \___/    |_|  |_| |__|  |__|  |_| \__\ |__|  \__/        
                                                                              
                      - O R C A' S   B I G   F R I E N D -                    
                                      &                                       
                       - I N T E G R A L  F E E D E R -                       
                                                                              
 v1 FN, 2020, v2 2021, v3 2022-2024                                           
------------------------------------------------------------------------------


----------------------
SHARK INTEGRAL PACKAGE
----------------------

Number of atoms                             ...     28
Number of basis functions                   ...    818
Number of shells                            ...    294
Maximum angular momentum                    ...      3
Integral batch strategy                     ... SHARK/LIBINT Hybrid
RI-J (if used) integral strategy            ... SPLIT-RIJ (Revised 2003 algorithm where possible)
Printlevel                                  ...      1
Contraction scheme used                     ... SEGMENTED contraction
Prescreening option                         ... SCHWARTZ
   Thresh                                   ... 2.500e-11
   Tcut                                     ... 2.500e-12
   Tpresel                                  ... 2.500e-12 
Coulomb Range Separation                    ... NOT USED
Exchange Range Separation                   ... NOT USED
Multipole approximations                    ... NOT USED
Finite Nucleus Model                        ... NOT USED
CABS basis                                  ... NOT available
Auxiliary Coulomb fitting basis             ... AVAILABLE
   # of basis functions in Aux-J            ...   1296
   # of shells in Aux-J                     ...    400
   Maximum angular momentum in Aux-J        ...      4
Auxiliary J/K fitting basis                 ... NOT available
Auxiliary Correlation fitting basis         ... NOT available
Auxiliary 'external' fitting basis          ... NOT available

Checking pre-screening integrals            ... done (  0.0 sec) Dimension = 294
Check shell pair data                       ... done (  0.0 sec)
Shell pair information
Shell pair cut-off parameter TPreSel        ...   2.5e-12
Total number of shell pairs                 ...     43365
Shell pairs after pre-screening             ...     25535
Total number of primitive shell pairs       ...    142356
Primitive shell pairs kept                  ...     53484
          la=0 lb=0:   4947 shell pairs
          la=1 lb=0:   7034 shell pairs
          la=1 lb=1:   2417 shell pairs
          la=2 lb=0:   3764 shell pairs
          la=2 lb=1:   2745 shell pairs
          la=2 lb=2:    755 shell pairs
          la=3 lb=0:   1708 shell pairs
          la=3 lb=1:   1309 shell pairs
          la=3 lb=2:    689 shell pairs
          la=3 lb=3:    167 shell pairs

Calculating one electron integrals          ... done (  0.0 sec)
Calculating RI/J V-Matrix + Cholesky decomp.... done (  0.1 sec)
Calculating Nuclear repulsion               ... done (  0.0 sec) ENN=   3082.708906043765 Eh

Diagonalization of the overlap matrix:
Smallest eigenvalue                        ... 5.067e-05
Time for diagonalization                   ...    0.127 sec
Threshold for overlap eigenvalues          ... 1.000e-07
Number of eigenvalues below threshold      ... 0
Time for construction of square roots      ...    0.062 sec
Total time needed                          ...    0.196 sec

-------------------
DFT GRID GENERATION
-------------------

General Integration Accuracy     IntAcc      ... 4.388
Radial Grid Type                 RadialGrid  ... OptM3 with GC (2021)
Angular Grid (max. ang.)         AngularGrid ... 4 (Lebedev-302)
Angular grid pruning method      GridPruning ... 4 (adaptive)
Weight generation scheme         WeightScheme... mBecke (2022)
Basis function cutoff            BFCut       ... 1.0000e-11
Integration weight cutoff        WCut        ... 1.0000e-14
Partially contracted basis set               ... off
Rotationally invariant grid construction     ... off
Angular grids for H and He will be reduced by one unit

Total number of grid points                  ...   164047
Total number of batches                      ...     2576
Average number of points per batch           ...       63
Average number of grid points per atom       ...     5859

--------------------
COSX GRID GENERATION
--------------------

GRIDX 1
-------
General Integration Accuracy     IntAcc      ... 3.816
Radial Grid Type                 RadialGrid  ... OptM3 with GC (2021)
Angular Grid (max. ang.)         AngularGrid ... 1 (Lebedev-50)
Angular grid pruning method      GridPruning ... 4 (adaptive)
Weight generation scheme         WeightScheme... mBecke (2022)
Basis function cutoff            BFCut       ... 1.0000e-11
Integration weight cutoff        WCut        ... 1.0000e-14
Partially contracted basis set               ... on
Rotationally invariant grid construction     ... off
Angular grids for H and He will be reduced by one unit

Total number of grid points                  ...    20660
Total number of batches                      ...      173
Average number of points per batch           ...      119
Average number of grid points per atom       ...      738
UseSFitting                                  ... on

GRIDX 2
-------
General Integration Accuracy     IntAcc      ... 4.020
Radial Grid Type                 RadialGrid  ... OptM3 with GC (2021)
Angular Grid (max. ang.)         AngularGrid ... 2 (Lebedev-110)
Angular grid pruning method      GridPruning ... 4 (adaptive)
Weight generation scheme         WeightScheme... mBecke (2022)
Basis function cutoff            BFCut       ... 1.0000e-11
Integration weight cutoff        WCut        ... 1.0000e-14
Partially contracted basis set               ... on
Rotationally invariant grid construction     ... off
Angular grids for H and He will be reduced by one unit

Total number of grid points                  ...    48341
Total number of batches                      ...      394
Average number of points per batch           ...      122
Average number of grid points per atom       ...     1726
UseSFitting                                  ... on

GRIDX 3
-------
General Integration Accuracy     IntAcc      ... 4.338
Radial Grid Type                 RadialGrid  ... OptM3 with GC (2021)
Angular Grid (max. ang.)         AngularGrid ... 3 (Lebedev-194)
Angular grid pruning method      GridPruning ... 4 (adaptive)
Weight generation scheme         WeightScheme... mBecke (2022)
Basis function cutoff            BFCut       ... 1.0000e-11
Integration weight cutoff        WCut        ... 1.0000e-14
Partially contracted basis set               ... on
Rotationally invariant grid construction     ... off
Angular grids for H and He will be reduced by one unit

Total number of grid points                  ...   106996
Total number of batches                      ...      848
Average number of points per batch           ...      126
Average number of grid points per atom       ...     3821
UseSFitting                                  ... on
Initializing property integral containers    ... done (  0.0 sec)

SHARK setup successfully completed in   3.3 seconds

Maximum memory used throughout the entire STARTUP-calculation: 64.0 MB


           ************************************************************
           *        Program running with 20 parallel MPI-processes    *
           *              working on a common directory               *
           ************************************************************
-------------------------------------------------------------------------------
                                 ORCA GUESS
                   Start orbitals & Density for SCF / CASSCF
-------------------------------------------------------------------------------

------------
SCF SETTINGS
------------
Hamiltonian:
 Density Functional     Method          .... DFT(GTOs)
 Exchange Functional    Exchange        .... B88
   X-Alpha parameter    XAlpha          ....  0.666667
   Becke's b parameter  XBeta           ....  0.004200
 Correlation Functional Correlation     .... LYP
 LDA part of GGA corr.  LDAOpt          .... VWN-5
 Gradients option       PostSCFGGA      .... off
 Hybrid DFT is turned on
   Fraction HF Exchange ScalHFX         ....  0.200000
   Scaling of DF-GGA-X  ScalDFX         ....  0.720000
   Scaling of DF-GGA-C  ScalDFC         ....  0.810000
   Scaling of DF-LDA-C  ScalLDAC        ....  1.000000
   Perturbative correction              ....  0.000000
   NL short-range parameter             ....  4.800000
 RI-approximation to the Coulomb term is turned on
   Number of AuxJ basis functions       .... 1296
   RIJ-COSX (HFX calculated with COS-X)).... on


General Settings:
 Integral files         IntName         .... rf_mecn_1H2O_opt_B3L_sw_003
 Hartree-Fock type      HFTyp           .... RHF
 Total Charge           Charge          ....   -1
 Multiplicity           Mult            ....    1
 Number of Electrons    NEL             ....  210
 Basis Dimension        Dim             ....  818
 Nuclear Repulsion      ENuc            ....   3082.7089060438 Eh

Convergence Acceleration:
 AO-DIIS                CNVDIIS         .... on
   Start iteration      DIISMaxIt       ....     0
   Startup error        DIISStart       ....  0.200000
   # of expansion vecs  DIISMaxEq       ....     5
   Bias factor          DIISBfac        ....   1.050
   Max. coefficient     DIISMaxC        ....  10.000
 MO-DIIS                CNVKDIIS        .... off
 Trust-Rad. Augm. Hess. CNVTRAH         .... auto
   Auto Start mean grad. ratio tolernc. ....  1.125000
   Auto Start start iteration           ....    50
   Auto Start num. interpolation iter.  ....    10
   Max. Number of Micro iterations      ....    24
   Max. Number of Macro iterations      .... Maxiter - #DIIS iter
   Number of Davidson start vectors     ....     2
   Converg. threshold    (grad. norm)   ....   1.000e-05
   Grad. Scal. Fac. for Micro threshold ....   0.100
   Minimum threshold for Micro iter.    ....   1.000e-02
   NR start threshold (gradient norm)   ....   1.000e-04
   Initial trust radius                 ....   0.400
   Minimum AH scaling param. (alpha)    ....   1.000
   Maximum AH scaling param. (alpha)    .... 1000.000
   Quad. conv. algorithm                .... NR
   White noise on init. David. guess    .... on
   Maximum white noise                  ....   0.010
   Pseudo random numbers                .... off
   Inactive MOs                         .... canonical
   Orbital update algorithm             .... Taylor
   Preconditioner                       .... Diag
   Full preconditioner red. dimension   ....   250
 SOSCF                  CNVSOSCF        .... on
   Start iteration      SOSCFMaxIt      ....   150
   Startup grad/error   SOSCFStart      ....  0.001000
   Hessian update       SOSCFHessUp     .... L-BFGS
 Level Shifting         CNVShift        .... on
   Level shift para.    LevelShift      ....    0.2500
   Turn off err/grad.   ShiftErr        ....    0.0000
 Zerner damping         CNVZerner       .... off
 Static damping         CNVDamp         .... on
   Fraction old density DampFac         ....    0.8500
   Max. Damping (<1)    DampMax         ....    0.9800
   Min. Damping (>=0)   DampMin         ....    0.0000
   Turn off err/grad.   DampErr         ....    0.0300

SCF Procedure:
 Maximum # iterations   MaxIter         ....  1500
 SCF integral mode      SCFMode         .... Direct
   Integral package                     .... SHARK and LIBINT hybrid scheme
 Reset frequency        DirectResetFreq ....    20
 Integral Threshold     Thresh          ....  2.500e-11 Eh
 Primitive CutOff       TCut            ....  2.500e-12 Eh

Convergence Tolerance:
 Convergence Check Mode ConvCheckMode   .... Total+1el-Energy
 Convergence forced     ConvForced      .... 0
 Energy Change          TolE            ....  1.000e-08 Eh
 1-El. energy change                    ....  1.000e-05 Eh
 Orbital Gradient       TolG            ....  1.000e-05
 Orbital Rotation angle TolX            ....  1.000e-05
 DIIS Error             TolErr          ....  5.000e-07

------------------------------
INITIAL GUESS: MODEL POTENTIAL
------------------------------
Loading Hartree-Fock densities                     ... done
Calculating cut-offs                               ... done
Initializing the effective Hamiltonian             ... done
Setting up the integral package (SHARK)            ... done
Starting the Coulomb interaction                   ... done (   0.2 sec)
Making the grid                                    ... done (   0.5 sec)
Mapping shells                                     ... done
Starting the XC term evaluation                    ... done (   0.1 sec)
  promolecular density results
     # of electrons  =    208.999431122
     EX              =   -217.215938339
     EC              =     -7.851820029
     EX+EC           =   -225.067758367
Transforming the Hamiltonian                       ... done (   0.1 sec)
Diagonalizing the Hamiltonian                      ... done (   0.1 sec)
Back transforming the eigenvectors                 ... done (   0.0 sec)
Now organizing SCF variables                       ... done
                      ------------------
                      INITIAL GUESS DONE (   1.2 sec)
                      ------------------
             **** ENERGY FILE WAS UPDATED (rf_mecn_1H2O_opt_B3L_sw_003.en.tmp) ****
Finished Guess after   1.8 sec
Maximum memory used throughout the entire GUESS-calculation: 52.9 MB


           ************************************************************
           *        Program running with 20 parallel MPI-processes    *
           *              working on a common directory               *
           ************************************************************

-------------------------------------------------------------------------------------------
                                      ORCA LEAN-SCF
                              memory conserving SCF solver
-------------------------------------------------------------------------------------------

--------------------
CPCM SOLVATION MODEL
--------------------
CPCM parameters:
  Epsilon                                         ...      35.6880
  Refrac                                          ...       1.3442
  Rsolv                                           ...       1.3000
  Surface type                                    ... GAUSSIAN VDW
  Discretization scheme                           ... Constant charge density
    Threshold for H atoms                         ...       5.0000 (charges/Ang^2)
    Threshold for non-H atoms                     ...       5.0000 (charges/Ang^2)
  Epsilon function type                           ...         CPCM
Solvent:                                          ... ACETONITRILE
SMD-CDS solvent descriptors:
  Soln                                            ...       1.3442
  Soln25                                          ...       1.3416
  Sola                                            ...       0.0700
  Solb                                            ...       0.3200
  Solg                                            ...      41.2500
  Solc                                            ...       0.0000
  Solh                                            ...       0.0000
Radii:
  Scheme                                          ... Element-dependent radii
  Radius for C  used is    3.4960 Bohr (=   1.8500 Ang.)
  Radius for F  used is    3.2692 Bohr (=   1.7300 Ang.)
  Radius for O  used is    4.0969 Bohr (=   2.1680 Ang.)
  Radius for H  used is    2.2677 Bohr (=   1.2000 Ang.)
Calculating surface                               ...        done! (  0.0s)
Cavity surface points                             ...         2380
Cavity Volume                                     ...    2380.5219
Cavity Surface-area                               ...    1244.8621
Calculating surface distance matrix               ...        done! (  0.1s)
Performing Cholesky decomposition & store         ...        done! (  0.1s)
Overall time for CPCM initialization              ...                 0.2s

----------------------------------------D-I-I-S--------------------------------------------
Iteration    Energy (Eh)           Delta-E    RMSDP     MaxDP     DIISErr   Damp  Time(sec)
-------------------------------------------------------------------------------------------
               ***  Starting incremental Fock matrix formation  ***
    1    -2028.9426639499379235     0.00e+00  5.76e-04  9.90e-02  3.48e-01  0.850   6.3
Warning: op=0 Small HOMO/LUMO gap (   0.076) - skipping pre-diagonalization
         Will do a full diagonalization
    2    -2029.1415318951239897    -1.99e-01  7.95e-04  1.98e-01  2.44e-01  0.850   4.0
                               ***Turning on AO-DIIS***
    3    -2029.2509142373837676    -1.09e-01  3.90e-04  9.06e-02  1.51e-01  0.850   3.6
    4    -2029.3169591448813662    -6.60e-02  1.97e-04  3.62e-02  1.14e-01  0.850   3.5
    5    -2029.3640308224903492    -4.71e-02  1.15e-04  1.23e-02  9.35e-02  0.850   3.4
    6    -2029.4012398518088958    -3.72e-02  8.22e-05  6.05e-03  7.93e-02  0.850   3.2
    7    -2029.4320336777518605    -3.08e-02  6.93e-05  5.04e-03  6.80e-02  0.850   3.2
    8    -2029.4578796359337503    -2.58e-02  6.05e-05  4.48e-03  5.76e-02  0.850   3.2
    9    -2029.4793818959869895    -2.15e-02  5.16e-05  3.80e-03  4.80e-02  0.850   3.1
   10    -2029.4972097357504026    -1.78e-02  4.33e-05  3.20e-03  3.98e-02  0.850   3.1
   11    -2029.5120422312620576    -1.48e-02  3.62e-05  2.73e-03  3.31e-02  0.850   3.2
   12    -2029.5244410681898444    -1.24e-02  3.04e-05  2.35e-03  2.78e-02  0.850   3.2
   13    -2029.5348427918879679    -1.04e-02  1.71e-04  1.35e-02  2.33e-02  0.000   3.0
   14    -2029.5916322478497023    -5.68e-02  1.42e-05  3.00e-03  2.19e-03  0.000   3.4
                              *** Initializing SOSCF ***
---------------------------------------S-O-S-C-F--------------------------------------
Iteration    Energy (Eh)           Delta-E    RMSDP     MaxDP     MaxGrad    Time(sec)
--------------------------------------------------------------------------------------
   15    -2029.5916563465061699    -2.41e-05  7.25e-06  1.59e-03  4.24e-04     3.1
               *** Restarting incremental Fock matrix formation ***
   16    -2029.5916054400549910     5.09e-05  7.26e-06  8.94e-04  7.61e-05     6.2
   17    -2029.5916052220754864     2.18e-07  1.43e-06  1.35e-04  1.10e-04     3.8
   18    -2029.5916056913829379    -4.69e-07  9.95e-07  1.89e-04  2.12e-05     3.2
   19    -2029.5916056680098336     2.34e-08  5.01e-07  5.92e-05  3.83e-05     3.1
   20    -2029.5916056847399886    -1.67e-08  3.45e-07  7.37e-05  2.18e-06     2.8
                  *** Gradient check signals convergence ***

               *****************************************************
               *                     SUCCESS                       *
               *           SCF CONVERGED AFTER  20 CYCLES          *
               *****************************************************

Recomputing exchange energy using gridx3       ... done (    8.243 sec)
Old exchange energy                            :    -43.634166688 Eh
New exchange energy                            :    -43.634140461 Eh
Exchange energy change after final integration :      0.000026228 Eh
Total energy after final integration           :  -2029.591579457 Eh

SMD CDS free energy correction energy :                 3.05739     Kcal/mol
Total Energy after SMD CDS correction =             -2029.586707192 Eh
             **** ENERGY FILE WAS UPDATED (rf_mecn_1H2O_opt_B3L_sw_003.en.tmp) ****

----------------
TOTAL SCF ENERGY
----------------

Total Energy       :      -2029.58670719232782 Eh          -55227.86203 eV

Components:
Nuclear Repulsion  :       3082.70890604376473 Eh           83884.77395 eV
Electronic Energy  :      -5112.22269301855886 Eh         -139110.65173 eV
One Electron Energy:      -8984.37391615961496 Eh         -244477.24324 eV
Two Electron Energy:       3872.15122314105611 Eh          105366.59152 eV
CPCM Dielectric    :         -0.07781870994610 Eh              -2.11755 eV
SMD CDS (Gcds)     :          0.00487226469455 Eh               0.13258 eV

Virial components:
Potential Energy   :      -4052.87078376517047 Eh         -110284.22077 eV
Kinetic Energy     :       2023.28407657284265 Eh           55056.35873 eV
Virial Ratio       :          2.00311504978093

DFT components:
N(Alpha)           :      104.999976940149 electrons
N(Beta)            :      104.999976940149 electrons
N(Total)           :      209.999953880298 electrons
E(X)               :     -173.871947751220 Eh       
E(C)               :       -9.214743870258 Eh       
E(XC)              :     -183.086691621478 Eh       

CPCM Solvation Model Properties:
Surface-charge          :          0.98974435137735
Corrected charge        :          1.00000000000000
Outlying charge corr.   :          0.00000544042780 Eh               0.00015 eV
Free-energy (cav+disp)  :          0.00487226469455 Eh               0.13258 eV

---------------
SCF CONVERGENCE
---------------

  Last Energy change         ...    1.6730e-08  Tolerance :   1.0000e-08
  Last MAX-Density change    ...    7.3740e-05  Tolerance :   1.0000e-07
  Last RMS-Density change    ...    3.4487e-07  Tolerance :   5.0000e-09
  Last DIIS Error            ...    4.2441e-04  Tolerance :   5.0000e-07
  Last Orbital Gradient      ...    2.1750e-06  Tolerance :   1.0000e-05
  Last Orbital Rotation      ...    4.5755e-06  Tolerance :   1.0000e-05


----------------
ORBITAL ENERGIES
----------------

  NO   OCC          E(Eh)            E(eV) 
   0   2.0000     -24.743359      -673.3010 
   1   2.0000     -24.742293      -673.2720 
   2   2.0000     -24.742156      -673.2683 
   3   2.0000     -24.742017      -673.2645 
   4   2.0000     -24.741301      -673.2450 
   5   2.0000     -24.740678      -673.2281 
   6   2.0000     -24.740592      -673.2257 
   7   2.0000     -24.739202      -673.1879 
   8   2.0000     -24.738902      -673.1797 
   9   2.0000     -24.733522      -673.0334 
  10   2.0000     -24.733469      -673.0319 
  11   2.0000     -24.723523      -672.7613 
  12   2.0000     -24.723101      -672.7498 
  13   2.0000     -24.702032      -672.1765 
  14   2.0000     -24.701012      -672.1487 
  15   2.0000     -19.095553      -519.6164 
  16   2.0000     -19.072767      -518.9964 
  17   2.0000     -19.070264      -518.9283 
  18   2.0000     -10.455771      -284.5160 
  19   2.0000     -10.401363      -283.0355 
  20   2.0000     -10.400526      -283.0127 
  21   2.0000     -10.398161      -282.9483 
  22   2.0000     -10.390987      -282.7531 
  23   2.0000     -10.376965      -282.3716 
  24   2.0000     -10.342400      -281.4310 
  25   2.0000     -10.263569      -279.2859 
  26   2.0000      -1.358431       -36.9648 
  27   2.0000      -1.335298       -36.3353 
  28   2.0000      -1.319281       -35.8995 
  29   2.0000      -1.310803       -35.6688 
  30   2.0000      -1.307151       -35.5694 
  31   2.0000      -1.296226       -35.2721 
  32   2.0000      -1.270155       -34.5627 
  33   2.0000      -1.269563       -34.5466 
  34   2.0000      -1.262984       -34.3675 
  35   2.0000      -1.260946       -34.3121 
  36   2.0000      -1.255367       -34.1603 
  37   2.0000      -1.251788       -34.0629 
  38   2.0000      -1.248070       -33.9617 
  39   2.0000      -1.237699       -33.6795 
  40   2.0000      -1.210598       -32.9420 
  41   2.0000      -1.037535       -28.2328 
  42   2.0000      -0.982973       -26.7481 
  43   2.0000      -0.957501       -26.0549 
  44   2.0000      -0.847975       -23.0746 
  45   2.0000      -0.826311       -22.4851 
  46   2.0000      -0.797609       -21.7040 
  47   2.0000      -0.759973       -20.6799 
  48   2.0000      -0.717744       -19.5308 
  49   2.0000      -0.690044       -18.7770 
  50   2.0000      -0.672868       -18.3097 
  51   2.0000      -0.653564       -17.7844 
  52   2.0000      -0.648511       -17.6469 
  53   2.0000      -0.640393       -17.4260 
  54   2.0000      -0.632136       -17.2013 
  55   2.0000      -0.628113       -17.0918 
  56   2.0000      -0.626250       -17.0411 
  57   2.0000      -0.613481       -16.6937 
  58   2.0000      -0.610245       -16.6056 
  59   2.0000      -0.606730       -16.5100 
  60   2.0000      -0.598624       -16.2894 
  61   2.0000      -0.587358       -15.9828 
  62   2.0000      -0.584846       -15.9145 
  63   2.0000      -0.578373       -15.7383 
  64   2.0000      -0.570685       -15.5291 
  65   2.0000      -0.555304       -15.1106 
  66   2.0000      -0.518879       -14.1194 
  67   2.0000      -0.514887       -14.0108 
  68   2.0000      -0.509504       -13.8643 
  69   2.0000      -0.508946       -13.8491 
  70   2.0000      -0.504946       -13.7403 
  71   2.0000      -0.500941       -13.6313 
  72   2.0000      -0.497415       -13.5354 
  73   2.0000      -0.493448       -13.4274 
  74   2.0000      -0.488510       -13.2930 
  75   2.0000      -0.483942       -13.1687 
  76   2.0000      -0.481185       -13.0937 
  77   2.0000      -0.477966       -13.0061 
  78   2.0000      -0.472333       -12.8528 
  79   2.0000      -0.470658       -12.8073 
  80   2.0000      -0.463724       -12.6186 
  81   2.0000      -0.462402       -12.5826 
  82   2.0000      -0.459054       -12.4915 
  83   2.0000      -0.452534       -12.3141 
  84   2.0000      -0.451902       -12.2969 
  85   2.0000      -0.448562       -12.2060 
  86   2.0000      -0.444461       -12.0944 
  87   2.0000      -0.442714       -12.0469 
  88   2.0000      -0.440128       -11.9765 
  89   2.0000      -0.439432       -11.9576 
  90   2.0000      -0.435306       -11.8453 
  91   2.0000      -0.434194       -11.8150 
  92   2.0000      -0.427033       -11.6202 
  93   2.0000      -0.418917       -11.3993 
  94   2.0000      -0.416530       -11.3344 
  95   2.0000      -0.414156       -11.2698 
  96   2.0000      -0.401047       -10.9130 
  97   2.0000      -0.394712       -10.7407 
  98   2.0000      -0.371803       -10.1173 
  99   2.0000      -0.363571        -9.8933 
 100   2.0000      -0.339243        -9.2313 
 101   2.0000      -0.292060        -7.9474 
 102   2.0000      -0.262648        -7.1470 
 103   2.0000      -0.252208        -6.8629 
 104   2.0000      -0.243297        -6.6204 
 105   0.0000       0.000842         0.0229 
 106   0.0000       0.013590         0.3698 
 107   0.0000       0.029262         0.7963 
 108   0.0000       0.055965         1.5229 
 109   0.0000       0.059559         1.6207 
 110   0.0000       0.065920         1.7938 
 111   0.0000       0.097908         2.6642 
 112   0.0000       0.106680         2.9029 
 113   0.0000       0.108646         2.9564 
 114   0.0000       0.117967         3.2100 
 115   0.0000       0.132973         3.6184 
*Only the first 10 virtual orbitals were printed.

                    ********************************
                    * MULLIKEN POPULATION ANALYSIS *
                    ********************************

-----------------------
MULLIKEN ATOMIC CHARGES
-----------------------
   0 C :    0.469899
   1 C :    0.316839
   2 C :    0.307550
   3 C :    0.326277
   4 C :    0.328482
   5 C :    0.349765
   6 C :    0.309044
   7 C :    0.172609
   8 F :   -0.153869
   9 F :   -0.151213
  10 F :   -0.154178
  11 F :   -0.163748
  12 F :   -0.161075
  13 F :   -0.165815
  14 F :   -0.167362
  15 F :   -0.166975
  16 F :   -0.169196
  17 F :   -0.172318
  18 F :   -0.174751
  19 F :   -0.188957
  20 F :   -0.183425
  21 F :   -0.214348
  22 F :   -0.207896
  23 O :   -0.451952
  24 O :   -0.504160
  25 O :   -0.721301
  26 H :    0.333698
  27 H :    0.358378
Sum of atomic charges:   -1.0000000

--------------------------------
MULLIKEN REDUCED ORBITAL CHARGES
--------------------------------
  0 C s       :     3.019244  s :     3.019244
      pz      :     0.673584  p :     2.119046
      px      :     0.668923
      py      :     0.776538
      dz2     :     0.064447  d :     0.350225
      dxz     :     0.078401
      dyz     :     0.073698
      dx2y2   :     0.068845
      dxy     :     0.064833
      f0      :     0.006552  f :     0.041587
      f+1     :     0.008967
      f-1     :     0.005051
      f+2     :     0.003196
      f-2     :     0.006064
      f+3     :     0.004779
      f-3     :     0.006978

  1 C s       :     3.122480  s :     3.122480
      pz      :     0.633343  p :     2.246428
      px      :     0.722859
      py      :     0.890226
      dz2     :     0.070540  d :     0.285234
      dxz     :     0.061779
      dyz     :     0.057151
      dx2y2   :     0.039585
      dxy     :     0.056180
      f0      :     0.005219  f :     0.029019
      f+1     :     0.006238
      f-1     :     0.002978
      f+2     :     0.004719
      f-2     :     0.004395
      f+3     :     0.002830
      f-3     :     0.002641

  2 C s       :     3.147367  s :     3.147367
      pz      :     0.590824  p :     2.224263
      px      :     0.719487
      py      :     0.913951
      dz2     :     0.077574  d :     0.291831
      dxz     :     0.054411
      dyz     :     0.066504
      dx2y2   :     0.034053
      dxy     :     0.059290
      f0      :     0.006375  f :     0.028989
      f+1     :     0.004688
      f-1     :     0.003429
      f+2     :     0.004983
      f-2     :     0.005244
      f+3     :     0.002231
      f-3     :     0.002038

  3 C s       :     3.143741  s :     3.143741
      pz      :     0.624921  p :     2.209935
      px      :     0.707902
      py      :     0.877113
      dz2     :     0.074714  d :     0.291081
      dxz     :     0.061449
      dyz     :     0.056449
      dx2y2   :     0.040810
      dxy     :     0.057658
      f0      :     0.005409  f :     0.028966
      f+1     :     0.006077
      f-1     :     0.002918
      f+2     :     0.004716
      f-2     :     0.004597
      f+3     :     0.002639
      f-3     :     0.002609

  4 C s       :     3.146858  s :     3.146858
      pz      :     0.612507  p :     2.208816
      px      :     0.688987
      py      :     0.907322
      dz2     :     0.061091  d :     0.287080
      dxz     :     0.067852
      dyz     :     0.062121
      dx2y2   :     0.038136
      dxy     :     0.057880
      f0      :     0.004416  f :     0.028763
      f+1     :     0.007818
      f-1     :     0.003850
      f+2     :     0.003069
      f-2     :     0.003489
      f+3     :     0.002411
      f-3     :     0.003710

  5 C s       :     3.131538  s :     3.131538
      pz      :     0.674458  p :     2.207127
      px      :     0.647835
      py      :     0.884834
      dz2     :     0.056075  d :     0.282932
      dxz     :     0.073607
      dyz     :     0.048510
      dx2y2   :     0.044452
      dxy     :     0.060287
      f0      :     0.005690  f :     0.028638
      f+1     :     0.005529
      f-1     :     0.003866
      f+2     :     0.004052
      f-2     :     0.002007
      f+3     :     0.002891
      f-3     :     0.004604

  6 C s       :     3.152287  s :     3.152287
      pz      :     0.669200  p :     2.259165
      px      :     0.618166
      py      :     0.971799
      dz2     :     0.042983  d :     0.252648
      dxz     :     0.059738
      dyz     :     0.047983
      dx2y2   :     0.046799
      dxy     :     0.055145
      f0      :     0.005657  f :     0.026856
      f+1     :     0.003517
      f-1     :     0.003489
      f+2     :     0.004197
      f-2     :     0.002384
      f+3     :     0.003130
      f-3     :     0.004482

  7 C s       :     3.062094  s :     3.062094
      pz      :     0.816424  p :     2.492399
      px      :     0.776775
      py      :     0.899200
      dz2     :     0.012548  d :     0.247307
      dxz     :     0.069731
      dyz     :     0.016518
      dx2y2   :     0.073861
      dxy     :     0.074650
      f0      :     0.002510  f :     0.025591
      f+1     :     0.002366
      f-1     :     0.001116
      f+2     :     0.002372
      f-2     :     0.002767
      f+3     :     0.007014
      f-3     :     0.007447

  8 F s       :     3.910712  s :     3.910712
      pz      :     1.803260  p :     5.225351
      px      :     1.551420
      py      :     1.870671
      dz2     :     0.002290  d :     0.017025
      dxz     :     0.005529
      dyz     :     0.001048
      dx2y2   :     0.004562
      dxy     :     0.003596
      f0      :     0.000089  f :     0.000782
      f+1     :     0.000135
      f-1     :     0.000014
      f+2     :     0.000185
      f-2     :     0.000098
      f+3     :     0.000131
      f-3     :     0.000131

  9 F s       :     3.909044  s :     3.909044
      pz      :     1.470966  p :     5.224185
      px      :     1.874433
      py      :     1.878786
      dz2     :     0.008297  d :     0.017187
      dxz     :     0.003865
      dyz     :     0.004251
      dx2y2   :     0.000321
      dxy     :     0.000454
      f0      :     0.000329  f :     0.000796
      f+1     :     0.000189
      f-1     :     0.000205
      f+2     :     0.000027
      f-2     :     0.000041
      f+3     :     0.000003
      f-3     :     0.000002

 10 F s       :     3.910045  s :     3.910045
      pz      :     1.892402  p :     5.226410
      px      :     1.739598
      py      :     1.594410
      dz2     :     0.002470  d :     0.016940
      dxz     :     0.001352
      dyz     :     0.002374
      dx2y2   :     0.004048
      dxy     :     0.006696
      f0      :     0.000066  f :     0.000783
      f+1     :     0.000066
      f-1     :     0.000109
      f+2     :     0.000016
      f-2     :     0.000102
      f+3     :     0.000246
      f-3     :     0.000179

 11 F s       :     3.914468  s :     3.914468
      pz      :     1.748225  p :     5.231615
      px      :     1.613002
      py      :     1.870388
      dz2     :     0.002432  d :     0.016929
      dxz     :     0.005983
      dyz     :     0.001798
      dx2y2   :     0.003352
      dxy     :     0.003363
      f0      :     0.000079  f :     0.000736
      f+1     :     0.000152
      f-1     :     0.000026
      f+2     :     0.000171
      f-2     :     0.000140
      f+3     :     0.000075
      f-3     :     0.000095

 12 F s       :     3.912081  s :     3.912081
      pz      :     1.543030  p :     5.231196
      px      :     1.833053
      py      :     1.855113
      dz2     :     0.006042  d :     0.017048
      dxz     :     0.004426
      dyz     :     0.004475
      dx2y2   :     0.000912
      dxy     :     0.001193
      f0      :     0.000182  f :     0.000749
      f+1     :     0.000190
      f-1     :     0.000184
      f+2     :     0.000069
      f-2     :     0.000105
      f+3     :     0.000010
      f-3     :     0.000008

 13 F s       :     3.914765  s :     3.914765
      pz      :     1.628887  p :     5.233253
      px      :     1.721357
      py      :     1.883008
      dz2     :     0.003982  d :     0.017059
      dxz     :     0.006235
      dyz     :     0.002872
      dx2y2   :     0.001864
      dxy     :     0.002106
      f0      :     0.000101  f :     0.000739
      f+1     :     0.000235
      f-1     :     0.000067
      f+2     :     0.000136
      f-2     :     0.000138
      f+3     :     0.000028
      f-3     :     0.000034

 14 F s       :     3.915105  s :     3.915105
      pz      :     1.590161  p :     5.234577
      px      :     1.745092
      py      :     1.899324
      dz2     :     0.004741  d :     0.016947
      dxz     :     0.006221
      dyz     :     0.002847
      dx2y2   :     0.001509
      dxy     :     0.001629
      f0      :     0.000125  f :     0.000733
      f+1     :     0.000267
      f-1     :     0.000069
      f+2     :     0.000123
      f-2     :     0.000110
      f+3     :     0.000018
      f-3     :     0.000022

 15 F s       :     3.914237  s :     3.914237
      pz      :     1.553012  p :     5.234943
      px      :     1.823602
      py      :     1.858329
      dz2     :     0.005778  d :     0.017055
      dxz     :     0.004615
      dyz     :     0.004353
      dx2y2   :     0.000999
      dxy     :     0.001311
      f0      :     0.000167  f :     0.000741
      f+1     :     0.000197
      f-1     :     0.000169
      f+2     :     0.000073
      f-2     :     0.000112
      f+3     :     0.000013
      f-3     :     0.000010

 16 F s       :     3.914586  s :     3.914586
      pz      :     1.730096  p :     5.236985
      px      :     1.627286
      py      :     1.879602
      dz2     :     0.002640  d :     0.016894
      dxz     :     0.006215
      dyz     :     0.001908
      dx2y2   :     0.003083
      dxy     :     0.003049
      f0      :     0.000078  f :     0.000732
      f+1     :     0.000170
      f-1     :     0.000027
      f+2     :     0.000175
      f-2     :     0.000137
      f+3     :     0.000064
      f-3     :     0.000080

 17 F s       :     3.913167  s :     3.913167
      pz      :     1.483073  p :     5.241536
      px      :     1.882023
      py      :     1.876441
      dz2     :     0.007843  d :     0.016881
      dxz     :     0.003474
      dyz     :     0.004625
      dx2y2   :     0.000475
      dxy     :     0.000463
      f0      :     0.000296  f :     0.000735
      f+1     :     0.000151
      f-1     :     0.000211
      f+2     :     0.000036
      f-2     :     0.000036
      f+3     :     0.000003
      f-3     :     0.000002

 18 F s       :     3.913744  s :     3.913744
      pz      :     1.801472  p :     5.243563
      px      :     1.535053
      py      :     1.907037
      dz2     :     0.002094  d :     0.016721
      dxz     :     0.005621
      dyz     :     0.000884
      dx2y2   :     0.004820
      dxy     :     0.003302
      f0      :     0.000081  f :     0.000724
      f+1     :     0.000131
      f-1     :     0.000003
      f+2     :     0.000201
      f-2     :     0.000069
      f+3     :     0.000135
      f-3     :     0.000105

 19 F s       :     3.913530  s :     3.913530
      pz      :     1.499725  p :     5.258266
      px      :     1.886453
      py      :     1.872087
      dz2     :     0.007300  d :     0.016442
      dxz     :     0.003272
      dyz     :     0.004743
      dx2y2   :     0.000632
      dxy     :     0.000495
      f0      :     0.000263  f :     0.000720
      f+1     :     0.000140
      f-1     :     0.000217
      f+2     :     0.000049
      f-2     :     0.000043
      f+3     :     0.000003
      f-3     :     0.000004

 20 F s       :     3.915213  s :     3.915213
      pz      :     1.884457  p :     5.250860
      px      :     1.463815
      py      :     1.902587
      dz2     :     0.002292  d :     0.016625
      dxz     :     0.003769
      dyz     :     0.000251
      dx2y2   :     0.006289
      dxy     :     0.004025
      f0      :     0.000067  f :     0.000727
      f+1     :     0.000136
      f-1     :     0.000012
      f+2     :     0.000117
      f-2     :     0.000019
      f+3     :     0.000212
      f-3     :     0.000165

 21 F s       :     3.910088  s :     3.910088
      pz      :     1.539083  p :     5.288256
      px      :     1.853651
      py      :     1.895523
      dz2     :     0.006083  d :     0.015334
      dxz     :     0.004207
      dyz     :     0.003652
      dx2y2   :     0.000728
      dxy     :     0.000663
      f0      :     0.000194  f :     0.000670
      f+1     :     0.000205
      f-1     :     0.000137
      f+2     :     0.000061
      f-2     :     0.000062
      f+3     :     0.000007
      f-3     :     0.000005

 22 F s       :     3.908228  s :     3.908228
      pz      :     1.897119  p :     5.283350
      px      :     1.489137
      py      :     1.897094
      dz2     :     0.002166  d :     0.015637
      dxz     :     0.003063
      dyz     :     0.000202
      dx2y2   :     0.006002
      dxy     :     0.004205
      f0      :     0.000052  f :     0.000680
      f+1     :     0.000131
      f-1     :     0.000013
      f+2     :     0.000084
      f-2     :     0.000013
      f+3     :     0.000210
      f-3     :     0.000177

 23 O s       :     3.770157  s :     3.770157
      pz      :     1.522957  p :     4.652901
      px      :     1.519361
      py      :     1.610583
      dz2     :     0.002520  d :     0.027233
      dxz     :     0.005669
      dyz     :     0.003764
      dx2y2   :     0.007113
      dxy     :     0.008167
      f0      :     0.000181  f :     0.001661
      f+1     :     0.000122
      f-1     :     0.000076
      f+2     :     0.000032
      f-2     :     0.000363
      f+3     :     0.000464
      f-3     :     0.000424

 24 O s       :     3.797420  s :     3.797420
      pz      :     1.553992  p :     4.681717
      px      :     1.330768
      py      :     1.796957
      dz2     :     0.002368  d :     0.023314
      dxz     :     0.007940
      dyz     :     0.000480
      dx2y2   :     0.006178
      dxy     :     0.006348
      f0      :     0.000164  f :     0.001709
      f+1     :     0.000250
      f-1     :     0.000020
      f+2     :     0.000358
      f-2     :     0.000056
      f+3     :     0.000423
      f-3     :     0.000439

 25 O s       :     3.793647  s :     3.793647
      pz      :     1.931972  p :     4.907007
      px      :     1.541423
      py      :     1.433611
      dz2     :     0.003433  d :     0.019389
      dxz     :     0.002212
      dyz     :     0.001923
      dx2y2   :     0.011367
      dxy     :     0.000455
      f0      :     0.000206  f :     0.001258
      f+1     :     0.000234
      f-1     :     0.000270
      f+2     :     0.000128
      f-2     :     0.000020
      f+3     :     0.000144
      f-3     :     0.000255

 26 H s       :     0.619685  s :     0.619685
      pz      :     0.015748  p :     0.046617
      px      :     0.011350
      py      :     0.019519

 27 H s       :     0.589896  s :     0.589896
      pz      :     0.015003  p :     0.051726
[...]
      f-3     :     0.000004

 18 F s       :     3.592347  s :     3.592347
      pz      :     1.803958  p :     5.157854
      px      :     1.531733
      py      :     1.822163
      dz2     :     0.004130  d :     0.030997
      dxz     :     0.006559
      dyz     :     0.000621
      dx2y2   :     0.011933
      dxy     :     0.007754
      f0      :     0.000132  f :     0.001550
      f+1     :     0.000283
      f-1     :     0.000023
      f+2     :     0.000267
      f-2     :     0.000048
      f+3     :     0.000404
      f-3     :     0.000392

 19 F s       :     3.595716  s :     3.595716
      pz      :     1.580010  p :     5.167145
      px      :     1.782932
      py      :     1.804203
      dz2     :     0.011343  d :     0.030238
      dxz     :     0.007674
      dyz     :     0.007772
      dx2y2   :     0.001682
      dxy     :     0.001767
      f0      :     0.000394  f :     0.001505
      f+1     :     0.000383
      f-1     :     0.000326
      f+2     :     0.000181
      f-2     :     0.000180
      f+3     :     0.000020
      f-3     :     0.000020

 20 F s       :     3.593197  s :     3.593197
      pz      :     1.814893  p :     5.160469
      px      :     1.522807
      py      :     1.822769
      dz2     :     0.004185  d :     0.030759
      dxz     :     0.005980
      dyz     :     0.000245
      dx2y2   :     0.012540
      dxy     :     0.007808
      f0      :     0.000142  f :     0.001535
      f+1     :     0.000265
      f-1     :     0.000028
      f+2     :     0.000229
      f-2     :     0.000018
      f+3     :     0.000448
      f-3     :     0.000406

 21 F s       :     3.606278  s :     3.606278
      pz      :     1.623560  p :     5.198910
      px      :     1.736431
      py      :     1.838918
      dz2     :     0.007296  d :     0.029390
      dxz     :     0.010666
      dyz     :     0.005636
      dx2y2   :     0.002744
      dxy     :     0.003048
      f0      :     0.000209  f :     0.001437
      f+1     :     0.000460
      f-1     :     0.000159
      f+2     :     0.000263
      f-2     :     0.000251
      f+3     :     0.000053
      f-3     :     0.000041

 22 F s       :     3.602685  s :     3.602685
      pz      :     1.794973  p :     5.194598
      px      :     1.575330
      py      :     1.824294
      dz2     :     0.003185  d :     0.029591
      dxz     :     0.007332
      dyz     :     0.001129
      dx2y2   :     0.009689
      dxy     :     0.008257
      f0      :     0.000138  f :     0.001456
      f+1     :     0.000208
      f-1     :     0.000016
      f+2     :     0.000260
      f-2     :     0.000130
      f+3     :     0.000352
      f-3     :     0.000351

 23 O s       :     3.417665  s :     3.417665
      pz      :     1.431711  p :     4.540123
      px      :     1.536645
      py      :     1.571767
      dz2     :     0.007525  d :     0.062544
      dxz     :     0.012439
      dyz     :     0.003778
      dx2y2   :     0.017688
      dxy     :     0.021114
      f0      :     0.000491  f :     0.005703
      f+1     :     0.000744
      f-1     :     0.000223
      f+2     :     0.000441
      f-2     :     0.000681
      f+3     :     0.001481
      f-3     :     0.001643

 24 O s       :     3.415298  s :     3.415298
      pz      :     1.480872  p :     4.570283
      px      :     1.482932
      py      :     1.606479
      dz2     :     0.007604  d :     0.062118
      dxz     :     0.013493
      dyz     :     0.001792
      dx2y2   :     0.020006
      dxy     :     0.019224
      f0      :     0.000474  f :     0.005455
      f+1     :     0.000809
      f-1     :     0.000145
      f+2     :     0.000627
      f-2     :     0.000325
      f+3     :     0.001507
      f-3     :     0.001568

 25 O s       :     3.462322  s :     3.462322
      pz      :     1.867102  p :     4.877898
      px      :     1.460304
      py      :     1.550492
      dz2     :     0.004494  d :     0.028122
      dxz     :     0.002139
      dyz     :     0.001255
      dx2y2   :     0.014244
      dxy     :     0.005990
      f0      :     0.000232  f :     0.002228
      f+1     :     0.000242
      f-1     :     0.000342
      f+2     :     0.000236
      f-2     :     0.000065
      f+3     :     0.000846
      f-3     :     0.000265

 26 H s       :     0.683697  s :     0.683697
      pz      :     0.046075  p :     0.161264
      px      :     0.036702
      py      :     0.078486

 27 H s       :     0.677419  s :     0.677419
      pz      :     0.047987  p :     0.183667
      px      :     0.103883
      py      :     0.031797



                      *****************************
                      * MAYER POPULATION ANALYSIS *
                      *****************************

  NA   - Mulliken gross atomic population
  ZA   - Total nuclear charge
  QA   - Mulliken gross atomic charge
  VA   - Mayer's total valence
  BVA  - Mayer's bonded valence
  FA   - Mayer's free valence

  ATOM       NA         ZA         QA         VA         BVA        FA
  0 C      5.5239     6.0000     0.4761     4.5142     4.5142     0.0000
  1 C      5.6762     6.0000     0.3238     4.1793     4.1793     0.0000
  2 C      5.6877     6.0000     0.3123     4.1324     4.1324    -0.0000
  3 C      5.6678     6.0000     0.3322     4.1621     4.1621     0.0000
  4 C      5.6650     6.0000     0.3350     4.1537     4.1537     0.0000
  5 C      5.6896     6.0000     0.3104     4.0621     4.0621    -0.0000
  6 C      5.6574     6.0000     0.3426     3.8917     3.8917    -0.0000
  7 C      5.8114     6.0000     0.1886     4.5756     4.5756     0.0000
  8 F      9.1551     9.0000    -0.1551     1.1633     1.1633    -0.0000
  9 F      9.1526     9.0000    -0.1526     1.1663     1.1663     0.0000
 10 F      9.1526     9.0000    -0.1526     1.1676     1.1676     0.0000
 11 F      9.1656     9.0000    -0.1656     1.1538     1.1538     0.0000
 12 F      9.1627     9.0000    -0.1627     1.1548     1.1548    -0.0000
 13 F      9.1685     9.0000    -0.1685     1.1524     1.1524    -0.0000
 14 F      9.1678     9.0000    -0.1678     1.1509     1.1509     0.0000
 15 F      9.1695     9.0000    -0.1695     1.1492     1.1492    -0.0000
 16 F      9.1698     9.0000    -0.1698     1.1478     1.1478     0.0000
 17 F      9.1740     9.0000    -0.1740     1.1424     1.1424    -0.0000
 18 F      9.1752     9.0000    -0.1752     1.1389     1.1389     0.0000
 19 F      9.1884     9.0000    -0.1884     1.1217     1.1217    -0.0000
 20 F      9.1819     9.0000    -0.1819     1.1316     1.1316     0.0000
 21 F      9.2127     9.0000    -0.2127     1.0694     1.0694    -0.0000
 22 F      9.2069     9.0000    -0.2069     1.0870     1.0870     0.0000
 23 O      8.4501     8.0000    -0.4501     2.0243     2.0243     0.0000
 24 O      8.5176     8.0000    -0.5176     1.8966     1.8966    -0.0000
 25 O      8.7299     8.0000    -0.7299     1.7314     1.7314     0.0000
 26 H      0.6746     1.0000     0.3254     0.9086     0.9086     0.0000
 27 H      0.6457     1.0000     0.3543     0.9435     0.9435     0.0000

  Mayer bond orders larger than 0.100000
B(  0-C ,  1-C ) :   0.9698 B(  0-C ,  8-F ) :   1.1439 B(  0-C ,  9-F ) :   1.1556 
B(  0-C , 10-F ) :   1.1483 B(  1-C ,  2-C ) :   0.9269 B(  1-C , 11-F ) :   1.0873 
B(  1-C , 12-F ) :   1.0980 B(  2-C ,  3-C ) :   0.9335 B(  2-C , 13-F ) :   1.0820 
B(  2-C , 14-F ) :   1.0872 B(  3-C ,  4-C ) :   0.9401 B(  3-C , 15-F ) :   1.0802 
B(  3-C , 16-F ) :   1.0794 B(  4-C ,  5-C ) :   0.9276 B(  4-C , 17-F ) :   1.0789 
B(  4-C , 18-F ) :   1.0712 B(  5-C ,  6-C ) :   0.9131 B(  5-C , 19-F ) :   1.0610 
B(  5-C , 20-F ) :   1.0732 B(  6-C ,  7-C ) :   0.8738 B(  6-C , 21-F ) :   1.0320 
B(  6-C , 22-F ) :   1.0528 B(  7-C , 23-O ) :   1.9381 B(  7-C , 24-O ) :   1.7017 
B( 24-O , 27-H ) :   0.1093 B( 25-O , 26-H ) :   0.9027 B( 25-O , 27-H ) :   0.8224 


-------
TIMINGS
-------

Total SCF time: 0 days 0 hours 0 min 35 sec 

Total time                  ....      35.160 sec
Sum of individual times     ....      34.577 sec  ( 98.3%)

SCF preparation             ....       1.325 sec  (  3.8%)
Fock matrix formation       ....      29.366 sec  ( 83.5%)
  Startup                   ....       0.097 sec  (  0.3% of F)
  Split-RI-J                ....       2.148 sec  (  7.3% of F)
  Chain of spheres X        ....      21.167 sec  ( 72.1% of F)
  XC integration            ....       3.815 sec  ( 13.0% of F)
    XC Preparation          ....       0.000 sec  (  0.0% of XC)
    Basis function eval.    ....       0.416 sec  ( 10.9% of XC)
    Density eval.           ....       0.489 sec  ( 12.8% of XC)
    XC-Functional eval.     ....       0.029 sec  (  0.8% of XC)
    XC-Potential eval.      ....       0.513 sec  ( 13.4% of XC)
  CPCM terms                ....       1.866 sec  (  6.4% of F)
Diagonalization             ....       0.000 sec  (  0.0%)
Density matrix formation    ....       0.452 sec  (  1.3%)
Total Energy calculation    ....       0.151 sec  (  0.4%)
Population analysis         ....       0.480 sec  (  1.4%)
Orbital Transformation      ....       0.521 sec  (  1.5%)
Orbital Orthonormalization  ....       0.000 sec  (  0.0%)
DIIS solution               ....       1.421 sec  (  4.0%)
SOSCF solution              ....       0.860 sec  (  2.4%)
Finished LeanSCF after  35.7 sec

Maximum memory used throughout the entire LEANSCF-calculation: 110.1 MB


-------------------------------------------------------------------------------
                          DFT DISPERSION CORRECTION                            
                                                                               
                              DFTD3 V3.1  Rev 1                                
                          USING Becke-Johnson damping                          
-------------------------------------------------------------------------------
The B3LYP functional is recognized
Active option DFTDOPT                   ...         4   

molecular C6(AA) [au] = 7741.938553 


            DFT-D V3
 parameters
 s6 scaling factor         :     1.0000 
 a1 scaling factor         :     0.3981 
 s8 scaling factor         :     1.9889 
 a2 scaling factor         :     4.4211 
 ad hoc parameters k1-k3   :    16.0000     1.3333    -4.0000 

 Edisp/kcal,au: -29.628212742210  -0.047215557384 
 E6   /kcal   : -14.215869776 
 E8   /kcal   : -15.412342966 
 % E8         :  52.019145064 

-------------------------   ----------------
Dispersion correction           -0.047215557
-------------------------   ----------------


-------------------------   --------------------
FINAL SINGLE POINT ENERGY     -2029.639844527406
-------------------------   --------------------

                                *** OPTIMIZATION RUN DONE ***



           ************************************************************
           *        Program running with 20 parallel MPI-processes    *
           *              working on a common directory               *
           ************************************************************

------------------------------------------------------------------------------
                              ORCA PROPERTY CALCULATIONS
------------------------------------------------------------------------------

GBWName                                 ... rf_mecn_1H2O_opt_B3L_sw_003.gbw
Number of atoms                         ...     28
Number of basis functions               ...    818
Max core memory                         ...   8000 MB

Electric properties:
Dipole moment                           ... YES
Quadrupole moment                       ...  NO
Static polarizability (Dipole/Dipole)   ...  NO
Static polarizability (Dipole/Quad.)    ...  NO
Static polarizability (Quad./Quad.)     ...  NO
Static polarizability (Velocity)        ...  NO

Atomic electric properties:
Dipole moment                           ...  NO
Quadrupole moment                       ...  NO
Static polarizability                   ...  NO

Choice of electric origin               ... Center of mass
Position of electric origin             ...    12.458410    44.692478     3.356528

General magnetic properties:
Magnetizability                         ...  NO

EPR properties:
g-Tensor (aka g-matrix)                 ...  NO
Zero-Field splitting spin-orbit         ...  NO
Zero-field splitting spin-spin          ...  NO
Hyperfine couplings                     ...  NO (   0 nuclei)
Quadrupole couplings                    ...  NO (   0 nuclei)
Contact density                         ...  NO (   0 nuclei)

NMR properties:
Chemical shifts                         ...  NO (   0 nuclei)
Spin-rotation constants                 ...  NO (   0 nuclei)
Spin-spin couplings                     ...  NO (   0 nuclei,    0 pairs)

Choice of magnetic origin               ... GIAO
Position of magnetic origin             ...     0.000000     0.000000     0.000000

Properties with geometric perturbations:
SCF Hessian                             ...  NO
IR spectrum                             ...  NO
VCD spectrum                            ...  NO
X-ray spectroscopy properties:
SCF XES/XAS/RIXS spectra                ...  NO


-------------
DIPOLE MOMENT
-------------

Method             : SCF
Type of density    : Electron Density
Multiplicity       :   1
Irrep              :   0
Energy             : -2029.5926289700216785 Eh
Relativity type    : 
Basis              : AO
                                X                 Y                 Z
Electronic contribution:      8.167667430      29.481270366       5.371669261
Nuclear contribution   :     -7.770929752     -21.644202271      -4.161976156
                        -----------------------------------------
Total Dipole Moment    :      0.396737679       7.837068094       1.209693105
                        -----------------------------------------
Magnitude (a.u.)       :      7.939798140
Magnitude (Debye)      :     20.181363033



--------------------
Rotational spectrum 
--------------------
 
Rotational constants in cm-1:             0.016754             0.003413             0.003246 
Rotational constants in MHz :           502.284013           102.328757            97.317567 

Dipole components along the rotational axes: 
x,y,z [a.u.] :     7.909105     0.071552    -0.693778 
x,y,z [Debye]:    20.103348     0.181872    -1.763444 

 

Dipole moment calculation done in   0.1 sec 

Maximum memory used throughout the entire PROP-calculation: 61.0 MB

--------------------------------
SUGGESTED CITATIONS FOR THIS RUN
--------------------------------

Below you find a list of papers that are relevant to this ORCA run
We neither can nor want to force you to cite these papers, but we appreciate if you do
You receive ORCA, which is the product of decades of hard work by many enthusiastic individuals, for free
The only thing we kindly ask in return is that you cite our papers,
We deeply appreciate it, if you show your appreciation for ORCA by not just citing the generic ORCA reference.

Please note that relegating all ORCA citations to the supporting information does *not* help us.
SI sections are not indexed - citations you put there will not count into any citation statistics
But we need these citations in order to attract the funding resources that allow us to do what we are doing

Therefore, if you are a happy ORCA user, please consider citing a few of the papers listed below in the main body of your paper

In addition to the list printed below, the program has created the file rf_mecn_1H2O_opt_B3L_sw_003.bibtex that contains the list in bibtex format
You can import this file easily into all common literature databanks and citation aid programs


List of essential papers. We consider these as the minimum necessary citations

  1. Neese,F.
     Software update: the ORCA program system, version 5.0
     WIRES Comput. Molec. Sci., 2022 12(1)e1606
     doi.org/10.1002/wcms.1606

List of papers to cite with high priority. The work reported in these papers was absolutely
necessary for this run to complete.
Our perspective: the developers of density functionals and basis sets usually get cited in chemistry papers
Good! But without the algorithms to do something with them, the functionals or basis sets would not do anything.
Hence, in our opinion, the algorithm design and method developments papers are equally worthy of getting cited

  1. Neese,F.
     An improvement of the resolution of the identity approximation for the formation of the Coulomb matrix
     J. Comp. Chem., 2003 24(14)1740-1747
     doi.org/10.1002/jcc.10318
  2. Neese,F.; Wennmohs,F.; Hansen,A.; Becker,U.
     Efficient, approximate and parallel Hartree-Fock and hybrid DFT calculations. A 'chain-of-spheres' algorithm for the Hartree-Fock exchange
     Chem. Phys., 2009 356(1-3)98-109
     doi.org/10.1016/j.chemphys.2008.10.036
  3. Garcia-Rates,M.; Neese,F.
     Effect of the Solute Cavity on the Solvation Energy and its Derivatives within the Framework of the Gaussian Charge Scheme
     J. Comput. Chem., 2020 41 922-939
     doi.org/10.1002/jcc.26139
  4. Helmich-Paris,B.; de Souza,B.; Neese,F.; Izsák,R.
     An improved chain of spheres for exchange algorithm
     J. Chem. Phys., 2021 155 104109
     doi.org/doi: 10.1063/5.0058766.
  5. Neese,F.
     The SHARK Integral Generation and Digestion System
     J. Comp. Chem., 2022  1-16
     doi.org/10.1002/jcc.26942
  6. Grimme,S.; Antony,J.; Ehrlich,S.; Krieg,H.
     A consistent and accurate ab initio parametrization of density functional dispersion correction (DFT-D) for the 94 elements H-Pu
     J. Chem. Phys., 2010 132 154104
     doi.org/10.1063/1.3382344
  7. Grimme,S.; Ehrlich,S.; Goerigk,L.
     Effect of the damping function in dispersion corrected density functional theory
     J. Comput. Chem., 2011 32(7)1456-1465
     doi.org/10.1002/jcc.21759

List of suggested additional citations. These are papers that are important in the 'surrounding' of 
of this run, or papers that preceded the highly important papers. If you like your results we are grateful for a citation.

  1. Izsak,R.; Neese,F.
     An overlap fitted chain of spheres exchange method
     J. Chem. Phys., 2011 135 144105
     doi.org/10.1063/1.3646921
  2. Izsak,R.; Hansen,A.; Neese,F.
     The resolution of identity and chain of spheres approximations for the LPNO-CCSD singles Fock term
     Molec. Phys., 2012 110 2413-2417
     doi.org/10.1080/00268976.2012.687466
  3. Neese,F.
     The ORCA program system
     WIRES Comput. Molec. Sci., 2012 2(1)73-78
     doi.org/10.1002/wcms.81
  4. Izsak,R.; Neese,F.; Klopper,W.
     Robust fitting techniques in the chain of spheres approximation to the Fock exchange: The role of the complementary space
     J. Chem. Phys., 2013 139 
     doi.org/10.1063/1.4819264
  5. Neese,F.
     Software update: the ORCA program system, version 4.0
     WIRES Comput. Molec. Sci., 2018 8(1)1-6
     doi.org/10.1002/wcms.1327
  6. Neese,F.; Wennmohs,F.; Becker,U.; Riplinger,C.
     The ORCA quantum chemistry program package
     J. Chem. Phys., 2020 152 Art. No. L224108
     doi.org/10.1063/5.0004608

List of optional additional citations

  1. Neese,F.
     Approximate second-order SCF convergence for spin unrestricted wavefunctions
     Chem. Phys. Lett., 2000 325(1-3)93-98
     doi.org/10.1016/s0009-2614(00)00662-x

Timings for individual modules:

Sum of individual times          ...     3893.351 sec (=  64.889 min)
Startup calculation              ...      196.108 sec (=   3.268 min)   5.0 %
SCF iterations                   ...     2674.572 sec (=  44.576 min)  68.7 %
Property calculations            ...        0.851 sec (=   0.014 min)   0.0 %
SCF Gradient evaluation          ...     1020.734 sec (=  17.012 min)  26.2 %
Geometry relaxation              ...        1.086 sec (=   0.018 min)   0.0 %
                             ****ORCA TERMINATED NORMALLY****
TOTAL RUN TIME: 0 days 1 hours 5 minutes 26 seconds 696 msec
