
                                 *****************
                                 * O   R   C   A *
                                 *****************

                                            #,                                       
                                            ###                                      
                                            ####                                     
                                            #####                                    
                                            ######                                   
                                           ########,                                 
                                     ,,################,,,,,                         
                               ,,#################################,,                 
                          ,,##########################################,,             
                       ,#########################################, ''#####,          
                    ,#############################################,,   '####,        
                  ,##################################################,,,,####,       
                ,###########''''           ''''###############################       
              ,#####''   ,,,,##########,,,,          '''####'''          '####       
            ,##' ,,,,###########################,,,                        '##       
           ' ,,###''''                  '''############,,,                           
         ,,##''                                '''############,,,,        ,,,,,,###''
      ,#''                                            '''#######################'''  
     '                                                          ''''####''''         
             ,#######,   #######,   ,#######,      ##                                
            ,#'     '#,  ##    ##  ,#'     '#,    #''#        ,####,   ,####,        
            ##       ##  ##   ,#'  ##            #'  '#       #'       #'  '#        
            ##       ##  #######   ##           ,######,      #####,   #    #        
            '#,     ,#'  ##    ##  '#,     ,#' ,#      #,     #,   #   #,  ,#        
             '#######'   ##     ##  '#######'  #'      '#     '####' # '####'        



                #########################################################
                #                        -***-                          #
                #          Department of theory and spectroscopy        #
                #                                                       #
                #                      Frank Neese                      #
                #                                                       #
                #     Directorship, Architecture, Infrastructure        #
                #                    SHARK, DRIVERS                     #
                #        Core code/Algorithms in most modules           #
                #                                                       #
                #        Max Planck Institute fuer Kohlenforschung      #
                #                Kaiser Wilhelm Platz 1                 #
                #                 D-45470 Muelheim/Ruhr                 #
                #                      Germany                          #
                #                                                       #
                #                  All rights reserved                  #
                #                        -***-                          #
                #########################################################


                         Program Version 6.0.1  -  RELEASE   -


 With contributions from (in alphabetic order):
[Max-Planck-Institut fuer Kohlenforschung]                               
  Daniel Aravena         : Magnetic Suceptibility                        
  Michael Atanasov       : Ab Initio Ligand Field Theory (pilot matlab implementation)
  Alexander A. Auer      : GIAO ZORA, VPT2 properties, NMR spectrum      
  Ute Becker             : All parallelization in ORCA, NUMFREQ, NUMCALC 
  Giovanni Bistoni       : ED, misc. LED, open-shell LED, HFLD           
  Martin Brehm           : Molecular dynamics                            
  Dmytro Bykov           : pre 5.0 version of the SCF Hessian            
  Marcos Casanova-Páez   : Triplet and SCS-CIS(D). UHF-(DLPNO)-IP/EA/STEOM-CCSD. UHF-CVS-IP/STEOM-CCSD   
  Vijay G. Chilkuri      : MRCI spin determinant printing, contributions to CSF-ICE 
  Pauline Colinet        : FMM embedding                                 
  Dipayan Datta          : RHF DLPNO-CCSD density                        
  Achintya Kumar Dutta   : EOM-CC, STEOM-CC                              
  Nicolas Foglia         : Exact transition moments, OPA infrastructure, MCD improvements    
  Dmitry Ganyushin       : Spin-Orbit,Spin-Spin,Magnetic field MRCI      
  Miquel Garcia-Rates    : C-PCM and meta-GGA Hessian, CCSD/C-PCM, Gaussian charge scheme 
  Tiago L. C. Gouveia    : GS-ROHF, GS-ROCIS                             
  Yang Guo               : DLPNO-NEVPT2, F12-NEVPT2, CIM, IAO-localization        
  Andreas Hansen         : Spin unrestricted coupled pair/coupled cluster methods 
  Ingolf Harden          : AUTO-CI MPn and infrastructure                
  Benjamin Helmich-Paris : MC-RPA, TRAH-(SCF,CASSCF), AVAS, COSX integrals, SCF dyn. polar. 
  Lee Huntington         : MR-EOM, pCC                                   
  Robert Izsak           : Overlap fitted RIJCOSX, COSX-SCS-MP3, EOM     
  Riya Kayal             : Wick's Theorem for AUTO-CI, AUTO-CI UHF-CCSDT 
  Emily Kempfer          : AUTO-CI, RHF CISDT and CCSDT                  
  Christian Kollmar      : KDIIS, OOCD, Brueckner-CCSD(T), CCSD density, CASPT2, CASPT2-K, improved NEVPT2 
  Axel Koslowski         : Symmetry handling                             
  Simone Kossmann        : meta-GGA functionals, TD-DFT gradient, OOMP2, (MP2 Hessian; deprecated post 5.0) 
  Lucas Lang             : DCDCAS                                        
  Marvin Lechner         : AUTO-CI (C++ implementation), FIC-MRCC        
  Spencer Leger          : CASSCF response                               
  Dagmar Lenk            : GEPOL surface, SMD, ORCA-2-JSON               
  Dimitrios Liakos       : Extrapolation schemes; Compound Job, initial MDCI parallelization 
  Dimitrios Manganas     : Further ROCIS development; embedding schemes. LFT, Crystal Embedding 
  Dimitrios Pantazis     : SARC Basis sets                               
  Anastasios Papadopoulos: AUTO-CI, single reference methods and gradients 
  Taras Petrenko         : pre 6.0 DFT Hessian and TD-DFT gradient, (ASA, deprecated), ECA, 1-Electron XAS/XES, NRVS 
  Peter Pinski           : DLPNO-MP2, DLPNO-MP2 Gradient                 
  Christoph Reimann      : Effective Core Potentials                     
  Marius Retegan         : Local ZFS, SOC                                
  Christoph Riplinger    : Optimizer, TS searches, QM/MM, DLPNO-CCSD(T), (RO)-DLPNO pert. Triples 
  Michael Roemelt        : Original ROCIS implementation                 
  Masaaki Saitow         : Open-shell DLPNO-CCSD energy and density      
  Barbara Sandhoefer     : DKH picture change effects                    
  Kantharuban Sivalingam : CASSCF convergence/infrastructure, NEVPT2 and variants, FIC-MRCI 
  Bernardo de Souza      : ESD, SOC TD-DFT                               
  Georgi L. Stoychev     : AutoAux, RI-MP2 NMR, DLPNO-MP2 response, X2C  
  Van Anh Tran           : RI-MP2 g-tensors                              
  Willem Van den Heuvel  : Paramagnetic NMR                              
  Zikuan Wang            : NOTCH, Electric field optimization            
  Frank Wennmohs         : Technical directorship and infrastructure     
  Hang Xu                : AUTO-CI-Response properties                   
                                                                         
[FACCTs GmbH]                                                            
  Markus Bursch, Miquel Garcia-Rates, Christoph Riplinger, Bernardo de Souza, Georgi L. Stoychev 
                                                                 
  APM, Basis sets (HGBS, AHGBS, def-TZVP (Ac-Lr), def2-XVPD (La-Lu)), CI-OPT, improved COSX, DLPNO-Multilevel,           
  DOCKER, DRACO, updates on ESD, GOAT, IRC, LR-CPCM, MBIS, meta-GGA TD-DFT gradient, ML-optimized integration grids, 
  MM, NACMEs, nearIR, NEB, NEB-TS, NL-DFT gradient (VV10), 2- and 3-layer-ONIOM, interface openCOSMO-RS, QMMM,   
  Crystal-QMMM, SF, symmetry and pop. for TD-DFT, r2SCAN hybrids, SOLVATOR                                   
                                                                         
[Other institutions]                                                     
  V. Asgeirsson          : NEB                                           
  Christoph Bannwarth    : sTDA-DFT, sTD-DFT, PBEh-3c, B97-3c, D3        
  Sebastian Ehlert       : rSCAN, r2SCAN, r2SCAN-3c, D4, dhf basis sets  
  Marvin Friede          : D4 for Fr, Ra, Ac-Lr                          
  Lars Goerigk           : TD-DFT with DH, B97 family of functionals     
  Stefan Grimme          : VdW corrections, initial TS optimization, DFT functionals, gCP, sTDA/sTD-DF 
  Waldemar Hujo          : DFT-NL                                        
  H. Jonsson             : NEB                                           
  Holger Kruse           : gCP                                           
  Marcel Mueller         : wB97X-3c, vDZP basis set                      
  Hagen Neugebauer       : wr2SCAN                                       
  Tobias Risthaus        : range-separated hybrid DFT                    
  Lukas Wittmann         : regularized MP2, r2SCAN double-hybrids, wr2SCAN        
                                                                         
We gratefully acknowledge several colleagues who have allowed us to      
interface, adapt or use parts of their codes:                            
  Ed Valeev, F. Pavosevic, A. Kumar             : LibInt (2-el integral package), F12 methods 
  Garnet Chan, S. Sharma, J. Yang, R. Olivares  : DMRG                   
  Ulf Ekstrom                                   : XCFun DFT Library      
  Mihaly Kallay                                 : mrcc  (arbitrary order and MRCC methods)
  Frank Weinhold                                : gennbo (NPA and NBO analysis)           
  Simon Mueller                                 : openCOSMO-RS                            
  Christopher J. Cramer and Donald G. Truhlar   : smd solvation model                     
  S Lehtola, MJT Oliveira, MAL Marques          : LibXC Library                           
  Liviu Ungur et al                             : ANISO software                          


 Your calculation uses the libint2 library for the computation of 2-el integrals
 For citations please refer to: http://libint.valeyev.net

 Your ORCA version has been built with support for libXC version: 6.2.2
 For citations please refer to: https://libxc.gitlab.io

 This ORCA versions uses:
   CBLAS   interface :  Fast vector & matrix operations
   LAPACKE interface :  Fast linear algebra routines
   SCALAPACK package :  Parallel linear algebra routines
   Shared memory     :  Shared parallel matrices
   BLAS/LAPACK       :  OpenBLAS 0.3.27  USE64BITINT DYNAMIC_ARCH NO_AFFINITY SkylakeX SINGLE_THREADED
        Core in use  :  SkylakeX
   Copyright (c) 2011-2014, The OpenBLAS Project


NOTE: MaxCore=8000 MB was set to SCF,MP2,MDCI,CIPSI,MRCI and CIS
      => If you want to overwrite this, your respective input block should be placed after the MaxCore statement
Your calculation utilizes the atom-pairwise dispersion correction
with the Becke-Johnson damping scheme (D3BJ)


Your calculation utilizes the SMD solvation module
Please cite in your paper:
A.V. Marenich, C.J. Cramer, D.G. Truhlar J. Phys. Chem. B, 113, (2009), 6378 

Warning: RI is on but no J-basis has been assigned. Assigning Def2/J (nothing to worry about!)
================================================================================

----- Orbital basis set information -----
Your calculation utilizes the basis: def2-TZVP
   F. Weigend and R. Ahlrichs, Phys. Chem. Chem. Phys. 7, 3297 (2005).

----- AuxJ basis set information -----
Your calculation utilizes the auxiliary basis: def2/J
   F. Weigend, Phys. Chem. Chem. Phys. 8, 1057 (2006).

================================================================================
                                        WARNINGS
                       Please study these warnings very carefully!
================================================================================


WARNING: your system is open-shell and RHF/RKS was chosen
  ===> : WILL SWITCH to UHF/UKS


================================================================================
                                       INPUT FILE
================================================================================
NAME = rf_mecn_2H2O_freq_TP_sw_04.inp
|  1> !TPSSh def2-TZVP freq d3 TightSCF SlowConv defgrid2
|  2>  
|  3> %pal
|  4> nprocs 20
|  5> end
|  6>  
|  7> %scf
|  8> MaxIter 1500
|  9> end
| 10>  
| 11> %maxcore 8000
| 12>  
| 13> !CPCM
| 14> %cpcm smd true
| 15> SMDsolvent "ACETONITRILE"
| 16> end
| 17>  
| 18> * xyz -2 2
| 19> 6        7.304885000     27.849027000      2.863778000
| 20> 6        6.843165000     26.385171000      3.069191000
| 21> 6        7.235481000     25.223179000      2.101389000
| 22> 6        6.807824000     23.706617000      2.199545000
| 23> 6        7.199014000     22.526259000      1.242625000
| 24> 6        6.757671000     21.041644000      1.449003000
| 25> 6        7.058892000     19.954300000      0.372924000
| 26> 6        6.721582000     18.496553000      0.819239000
| 27> 9        6.862776000     28.332370000      1.690861000
| 28> 9        8.645485000     27.936757000      2.880416000
| 29> 9        6.844648000     28.690188000      3.832734000
| 30> 9        7.294075000     26.040419000      4.321128000
| 31> 9        5.469421000     26.445085000      3.094727000
| 32> 9        6.790678000     25.641585000      0.853343000
| 33> 9        8.622833000     25.212355000      2.107688000
| 34> 9        7.246987000     23.304239000      3.458012000
| 35> 9        5.419940000     23.736150000      2.191837000
| 36> 9        6.740973000     22.891288000     -0.007484000
| 37> 9        8.578499000     22.509183000      1.216264000
| 38> 9        7.329470000     20.617931000      2.619709000
| 39> 9        5.397323000     21.042226000      1.626218000
| 40> 9        6.354767000     20.285885000     -0.755423000
| 41> 9        8.389224000     20.056190000      0.041627000
| 42> 8        7.641473000     17.876323000      1.396655000
| 43> 8        5.556245000     18.111340000      0.580268000
| 44> 8        3.385533000     19.007258000     -0.838276000
| 45> 1        2.744307000     18.363348000     -0.510235000
| 46> 1        4.219608000     18.778120000     -0.363187000
| 47> 1        9.157837000     18.486555000      2.039862000
| 48> 8       10.022814000     18.755602000      2.434280000
| 49> 1       10.060783000     19.707693000      2.275498000
| 50> *
| 51> 
| 52>                          ****END OF INPUT****
================================================================================

                       ****************************
                       * Single Point Calculation *
                       ****************************

---------------------------------
CARTESIAN COORDINATES (ANGSTROEM)
---------------------------------
  C      7.304885   27.849027    2.863778
  C      6.843165   26.385171    3.069191
  C      7.235481   25.223179    2.101389
  C      6.807824   23.706617    2.199545
  C      7.199014   22.526259    1.242625
  C      6.757671   21.041644    1.449003
  C      7.058892   19.954300    0.372924
  C      6.721582   18.496553    0.819239
  F      6.862776   28.332370    1.690861
  F      8.645485   27.936757    2.880416
  F      6.844648   28.690188    3.832734
  F      7.294075   26.040419    4.321128
  F      5.469421   26.445085    3.094727
  F      6.790678   25.641585    0.853343
  F      8.622833   25.212355    2.107688
  F      7.246987   23.304239    3.458012
  F      5.419940   23.736150    2.191837
  F      6.740973   22.891288   -0.007484
  F      8.578499   22.509183    1.216264
  F      7.329470   20.617931    2.619709
  F      5.397323   21.042226    1.626218
  F      6.354767   20.285885   -0.755423
  F      8.389224   20.056190    0.041627
  O      7.641473   17.876323    1.396655
  O      5.556245   18.111340    0.580268
  O      3.385533   19.007258   -0.838276
  H      2.744307   18.363348   -0.510235
  H      4.219608   18.778120   -0.363187
  H      9.157837   18.486555    2.039862
  O     10.022814   18.755602    2.434280
  H     10.060783   19.707693    2.275498

----------------------------
CARTESIAN COORDINATES (A.U.)
----------------------------
  NO LB      ZA    FRAG     MASS         X           Y           Z
   0 C     6.0000    0    12.011   13.804232   52.627034    5.411756
   1 C     6.0000    0    12.011   12.931708   49.860747    5.799930
   2 C     6.0000    0    12.011   13.673078   47.664901    3.971050
   3 C     6.0000    0    12.011   12.864923   44.799014    4.156538
   4 C     6.0000    0    12.011   13.604165   42.568460    2.348221
   5 C     6.0000    0    12.011   12.770147   39.762945    2.738219
   6 C     6.0000    0    12.011   13.339373   37.708162    0.704724
   7 C     6.0000    0    12.011   12.701949   34.953420    1.548137
   8 F     9.0000    0    18.998   12.968767   53.540420    3.195264
   9 F     9.0000    0    18.998   16.337599   52.792820    5.443197
  10 F     9.0000    0    18.998   12.934510   54.216598    7.242818
  11 F     9.0000    0    18.998   13.783804   49.209260    8.165749
  12 F     9.0000    0    18.998   10.335708   49.973968    5.848186
  13 F     9.0000    0    18.998   12.832522   48.455573    1.612585
  14 F     9.0000    0    18.998   16.294793   47.644446    3.982953
  15 F     9.0000    0    18.998   13.694821   44.038629    6.534696
  16 F     9.0000    0    18.998   10.242202   44.854823    4.141972
  17 F     9.0000    0    18.998   12.738593   43.258265   -0.014143
  18 F     9.0000    0    18.998   16.211014   42.536191    2.298406
  19 F     9.0000    0    18.998   13.850691   38.962243    4.950533
  20 F     9.0000    0    18.998   10.199462   39.764044    3.073107
  21 F     9.0000    0    18.998   12.008769   38.334767   -1.427543
  22 F     9.0000    0    18.998   15.853336   37.900706    0.078664
  23 O     8.0000    0    15.999   14.440291   33.781355    2.639295
  24 O     8.0000    0    15.999   10.499781   34.225473    1.096548
  25 O     8.0000    0    15.999    6.397730   35.918512   -1.584112
  26 H     1.0000    0     1.008    5.185989   34.701699   -0.964204
  27 H     1.0000    0     1.008    7.973904   35.485504   -0.686324
  28 H     1.0000    0     1.008   17.305804   34.934526    3.854781
  29 O     8.0000    0    15.999   18.940374   35.442951    4.600123
  30 H     1.0000    0     1.008   19.012125   37.242143    4.300068

--------------------------------
INTERNAL COORDINATES (ANGSTROEM)
--------------------------------
 C      0   0   0     0.000000000000     0.00000000     0.00000000
 C      1   0   0     1.548629796854     0.00000000     0.00000000
 C      2   1   0     1.562298935263   123.09429643     0.00000000
 C      3   2   1     1.578760719624   127.44008458   180.97984562
 C      4   3   2     1.569066764247   128.11040478   180.40275389
 C      5   4   3     1.562516310557   124.31834633   178.05116452
 C      6   5   4     1.559165507385   121.12408479   173.35421032
 C      7   6   5     1.561410077889   114.33530559   172.23459458
 F      1   2   3     1.343434074460   110.96367056    60.43841100
 F      1   2   3     1.343570517667   110.95088111   299.86213053
 F      1   2   3     1.363174843527   112.85111318   180.14299016
 F      2   1   3     1.374598130936   105.07463104   122.72234150
 F      2   1   3     1.375287007220   105.01641962   237.37863481
 F      3   2   1     1.389435895521   104.60008499   303.37428557
 F      3   2   1     1.387408522491   104.71993307    58.04022185
 F      4   3   2     1.392304343720   104.38108395   302.81118929
 F      4   3   2     1.388219582346   104.47957658    57.28929684
 F      5   4   3     1.380514483953   105.70152412   300.76421530
 F      5   4   3     1.379842511782   105.67675460    55.70206179
 F      6   5   4     1.370050853511   106.78772792   296.05111340
 F      6   5   4     1.371842620731   107.26244368    51.25412120
 F      7   6   5     1.370732497703   107.46847002   295.27421290
 F      7   6   5     1.374744523369   107.55289834    49.37101467
 O      8   7   6     1.250717370886   115.85228579   270.72577210
 O      8   7   6     1.250402542295   115.74216461    89.14280741
 O     25   8   7     2.743524508657   137.35792626     9.82767446
 H     26  25   8     0.966127201179    97.58098126   189.67585036
 H     26  25   8     0.986861128320     6.55834719     0.21675123
 H     24   8   7     1.756547215184   129.17544916    12.30158231
 O     29  24   8     0.987996486564   175.24659463   172.21750934
 H     30  29  24     0.965986874013   103.72080711   187.71738175

---------------------------
INTERNAL COORDINATES (A.U.)
---------------------------
 C      0   0   0     0.000000000000     0.00000000     0.00000000
 C      1   0   0     2.926486198885     0.00000000     0.00000000
 C      2   1   0     2.952317126964   123.09429643     0.00000000
 C      3   2   1     2.983425391083   127.44008458   180.97984562
 C      4   3   2     2.965106470264   128.11040478   180.40275389
 C      5   4   3     2.952727906739   124.31834633   178.05116452
 C      6   5   4     2.946395806413   121.12408479   173.35421032
 C      7   6   5     2.950637429955   114.33530559   172.23459458
 F      1   2   3     2.538722479707   110.96367056    60.43841100
 F      1   2   3     2.538980320001   110.95088111   299.86213053
 F      1   2   3     2.576027126918   112.85111318   180.14299016
 F      2   1   3     2.597614011669   105.07463104   122.72234150
 F      2   1   3     2.598915799186   105.01641962   237.37863481
 F      3   2   1     2.625653323173   104.60008499   303.37428557
 F      3   2   1     2.621822143377   104.71993307    58.04022185
 F      4   3   2     2.631073904700   104.38108395   302.81118929
 F      4   3   2     2.623354824381   104.47957658    57.28929684
 F      5   4   3     2.608794298582   105.70152412   300.76421530
 F      5   4   3     2.607524455211   105.67675460    55.70206179
 F      6   5   4     2.589020902681   106.78772792   296.05111340
 F      6   5   4     2.592406852022   107.26244368    51.25412120
 F      7   6   5     2.590309023524   107.46847002   295.27421290
 F      7   6   5     2.597890653275   107.55289834    49.37101467
 O      8   7   6     2.363513301913   115.85228579   270.72577210
 O      8   7   6     2.362918362097   115.74216461    89.14280741
 O     25   8   7     5.184509963063   137.35792626     9.82767446
 H     26  25   8     1.825715820759    97.58098126   189.67585036
 H     26  25   8     1.864897264738     6.55834719     0.21675123
 H     24   8   7     3.319393177999   129.17544916    12.30158231
 O     29  24   8     1.867042780882   175.24659463   172.21750934
 H     30  29  24     1.825450640848   103.72080711   187.71738175

---------------------
BASIS SET INFORMATION
---------------------
There are 4 groups of distinct atoms

 Group   1 Type C   : 11s6p2d1f contracted to 5s3p2d1f pattern {62111/411/11/1}
 Group   2 Type F   : 11s6p2d1f contracted to 5s3p2d1f pattern {62111/411/11/1}
 Group   3 Type O   : 11s6p2d1f contracted to 5s3p2d1f pattern {62111/411/11/1}
 Group   4 Type H   : 5s1p contracted to 3s1p pattern {311/1}

Atom   0C    basis set group =>   1
Atom   1C    basis set group =>   1
Atom   2C    basis set group =>   1
Atom   3C    basis set group =>   1
Atom   4C    basis set group =>   1
Atom   5C    basis set group =>   1
Atom   6C    basis set group =>   1
Atom   7C    basis set group =>   1
Atom   8F    basis set group =>   2
Atom   9F    basis set group =>   2
Atom  10F    basis set group =>   2
Atom  11F    basis set group =>   2
Atom  12F    basis set group =>   2
Atom  13F    basis set group =>   2
Atom  14F    basis set group =>   2
Atom  15F    basis set group =>   2
Atom  16F    basis set group =>   2
Atom  17F    basis set group =>   2
Atom  18F    basis set group =>   2
Atom  19F    basis set group =>   2
Atom  20F    basis set group =>   2
Atom  21F    basis set group =>   2
Atom  22F    basis set group =>   2
Atom  23O    basis set group =>   3
Atom  24O    basis set group =>   3
Atom  25O    basis set group =>   3
Atom  26H    basis set group =>   4
Atom  27H    basis set group =>   4
Atom  28H    basis set group =>   4
Atom  29O    basis set group =>   3
Atom  30H    basis set group =>   4
---------------------------------
AUXILIARY/J BASIS SET INFORMATION
---------------------------------
There are 4 groups of distinct atoms

 Group   1 Type C   : 12s5p4d2f1g contracted to 6s4p3d1f1g pattern {711111/2111/211/2/1}
 Group   2 Type F   : 12s5p4d2f1g contracted to 6s4p3d1f1g pattern {711111/2111/211/2/1}
 Group   3 Type O   : 12s5p4d2f1g contracted to 6s4p3d1f1g pattern {711111/2111/211/2/1}
 Group   4 Type H   : 5s2p1d contracted to 3s1p1d pattern {311/2/1}

Atom   0C    basis set group =>   1
Atom   1C    basis set group =>   1
Atom   2C    basis set group =>   1
Atom   3C    basis set group =>   1
Atom   4C    basis set group =>   1
Atom   5C    basis set group =>   1
Atom   6C    basis set group =>   1
Atom   7C    basis set group =>   1
Atom   8F    basis set group =>   2
Atom   9F    basis set group =>   2
Atom  10F    basis set group =>   2
Atom  11F    basis set group =>   2
Atom  12F    basis set group =>   2
Atom  13F    basis set group =>   2
Atom  14F    basis set group =>   2
Atom  15F    basis set group =>   2
Atom  16F    basis set group =>   2
Atom  17F    basis set group =>   2
Atom  18F    basis set group =>   2
Atom  19F    basis set group =>   2
Atom  20F    basis set group =>   2
Atom  21F    basis set group =>   2
Atom  22F    basis set group =>   2
Atom  23O    basis set group =>   3
Atom  24O    basis set group =>   3
Atom  25O    basis set group =>   3
Atom  26H    basis set group =>   4
Atom  27H    basis set group =>   4
Atom  28H    basis set group =>   4
Atom  29O    basis set group =>   3
Atom  30H    basis set group =>   4


           ************************************************************
           *        Program running with 20 parallel MPI-processes    *
           *              working on a common directory               *
           ************************************************************
------------------------------------------------------------------------------
                             ORCA STARTUP CALCULATIONS
                           -- RI-GTO INTEGRALS CHOSEN --
------------------------------------------------------------------------------
------------------------------------------------------------------------------
                   ___                                                        
                  /   \      - P O W E R E D   B Y -                         
                 /     \                                                     
                 |  |  |   _    _      __       _____    __    __             
                 |  |  |  | |  | |    /  \     |  _  \  |  |  /  |          
                  \  \/   | |  | |   /    \    | | | |  |  | /  /          
                 / \  \   | |__| |  /  /\  \   | |_| |  |  |/  /          
                |  |  |   |  __  | /  /__\  \  |    /   |      \           
                |  |  |   | |  | | |   __   |  |    \   |  |\   \          
                \     /   | |  | | |  |  |  |  | |\  \  |  | \   \       
                 \___/    |_|  |_| |__|  |__|  |_| \__\ |__|  \__/        
                                                                              
                      - O R C A' S   B I G   F R I E N D -                    
                                      &                                       
                       - I N T E G R A L  F E E D E R -                       
                                                                              
 v1 FN, 2020, v2 2021, v3 2022-2024                                           
------------------------------------------------------------------------------


----------------------
SHARK INTEGRAL PACKAGE
----------------------

Number of atoms                             ...     31
Number of basis functions                   ...    861
Number of shells                            ...    313
Maximum angular momentum                    ...      3
Integral batch strategy                     ... SHARK/LIBINT Hybrid
RI-J (if used) integral strategy            ... SPLIT-RIJ (Revised 2003 algorithm where possible)
Printlevel                                  ...      1
Contraction scheme used                     ... SEGMENTED contraction
Prescreening option                         ... SCHWARTZ
   Thresh                                   ... 2.500e-11
   Tcut                                     ... 2.500e-12
   Tpresel                                  ... 2.500e-12 
Coulomb Range Separation                    ... NOT USED
Exchange Range Separation                   ... NOT USED
Multipole approximations                    ... NOT USED
Finite Nucleus Model                        ... NOT USED
CABS basis                                  ... NOT available
Auxiliary Coulomb fitting basis             ... AVAILABLE
   # of basis functions in Aux-J            ...   1367
   # of shells in Aux-J                     ...    425
   Maximum angular momentum in Aux-J        ...      4
Auxiliary J/K fitting basis                 ... NOT available
Auxiliary Correlation fitting basis         ... NOT available
Auxiliary 'external' fitting basis          ... NOT available

Checking pre-screening integrals            ... done (  0.0 sec) Dimension = 313
Check shell pair data                       ... done (  0.0 sec)
Shell pair information
Shell pair cut-off parameter TPreSel        ...   2.5e-12
Total number of shell pairs                 ...     49141
Shell pairs after pre-screening             ...     27468
Total number of primitive shell pairs       ...    159936
Primitive shell pairs kept                  ...     56902
          la=0 lb=0:   5547 shell pairs
          la=1 lb=0:   7699 shell pairs
          la=1 lb=1:   2572 shell pairs
          la=2 lb=0:   4007 shell pairs
          la=2 lb=1:   2822 shell pairs
          la=2 lb=2:    758 shell pairs
          la=3 lb=0:   1820 shell pairs
          la=3 lb=1:   1364 shell pairs
          la=3 lb=2:    713 shell pairs
          la=3 lb=3:    166 shell pairs

Calculating one electron integrals          ... done (  0.0 sec)
Calculating RI/J V-Matrix + Cholesky decomp.... done (  0.1 sec)
Calculating Nuclear repulsion               ... done (  0.0 sec) ENN=   3207.553877999856 Eh

Diagonalization of the overlap matrix:
Smallest eigenvalue                        ... 9.792e-05
Time for diagonalization                   ...    0.148 sec
Threshold for overlap eigenvalues          ... 1.000e-07
Number of eigenvalues below threshold      ... 0
Time for construction of square roots      ...    0.060 sec
Total time needed                          ...    0.216 sec

-------------------
DFT GRID GENERATION
-------------------

General Integration Accuracy     IntAcc      ... 4.388
Radial Grid Type                 RadialGrid  ... OptM3 with GC (2021)
Angular Grid (max. ang.)         AngularGrid ... 4 (Lebedev-302)
Angular grid pruning method      GridPruning ... 4 (adaptive)
Weight generation scheme         WeightScheme... mBecke (2022)
Basis function cutoff            BFCut       ... 1.0000e-11
Integration weight cutoff        WCut        ... 1.0000e-14
Partially contracted basis set               ... off
Rotationally invariant grid construction     ... off
Angular grids for H and He will be reduced by one unit

Total number of grid points                  ...   176640
Total number of batches                      ...     2777
Average number of points per batch           ...       63
Average number of grid points per atom       ...     5698

--------------------
COSX GRID GENERATION
--------------------

GRIDX 1
-------
General Integration Accuracy     IntAcc      ... 3.816
Radial Grid Type                 RadialGrid  ... OptM3 with GC (2021)
Angular Grid (max. ang.)         AngularGrid ... 1 (Lebedev-50)
Angular grid pruning method      GridPruning ... 4 (adaptive)
Weight generation scheme         WeightScheme... mBecke (2022)
Basis function cutoff            BFCut       ... 1.0000e-11
Integration weight cutoff        WCut        ... 1.0000e-14
Partially contracted basis set               ... on
Rotationally invariant grid construction     ... off
Angular grids for H and He will be reduced by one unit

Total number of grid points                  ...    22234
Total number of batches                      ...      187
Average number of points per batch           ...      118
Average number of grid points per atom       ...      717
UseSFitting                                  ... on

GRIDX 2
-------
General Integration Accuracy     IntAcc      ... 4.020
Radial Grid Type                 RadialGrid  ... OptM3 with GC (2021)
Angular Grid (max. ang.)         AngularGrid ... 2 (Lebedev-110)
Angular grid pruning method      GridPruning ... 4 (adaptive)
Weight generation scheme         WeightScheme... mBecke (2022)
Basis function cutoff            BFCut       ... 1.0000e-11
Integration weight cutoff        WCut        ... 1.0000e-14
Partially contracted basis set               ... on
Rotationally invariant grid construction     ... off
Angular grids for H and He will be reduced by one unit

Total number of grid points                  ...    51608
Total number of batches                      ...      415
Average number of points per batch           ...      124
Average number of grid points per atom       ...     1665
UseSFitting                                  ... on

GRIDX 3
-------
General Integration Accuracy     IntAcc      ... 4.338
Radial Grid Type                 RadialGrid  ... OptM3 with GC (2021)
Angular Grid (max. ang.)         AngularGrid ... 3 (Lebedev-194)
Angular grid pruning method      GridPruning ... 4 (adaptive)
Weight generation scheme         WeightScheme... mBecke (2022)
Basis function cutoff            BFCut       ... 1.0000e-11
Integration weight cutoff        WCut        ... 1.0000e-14
Partially contracted basis set               ... on
Rotationally invariant grid construction     ... off
Angular grids for H and He will be reduced by one unit

Total number of grid points                  ...   114144
Total number of batches                      ...      903
Average number of points per batch           ...      126
Average number of grid points per atom       ...     3682
UseSFitting                                  ... on
Initializing property integral containers    ... done (  0.0 sec)

SHARK setup successfully completed in   3.5 seconds

Maximum memory used throughout the entire STARTUP-calculation: 68.2 MB


           ************************************************************
           *        Program running with 20 parallel MPI-processes    *
           *              working on a common directory               *
           ************************************************************
-------------------------------------------------------------------------------
                                 ORCA GUESS
                   Start orbitals & Density for SCF / CASSCF
-------------------------------------------------------------------------------

------------
SCF SETTINGS
------------
Hamiltonian:
 Density Functional     Method          .... DFT(GTOs)
 Exchange Functional    Exchange        .... TPSS
 Correlation Functional Correlation     .... TPSS
 LDA part of GGA corr.  LDAOpt          .... PW91-LDA
 Gradients option       PostSCFGGA      .... off
 Hybrid DFT is turned on
   Fraction HF Exchange ScalHFX         ....  0.100000
   Scaling of DF-GGA-X  ScalDFX         ....  0.900000
   Scaling of DF-GGA-C  ScalDFC         ....  1.000000
   Scaling of DF-LDA-C  ScalLDAC        ....  1.000000
   Perturbative correction              ....  0.000000
   NL short-range parameter             ....  5.200000
 RI-approximation to the Coulomb term is turned on
   Number of AuxJ basis functions       .... 1367
   RIJ-COSX (HFX calculated with COS-X)).... on


General Settings:
 Integral files         IntName         .... rf_mecn_2H2O_freq_TP_sw_04
 Hartree-Fock type      HFTyp           .... UHF
 Total Charge           Charge          ....   -2
 Multiplicity           Mult            ....    2
 Number of Electrons    NEL             ....  221
 Basis Dimension        Dim             ....  861
 Nuclear Repulsion      ENuc            ....   3207.5538779999 Eh

Convergence Acceleration:
 AO-DIIS                CNVDIIS         .... on
   Start iteration      DIISMaxIt       ....     0
   Startup error        DIISStart       ....  0.200000
   # of expansion vecs  DIISMaxEq       ....     5
   Bias factor          DIISBfac        ....   1.050
   Max. coefficient     DIISMaxC        ....  10.000
 MO-DIIS                CNVKDIIS        .... off
 Trust-Rad. Augm. Hess. CNVTRAH         .... auto
   Auto Start mean grad. ratio tolernc. ....  1.125000
   Auto Start start iteration           ....    50
   Auto Start num. interpolation iter.  ....    10
   Max. Number of Micro iterations      ....    24
   Max. Number of Macro iterations      .... Maxiter - #DIIS iter
   Number of Davidson start vectors     ....     2
   Converg. threshold    (grad. norm)   ....   1.000e-05
   Grad. Scal. Fac. for Micro threshold ....   0.100
   Minimum threshold for Micro iter.    ....   1.000e-02
   NR start threshold (gradient norm)   ....   1.000e-04
   Initial trust radius                 ....   0.400
   Minimum AH scaling param. (alpha)    ....   1.000
   Maximum AH scaling param. (alpha)    .... 1000.000
   Quad. conv. algorithm                .... NR
   White noise on init. David. guess    .... on
   Maximum white noise                  ....   0.010
   Pseudo random numbers                .... off
   Inactive MOs                         .... canonical
   Orbital update algorithm             .... Taylor
   Preconditioner                       .... Diag
   Full preconditioner red. dimension   ....   250
 SOSCF                  CNVSOSCF        .... on
   Start iteration      SOSCFMaxIt      ....   150
   Startup grad/error   SOSCFStart      ....  0.001000
   Hessian update       SOSCFHessUp     .... L-BFGS
 Level Shifting         CNVShift        .... on
   Level shift para.    LevelShift      ....    0.2500
   Turn off err/grad.   ShiftErr        ....    0.0000
 Zerner damping         CNVZerner       .... off
 Static damping         CNVDamp         .... on
   Fraction old density DampFac         ....    0.8500
   Max. Damping (<1)    DampMax         ....    0.9800
   Min. Damping (>=0)   DampMin         ....    0.0000
   Turn off err/grad.   DampErr         ....    0.0300

SCF Procedure:
 Maximum # iterations   MaxIter         ....  1500
 SCF integral mode      SCFMode         .... Direct
   Integral package                     .... SHARK and LIBINT hybrid scheme
 Reset frequency        DirectResetFreq ....    20
 Integral Threshold     Thresh          ....  2.500e-11 Eh
 Primitive CutOff       TCut            ....  2.500e-12 Eh

Convergence Tolerance:
 Convergence Check Mode ConvCheckMode   .... Total+1el-Energy
 Convergence forced     ConvForced      .... 0
 Energy Change          TolE            ....  1.000e-08 Eh
 1-El. energy change                    ....  1.000e-05 Eh
 Orbital Gradient       TolG            ....  1.000e-05
 Orbital Rotation angle TolX            ....  1.000e-05
 DIIS Error             TolErr          ....  5.000e-07

------------------------------
INITIAL GUESS: MODEL POTENTIAL
------------------------------
Loading Hartree-Fock densities                     ... done
Calculating cut-offs                               ... done
Initializing the effective Hamiltonian             ... done
Setting up the integral package (SHARK)            ... done
Starting the Coulomb interaction                   ... done (   0.3 sec)
Making the grid                                    ... done (   0.4 sec)
Mapping shells                                     ... done
Starting the XC term evaluation                    ... done (   0.1 sec)
  promolecular density results
     # of electrons  =    218.996395321
     EX              =   -224.568703684
     EC              =     -7.626339987
     EX+EC           =   -232.195043672
Transforming the Hamiltonian                       ... done (   0.1 sec)
Diagonalizing the Hamiltonian                      ... done (   0.2 sec)
Back transforming the eigenvectors                 ... done (   0.0 sec)
Now organizing SCF variables                       ... done
                      ------------------
                      INITIAL GUESS DONE (   1.3 sec)
                      ------------------
             **** ENERGY FILE WAS UPDATED (rf_mecn_2H2O_freq_TP_sw_04.en.tmp) ****
Finished Guess after   2.0 sec
Maximum memory used throughout the entire GUESS-calculation: 57.1 MB


           ************************************************************
           *        Program running with 20 parallel MPI-processes    *
           *              working on a common directory               *
           ************************************************************

-------------------------------------------------------------------------------------------
                                      ORCA LEAN-SCF
                              memory conserving SCF solver
-------------------------------------------------------------------------------------------

--------------------
CPCM SOLVATION MODEL
--------------------
CPCM parameters:
  Epsilon                                         ...      35.6880
  Refrac                                          ...       1.3442
  Rsolv                                           ...       1.3000
  Surface type                                    ... GAUSSIAN VDW
  Discretization scheme                           ... Constant charge density
    Threshold for H atoms                         ...       5.0000 (charges/Ang^2)
    Threshold for non-H atoms                     ...       5.0000 (charges/Ang^2)
  Epsilon function type                           ...         CPCM
Solvent:                                          ... ACETONITRILE
SMD-CDS solvent descriptors:
  Soln                                            ...       1.3442
  Soln25                                          ...       1.3416
  Sola                                            ...       0.0700
  Solb                                            ...       0.3200
  Solg                                            ...      41.2500
  Solc                                            ...       0.0000
  Solh                                            ...       0.0000
Radii:
  Scheme                                          ... Element-dependent radii
  Radius for C  used is    3.4960 Bohr (=   1.8500 Ang.)
  Radius for F  used is    3.2692 Bohr (=   1.7300 Ang.)
  Radius for O  used is    4.0969 Bohr (=   2.1680 Ang.)
  Radius for H  used is    2.2677 Bohr (=   1.2000 Ang.)
Calculating surface                               ...        done! (  0.0s)
Cavity surface points                             ...         2705
Cavity Volume                                     ...    2663.3193
Cavity Surface-area                               ...    1374.7114
Calculating surface distance matrix               ...        done! (  0.0s)
Performing Cholesky decomposition & store         ...        done! (  0.1s)
Overall time for CPCM initialization              ...                 0.2s

----------------------------------------D-I-I-S--------------------------------------------
Iteration    Energy (Eh)           Delta-E    RMSDP     MaxDP     DIISErr   Damp  Time(sec)
-------------------------------------------------------------------------------------------
               ***  Starting incremental Fock matrix formation  ***
    1    -2106.0620858765482808     0.00e+00  5.00e-04  9.41e-02  1.76e-01  0.850   8.1
Warning: op=0 Small HOMO/LUMO gap (  -0.012) - skipping pre-diagonalization
         Will do a full diagonalization
    2    -2106.3135882056271839    -2.52e-01  6.84e-04  1.58e-01  1.18e-01  0.850   5.7
                               ***Turning on AO-DIIS***
    3    -2106.4497953810391664    -1.36e-01  4.61e-04  1.10e-01  7.19e-02  0.850   5.1
    4    -2106.5295744792142614    -7.98e-02  3.40e-04  8.49e-02  5.22e-02  0.850   4.8
    5    -2106.5858367639934841    -5.63e-02  2.56e-04  5.82e-02  4.09e-02  0.850   4.7
    6    -2106.6298658093351150    -4.40e-02  1.97e-04  3.90e-02  3.34e-02  0.850   4.9
    7    -2106.6659180821711743    -3.61e-02  1.57e-04  2.67e-02  2.81e-02  0.850   4.6
    8    -2106.6959931823898842    -3.01e-02  8.54e-04  1.31e-01  2.39e-02  0.000   4.5
    9    -2106.8582684095631521    -1.62e-01  4.10e-05  8.93e-03  3.01e-03  0.000   4.8
   10    -2106.8585584270972504    -2.90e-04  3.95e-05  8.25e-03  1.94e-03  0.000   4.3
                              *** Initializing SOSCF ***
---------------------------------------S-O-S-C-F--------------------------------------
Iteration    Energy (Eh)           Delta-E    RMSDP     MaxDP     MaxGrad    Time(sec)
--------------------------------------------------------------------------------------
   11    -2106.8586612762269397    -1.03e-04  2.50e-05  4.73e-03  9.26e-04     4.7
               *** Restarting incremental Fock matrix formation ***
   12    -2106.8586798676983562    -1.86e-05  3.25e-05  6.71e-03  8.20e-04     7.6
   13    -2106.8586991884271811    -1.93e-05  2.24e-05  4.96e-03  2.58e-04     5.7
   14    -2106.8587047792202611    -5.59e-06  6.84e-06  1.21e-03  2.33e-04     5.5
   15    -2106.8587064505322815    -1.67e-06  4.32e-06  7.25e-04  1.59e-04     5.1
   16    -2106.8587065021415583    -5.16e-08  2.19e-06  3.14e-04  1.55e-04     5.0
   17    -2106.8587069395048275    -4.37e-07  1.34e-06  2.73e-04  3.74e-05     4.7
   18    -2106.8587069725531364    -3.30e-08  8.38e-07  1.33e-04  2.96e-05     4.4
   19    -2106.8587070129665335    -4.04e-08  2.89e-07  5.29e-05  4.55e-06     4.3
   20    -2106.8587070015942118     1.14e-08  1.52e-07  2.69e-05  6.59e-06     3.6
   21    -2106.8587070175876761    -1.60e-08  2.72e-07  8.21e-05  1.02e-06     3.6
                  *** Gradient check signals convergence ***

               *****************************************************
               *                     SUCCESS                       *
               *           SCF CONVERGED AFTER  21 CYCLES          *
               *****************************************************

Recomputing exchange energy using gridx3       ... done (    8.966 sec)
Old exchange energy                            :    -22.711271903 Eh
New exchange energy                            :    -22.711321107 Eh
Exchange energy change after final integration :     -0.000049204 Eh
Total energy after final integration           :  -2106.858756221 Eh

SMD CDS free energy correction energy :                 2.90649     Kcal/mol
Total Energy after SMD CDS correction =             -2106.854124433 Eh
             **** ENERGY FILE WAS UPDATED (rf_mecn_2H2O_freq_TP_sw_04.en.tmp) ****

----------------
TOTAL SCF ENERGY
----------------

Total Energy       :      -2106.85412443342875 Eh          -57330.41535 eV

Components:
Nuclear Repulsion  :       3207.55387799985556 Eh           87281.97835 eV
Electronic Energy  :      -5314.18869041367543 Eh         -144606.42591 eV
One Electron Energy:      -9372.23734271364083 Eh         -255031.54365 eV
Two Electron Energy:       4058.04865229996585 Eh          110425.11773 eV
CPCM Dielectric    :         -0.22389460376748 Eh              -6.09248 eV
SMD CDS (Gcds)     :          0.00463178799635 Eh               0.12604 eV

Virial components:
Potential Energy   :      -4206.52092404268387 Eh         -114465.25364 eV
Kinetic Energy     :       2099.66679960925512 Eh           57134.83830 eV
Virial Ratio       :          2.00342307875969

DFT components:
N(Alpha)           :      111.000011401899 electrons
N(Beta)            :      110.000017251390 electrons
N(Total)           :      221.000028653290 electrons
E(X)               :     -206.438691407664 Eh       
E(C)               :       -7.737922362575 Eh       
E(XC)              :     -214.176613770238 Eh       

CPCM Solvation Model Properties:
Surface-charge          :          1.98935830658340
Corrected charge        :          2.00000000000000
Outlying charge corr.   :          0.00000561361423 Eh               0.00015 eV
Free-energy (cav+disp)  :          0.00463178799635 Eh               0.12604 eV

---------------
SCF CONVERGENCE
---------------

  Last Energy change         ...    1.5993e-08  Tolerance :   1.0000e-08
  Last MAX-Density change    ...    8.2070e-05  Tolerance :   1.0000e-07
  Last RMS-Density change    ...    2.7209e-07  Tolerance :   5.0000e-09
  Last DIIS Error            ...    9.2644e-04  Tolerance :   5.0000e-07
  Last Orbital Gradient      ...    1.0247e-06  Tolerance :   1.0000e-05
  Last Orbital Rotation      ...    5.1274e-06  Tolerance :   1.0000e-05


----------------------
UHF SPIN CONTAMINATION
----------------------

Warning: in a DFT calculation there is little theoretical justification to 
         calculate <S**2> as in Hartree-Fock theory. We will do it anyways
         but you should keep in mind that the values have only limited relevance

Expectation value of <S**2>     :     0.754377
Ideal value S*(S+1) for S=0.5   :     0.750000
Deviation                       :     0.004377

----------------
ORBITAL ENERGIES
----------------
                 SPIN UP ORBITALS
  NO   OCC          E(Eh)            E(eV) 
   0   1.0000     -24.637953      -670.4328 
   1   1.0000     -24.637928      -670.4321 
   2   1.0000     -24.630815      -670.2386 
   3   1.0000     -24.620690      -669.9630 
   4   1.0000     -24.620424      -669.9558 
   5   1.0000     -24.614328      -669.7899 
   6   1.0000     -24.613135      -669.7574 
   7   1.0000     -24.608243      -669.6243 
   8   1.0000     -24.607893      -669.6148 
   9   1.0000     -24.606383      -669.5737 
  10   1.0000     -24.605863      -669.5596 
  11   1.0000     -24.604131      -669.5124 
  12   1.0000     -24.603839      -669.5045 
  13   1.0000     -24.601577      -669.4429 
  14   1.0000     -24.600898      -669.4245 
  15   1.0000     -19.008818      -517.2562 
  16   1.0000     -19.007479      -517.2198 
  17   1.0000     -18.997678      -516.9531 
  18   1.0000     -18.997654      -516.9524 
  19   1.0000     -10.364154      -282.0230 
  20   1.0000     -10.296300      -280.1766 
  21   1.0000     -10.286852      -279.9195 
  22   1.0000     -10.281667      -279.7784 
  23   1.0000     -10.279989      -279.7327 
  24   1.0000     -10.274481      -279.5829 
  25   1.0000     -10.270843      -279.4839 
  26   1.0000     -10.196125      -277.4507 
  27   1.0000      -1.291267       -35.1372 
  28   1.0000      -1.243015       -33.8242 
  29   1.0000      -1.239096       -33.7175 
  30   1.0000      -1.225146       -33.3379 
  31   1.0000      -1.218509       -33.1573 
  32   1.0000      -1.215863       -33.0853 
  33   1.0000      -1.209402       -32.9095 
  34   1.0000      -1.205823       -32.8121 
  35   1.0000      -1.198825       -32.6217 
  36   1.0000      -1.185442       -32.2575 
  37   1.0000      -1.182615       -32.1806 
  38   1.0000      -1.172489       -31.9050 
  39   1.0000      -1.167300       -31.7638 
  40   1.0000      -1.164875       -31.6979 
  41   1.0000      -1.159882       -31.5620 
  42   1.0000      -1.005507       -27.3612 
  43   1.0000      -0.944180       -25.6925 
  44   1.0000      -0.941583       -25.6218 
  45   1.0000      -0.919694       -25.0262 
  46   1.0000      -0.770304       -20.9610 
  47   1.0000      -0.761257       -20.7149 
  48   1.0000      -0.733836       -19.9687 
  49   1.0000      -0.703363       -19.1395 
  50   1.0000      -0.665158       -18.0999 
  51   1.0000      -0.633349       -17.2343 
  52   1.0000      -0.607367       -16.5273 
  53   1.0000      -0.580117       -15.7858 
  54   1.0000      -0.578791       -15.7497 
  55   1.0000      -0.577466       -15.7137 
  56   1.0000      -0.564977       -15.3738 
  57   1.0000      -0.556623       -15.1465 
  58   1.0000      -0.552741       -15.0408 
  59   1.0000      -0.544522       -14.8172 
  60   1.0000      -0.541872       -14.7451 
  61   1.0000      -0.531128       -14.4527 
  62   1.0000      -0.530516       -14.4361 
  63   1.0000      -0.526516       -14.3272 
  64   1.0000      -0.516762       -14.0618 
  65   1.0000      -0.510481       -13.8909 
  66   1.0000      -0.506367       -13.7789 
  67   1.0000      -0.496733       -13.5168 
  68   1.0000      -0.482846       -13.1389 
  69   1.0000      -0.467567       -12.7231 
  70   1.0000      -0.450708       -12.2644 
  71   1.0000      -0.450256       -12.2521 
  72   1.0000      -0.445295       -12.1171 
  73   1.0000      -0.433704       -11.8017 
  74   1.0000      -0.428953       -11.6724 
  75   1.0000      -0.427496       -11.6328 
  76   1.0000      -0.426168       -11.5966 
  77   1.0000      -0.422280       -11.4908 
  78   1.0000      -0.419505       -11.4153 
  79   1.0000      -0.417557       -11.3623 
  80   1.0000      -0.415444       -11.3048 
  81   1.0000      -0.413976       -11.2649 
  82   1.0000      -0.410570       -11.1722 
  83   1.0000      -0.405098       -11.0233 
  84   1.0000      -0.402867       -10.9626 
  85   1.0000      -0.396116       -10.7789 
  86   1.0000      -0.392843       -10.6898 
  87   1.0000      -0.392752       -10.6873 
  88   1.0000      -0.391263       -10.6468 
  89   1.0000      -0.389989       -10.6122 
  90   1.0000      -0.383852       -10.4451 
  91   1.0000      -0.380851       -10.3635 
  92   1.0000      -0.377428       -10.2703 
  93   1.0000      -0.376242       -10.2381 
  94   1.0000      -0.374965       -10.2033 
  95   1.0000      -0.370762       -10.0889 
  96   1.0000      -0.368886       -10.0379 
  97   1.0000      -0.367868       -10.0102 
  98   1.0000      -0.364490        -9.9183 
  99   1.0000      -0.355743        -9.6803 
 100   1.0000      -0.346433        -9.4269 
 101   1.0000      -0.330929        -9.0050 
 102   1.0000      -0.328393        -8.9360 
 103   1.0000      -0.322042        -8.7632 
 104   1.0000      -0.292576        -7.9614 
 105   1.0000      -0.257092        -6.9958 
 106   1.0000      -0.254387        -6.9222 
 107   1.0000      -0.239684        -6.5221 
 108   1.0000      -0.229186        -6.2365 
 109   1.0000      -0.224794        -6.1170 
 110   1.0000      -0.070491        -1.9182 
 111   0.0000       0.004458         0.1213 
 112   0.0000       0.029878         0.8130 
 113   0.0000       0.046403         1.2627 
 114   0.0000       0.055546         1.5115 
 115   0.0000       0.065150         1.7728 
 116   0.0000       0.075798         2.0626 
 117   0.0000       0.086310         2.3486 
 118   0.0000       0.109248         2.9728 
 119   0.0000       0.116968         3.1829 
 120   0.0000       0.125380         3.4118 
 121   0.0000       0.126183         3.4336 

                 SPIN DOWN ORBITALS
  NO   OCC          E(Eh)            E(eV) 
   0   1.0000     -24.637940      -670.4324 
   1   1.0000     -24.637915      -670.4317 
   2   1.0000     -24.629781      -670.2104 
   3   1.0000     -24.620410      -669.9554 
   4   1.0000     -24.620137      -669.9480 
   5   1.0000     -24.614229      -669.7872 
   6   1.0000     -24.612991      -669.7535 
   7   1.0000     -24.607938      -669.6160 
   8   1.0000     -24.607586      -669.6065 
   9   1.0000     -24.605910      -669.5609 
  10   1.0000     -24.605371      -669.5462 
  11   1.0000     -24.604062      -669.5106 
  12   1.0000     -24.603731      -669.5016 
  13   1.0000     -24.601095      -669.4298 
  14   1.0000     -24.600382      -669.4104 
  15   1.0000     -19.008819      -517.2563 
  16   1.0000     -19.007481      -517.2198 
  17   1.0000     -18.997337      -516.9438 
  18   1.0000     -18.997312      -516.9431 
  19   1.0000     -10.362734      -281.9843 
  20   1.0000     -10.294101      -280.1167 
  21   1.0000     -10.285390      -279.8797 
  22   1.0000     -10.279059      -279.7074 
  23   1.0000     -10.276565      -279.6396 
  24   1.0000     -10.270885      -279.4850 
  25   1.0000     -10.270124      -279.4643 
  26   1.0000     -10.195737      -277.4401 
  27   1.0000      -1.290441       -35.1147 
  28   1.0000      -1.241982       -33.7961 
  29   1.0000      -1.237997       -33.6876 
  30   1.0000      -1.223972       -33.3060 
  31   1.0000      -1.218103       -33.1463 
  32   1.0000      -1.214696       -33.0536 
  33   1.0000      -1.209277       -32.9061 
  34   1.0000      -1.204432       -32.7742 
  35   1.0000      -1.197284       -32.5798 
  36   1.0000      -1.184721       -32.2379 
  37   1.0000      -1.182115       -32.1670 
  38   1.0000      -1.171669       -31.8827 
  39   1.0000      -1.166462       -31.7411 
  40   1.0000      -1.164633       -31.6913 
  41   1.0000      -1.158885       -31.5349 
  42   1.0000      -1.004853       -27.3434 
  43   1.0000      -0.944141       -25.6914 
  44   1.0000      -0.941576       -25.6216 
  45   1.0000      -0.919116       -25.0104 
  46   1.0000      -0.762501       -20.7487 
  47   1.0000      -0.755189       -20.5497 
  48   1.0000      -0.726249       -19.7622 
  49   1.0000      -0.697695       -18.9852 
  50   1.0000      -0.661538       -18.0014 
  51   1.0000      -0.631242       -17.1770 
  52   1.0000      -0.605223       -16.4690 
  53   1.0000      -0.579178       -15.7602 
  54   1.0000      -0.576265       -15.6810 
  55   1.0000      -0.573995       -15.6192 
  56   1.0000      -0.562570       -15.3083 
  57   1.0000      -0.552638       -15.0381 
  58   1.0000      -0.551108       -14.9964 
  59   1.0000      -0.542896       -14.7729 
  60   1.0000      -0.538005       -14.6399 
  61   1.0000      -0.529443       -14.4069 
  62   1.0000      -0.528081       -14.3698 
  63   1.0000      -0.523708       -14.2508 
  64   1.0000      -0.515619       -14.0307 
  65   1.0000      -0.506298       -13.7771 
  66   1.0000      -0.503924       -13.7125 
  67   1.0000      -0.495693       -13.4885 
  68   1.0000      -0.482682       -13.1344 
  69   1.0000      -0.467544       -12.7225 
  70   1.0000      -0.449898       -12.2424 
  71   1.0000      -0.449008       -12.2181 
  72   1.0000      -0.444703       -12.1010 
  73   1.0000      -0.433257       -11.7895 
  74   1.0000      -0.428091       -11.6489 
  75   1.0000      -0.426915       -11.6169 
  76   1.0000      -0.425722       -11.5845 
  77   1.0000      -0.421487       -11.4692 
  78   1.0000      -0.418839       -11.3972 
  79   1.0000      -0.416849       -11.3430 
  80   1.0000      -0.414392       -11.2762 
  81   1.0000      -0.413003       -11.2384 
  82   1.0000      -0.410000       -11.1567 
  83   1.0000      -0.404227       -10.9996 
  84   1.0000      -0.401916       -10.9367 
  85   1.0000      -0.395309       -10.7569 
  86   1.0000      -0.392345       -10.6763 
  87   1.0000      -0.391927       -10.6649 
  88   1.0000      -0.390407       -10.6235 
  89   1.0000      -0.389225       -10.5913 
  90   1.0000      -0.383510       -10.4358 
  91   1.0000      -0.379564       -10.3285 
  92   1.0000      -0.377070       -10.2606 
  93   1.0000      -0.373539       -10.1645 
  94   1.0000      -0.372449       -10.1349 
  95   1.0000      -0.370181       -10.0731 
  96   1.0000      -0.366699        -9.9784 
  97   1.0000      -0.365985        -9.9589 
  98   1.0000      -0.361128        -9.8268 
  99   1.0000      -0.350322        -9.5327 
 100   1.0000      -0.342547        -9.3212 
 101   1.0000      -0.330517        -8.9938 
 102   1.0000      -0.327848        -8.9212 
 103   1.0000      -0.319702        -8.6995 
 104   1.0000      -0.291741        -7.9387 
 105   1.0000      -0.256902        -6.9907 
 106   1.0000      -0.254362        -6.9215 
 107   1.0000      -0.238142        -6.4802 
 108   1.0000      -0.228328        -6.2131 
 109   1.0000      -0.224420        -6.1068 
 110   0.0000      -0.018685        -0.5084 
 111   0.0000       0.017474         0.4755 
 112   0.0000       0.036482         0.9927 
 113   0.0000       0.051549         1.4027 
 114   0.0000       0.064666         1.7597 
 115   0.0000       0.070239         1.9113 
 116   0.0000       0.077622         2.1122 
 117   0.0000       0.092021         2.5040 
 118   0.0000       0.113154         3.0791 
 119   0.0000       0.123727         3.3668 
 120   0.0000       0.126168         3.4332 
*Only the first 10 virtual orbitals were printed.

                    ********************************
                    * MULLIKEN POPULATION ANALYSIS *
                    ********************************

--------------------------------------------
MULLIKEN ATOMIC CHARGES AND SPIN POPULATIONS
--------------------------------------------
   0 C :    0.382674    0.067024
   1 C :    0.262515    0.121918
   2 C :    0.208561    0.224700
   3 C :    0.220024    0.249872
   4 C :    0.240611    0.166637
   5 C :    0.250257    0.084460
   6 C :    0.281733    0.037754
   7 C :    0.276210    0.019627
   8 F :   -0.157520   -0.001230
   9 F :   -0.157799   -0.001256
  10 F :   -0.167625    0.011614
  11 F :   -0.192097    0.000266
  12 F :   -0.192425    0.000375
  13 F :   -0.216215    0.000458
  14 F :   -0.214630    0.000335
  15 F :   -0.221385    0.000209
  16 F :   -0.217407   -0.000132
  17 F :   -0.207394   -0.001094
  18 F :   -0.207514   -0.000974
  19 F :   -0.197893   -0.000901
  20 F :   -0.198807   -0.000254
  21 F :   -0.205726   -0.000133
  22 F :   -0.208629    0.000298
  23 O :   -0.517020    0.010323
  24 O :   -0.523902    0.010155
  25 O :   -0.740804   -0.000013
  26 H :    0.329525    0.000002
  27 H :    0.352072   -0.000072
  28 H :    0.347567   -0.000138
  29 O :   -0.736114   -0.000051
  30 H :    0.329154    0.000220
Sum of atomic charges         :   -2.0000000
Sum of atomic spin populations:    1.0000000

-----------------------------------------------------
MULLIKEN REDUCED ORBITAL CHARGES AND SPIN POPULATIONS
-----------------------------------------------------
CHARGE
  0 C s       :     3.044445  s :     3.044445
      pz      :     0.658544  p :     2.189280
      px      :     0.666349
      py      :     0.864387
      dz2     :     0.071435  d :     0.344638
      dxz     :     0.082339
      dyz     :     0.061801
      dx2y2   :     0.063064
      dxy     :     0.065998
      f0      :     0.007945  f :     0.038963
      f+1     :     0.004314
      f-1     :     0.005247
      f+2     :     0.008211
      f-2     :     0.004089
      f+3     :     0.002877
      f-3     :     0.006280

  1 C s       :     3.105260  s :     3.105260
      pz      :     0.758628  p :     2.311872
      px      :     0.647576
      py      :     0.905669
      dz2     :     0.054527  d :     0.293574
      dxz     :     0.065002
      dyz     :     0.051124
      dx2y2   :     0.066115
      dxy     :     0.056806
      f0      :     0.005736  f :     0.026778
      f+1     :     0.003831
      f-1     :     0.003412
      f+2     :     0.004868
      f-2     :     0.001643
      f+3     :     0.002262
      f-3     :     0.005026

  2 C s       :     3.142182  s :     3.142182
      pz      :     0.750928  p :     2.320075
      px      :     0.658531
      py      :     0.910616
      dz2     :     0.051767  d :     0.303254
      dxz     :     0.061123
      dyz     :     0.061334
      dx2y2   :     0.074507
      dxy     :     0.054525
      f0      :     0.005340  f :     0.025928
      f+1     :     0.003543
      f-1     :     0.003115
      f+2     :     0.005019
      f-2     :     0.001763
      f+3     :     0.002167
      f-3     :     0.004982

  3 C s       :     3.135944  s :     3.135944
      pz      :     0.773358  p :     2.317190
      px      :     0.662168
      py      :     0.881664
      dz2     :     0.052787  d :     0.301098
      dxz     :     0.060422
      dyz     :     0.059295
      dx2y2   :     0.075016
      dxy     :     0.053579
      f0      :     0.005344  f :     0.025744
      f+1     :     0.003615
      f-1     :     0.003140
      f+2     :     0.004881
      f-2     :     0.001663
      f+3     :     0.002152
      f-3     :     0.004949

  4 C s       :     3.132946  s :     3.132946
      pz      :     0.759039  p :     2.301984
      px      :     0.647188
      py      :     0.895757
      dz2     :     0.053868  d :     0.298040
      dxz     :     0.063611
      dyz     :     0.056088
      dx2y2   :     0.069365
      dxy     :     0.055107
      f0      :     0.005621  f :     0.026419
      f+1     :     0.003676
      f-1     :     0.003285
      f+2     :     0.004948
      f-2     :     0.001698
      f+3     :     0.002177
      f-3     :     0.005014

  5 C s       :     3.141533  s :     3.141533
      pz      :     0.746689  p :     2.288486
      px      :     0.621256
      py      :     0.920542
      dz2     :     0.054173  d :     0.292560
      dxz     :     0.062213
      dyz     :     0.054652
      dx2y2   :     0.063923
      dxy     :     0.057598
      f0      :     0.005401  f :     0.027165
      f+1     :     0.003606
      f-1     :     0.003057
      f+2     :     0.005526
      f-2     :     0.002215
      f+3     :     0.002260
      f-3     :     0.005098

  6 C s       :     3.115203  s :     3.115203
      pz      :     0.737574  p :     2.308065
      px      :     0.591293
      py      :     0.979198
      dz2     :     0.049720  d :     0.268486
      dxz     :     0.058284
      dyz     :     0.048855
      dx2y2   :     0.055083
      dxy     :     0.056543
      f0      :     0.004788  f :     0.026513
      f+1     :     0.004073
      f-1     :     0.002535
      f+2     :     0.004951
      f-2     :     0.002965
      f+3     :     0.002663
      f-3     :     0.004538

  7 C s       :     3.041908  s :     3.041908
      pz      :     0.810109  p :     2.398234
      px      :     0.699487
      py      :     0.888637
      dz2     :     0.031628  d :     0.259242
      dxz     :     0.055467
      dyz     :     0.022741
      dx2y2   :     0.073229
      dxy     :     0.076177
      f0      :     0.001768  f :     0.024406
      f+1     :     0.002959
      f-1     :     0.001850
      f+2     :     0.003780
      f-2     :     0.002904
      f+3     :     0.006523
      f-3     :     0.004622

  8 F s       :     3.909515  s :     3.909515
      pz      :     1.551565  p :     5.231637
      px      :     1.843151
      py      :     1.836921
      dz2     :     0.005337  d :     0.015626
      dxz     :     0.003921
      dyz     :     0.004344
      dx2y2   :     0.001043
      dxy     :     0.000982
      f0      :     0.000168  f :     0.000741
      f+1     :     0.000176
      f-1     :     0.000190
      f+2     :     0.000082
      f-2     :     0.000100
      f+3     :     0.000011
      f-3     :     0.000012

  9 F s       :     3.909610  s :     3.909610
      pz      :     1.888304  p :     5.231832
      px      :     1.447764
      py      :     1.895764
      dz2     :     0.002250  d :     0.015617
      dxz     :     0.003171
      dyz     :     0.000184
      dx2y2   :     0.006471
      dxy     :     0.003541
      f0      :     0.000060  f :     0.000740
      f+1     :     0.000153
      f-1     :     0.000011
      f+2     :     0.000099
      f-2     :     0.000008
      f+3     :     0.000253
      f-3     :     0.000156

 10 F s       :     3.908572  s :     3.908572
      pz      :     1.677573  p :     5.243625
      px      :     1.849303
      py      :     1.716748
      dz2     :     0.002908  d :     0.014743
      dxz     :     0.002603
      dyz     :     0.005189
      dx2y2   :     0.002062
      dxy     :     0.001981
      f0      :     0.000084  f :     0.000685
      f+1     :     0.000069
      f-1     :     0.000171
      f+2     :     0.000120
      f-2     :     0.000156
      f+3     :     0.000045
      f-3     :     0.000040

 11 F s       :     3.913900  s :     3.913900
      pz      :     1.529707  p :     5.263153
      px      :     1.849044
      py      :     1.884402
      dz2     :     0.005665  d :     0.014405
      dxz     :     0.003763
      dyz     :     0.003613
      dx2y2   :     0.000726
      dxy     :     0.000638
      f0      :     0.000183  f :     0.000639
      f+1     :     0.000179
      f-1     :     0.000147
      f+2     :     0.000056
      f-2     :     0.000063
      f+3     :     0.000005
      f-3     :     0.000006

 12 F s       :     3.914050  s :     3.914050
      pz      :     1.895077  p :     5.263364
      px      :     1.455824
      py      :     1.912463
      dz2     :     0.002096  d :     0.014374
      dxz     :     0.002946
      dyz     :     0.000153
      dx2y2   :     0.005881
      dxy     :     0.003298
      f0      :     0.000051  f :     0.000637
      f+1     :     0.000132
      f-1     :     0.000010
      f+2     :     0.000086
      f-2     :     0.000005
      f+3     :     0.000218
      f-3     :     0.000135

 13 F s       :     3.915816  s :     3.915816
      pz      :     1.550183  p :     5.286155
      px      :     1.855999
      py      :     1.879972
      dz2     :     0.005132  d :     0.013650
      dxz     :     0.003488
      dyz     :     0.003632
      dx2y2   :     0.000735
      dxy     :     0.000663
      f0      :     0.000155  f :     0.000594
      f+1     :     0.000155
      f-1     :     0.000152
      f+2     :     0.000053
      f-2     :     0.000067
      f+3     :     0.000006
      f-3     :     0.000007

 14 F s       :     3.915695  s :     3.915695
      pz      :     1.898662  p :     5.284581
      px      :     1.467259
      py      :     1.918660
      dz2     :     0.002001  d :     0.013755
      dxz     :     0.002786
      dyz     :     0.000181
      dx2y2   :     0.005652
      dxy     :     0.003134
      f0      :     0.000048  f :     0.000599
      f+1     :     0.000123
      f-1     :     0.000009
      f+2     :     0.000079
      f-2     :     0.000005
      f+3     :     0.000211
      f-3     :     0.000124

 15 F s       :     3.915067  s :     3.915067
      pz      :     1.548867  p :     5.292269
      px      :     1.858558
      py      :     1.884844
      dz2     :     0.005158  d :     0.013463
      dxz     :     0.003420
      dyz     :     0.003528
      dx2y2   :     0.000727
      dxy     :     0.000631
      f0      :     0.000159  f :     0.000586
      f+1     :     0.000155
      f-1     :     0.000148
      f+2     :     0.000050
      f-2     :     0.000062
      f+3     :     0.000005
      f-3     :     0.000006

 16 F s       :     3.914681  s :     3.914681
      pz      :     1.899163  p :     5.288442
      px      :     1.469994
      py      :     1.919285
      dz2     :     0.001997  d :     0.013687
      dxz     :     0.002786
      dyz     :     0.000178
      dx2y2   :     0.005629
      dxy     :     0.003097
      f0      :     0.000048  f :     0.000598
      f+1     :     0.000123
      f-1     :     0.000009
      f+2     :     0.000079
      f-2     :     0.000005
      f+3     :     0.000210
      f-3     :     0.000123

 17 F s       :     3.914478  s :     3.914478
      pz      :     1.539854  p :     5.278263
      px      :     1.850804
      py      :     1.887605
      dz2     :     0.005421  d :     0.014034
      dxz     :     0.003653
      dyz     :     0.003541
      dx2y2   :     0.000761
      dxy     :     0.000658
      f0      :     0.000171  f :     0.000619
      f+1     :     0.000171
      f-1     :     0.000144
      f+2     :     0.000055
      f-2     :     0.000065
      f+3     :     0.000006
      f-3     :     0.000007

 18 F s       :     3.916481  s :     3.916481
      pz      :     1.896896  p :     5.276350
      px      :     1.461894
      py      :     1.917559
      dz2     :     0.002039  d :     0.014061
      dxz     :     0.002866
      dyz     :     0.000183
      dx2y2   :     0.005776
      dxy     :     0.003196
      f0      :     0.000049  f :     0.000623
      f+1     :     0.000128
      f-1     :     0.000009
      f+2     :     0.000085
      f-2     :     0.000005
      f+3     :     0.000217
      f-3     :     0.000129

 19 F s       :     3.916532  s :     3.916532
      pz      :     1.573343  p :     5.266108
      px      :     1.821526
      py      :     1.871239
      dz2     :     0.004689  d :     0.014603
      dxz     :     0.004125
      dyz     :     0.003669
      dx2y2   :     0.001058
      dxy     :     0.001063
      f0      :     0.000129  f :     0.000651
      f+1     :     0.000183
      f-1     :     0.000134
      f+2     :     0.000078
      f-2     :     0.000101
      f+3     :     0.000012
      f-3     :     0.000014

 20 F s       :     3.915531  s :     3.915531
      pz      :     1.887854  p :     5.268156
      px      :     1.465508
      py      :     1.914794
      dz2     :     0.002032  d :     0.014474
      dxz     :     0.003127
      dyz     :     0.000235
      dx2y2   :     0.005794
      dxy     :     0.003286
      f0      :     0.000055  f :     0.000647
      f+1     :     0.000127
      f-1     :     0.000008
      f+2     :     0.000097
      f-2     :     0.000012
      f+3     :     0.000217
      f-3     :     0.000132

 21 F s       :     3.916691  s :     3.916691
      pz      :     1.599065  p :     5.273934
      px      :     1.784430
      py      :     1.890438
      dz2     :     0.004080  d :     0.014449
      dxz     :     0.004786
      dyz     :     0.002989
      dx2y2   :     0.001267
      dxy     :     0.001327
      f0      :     0.000106  f :     0.000653
      f+1     :     0.000212
      f-1     :     0.000090
      f+2     :     0.000100
      f-2     :     0.000107
      f+3     :     0.000019
      f-3     :     0.000019

 22 F s       :     3.913924  s :     3.913924
      pz      :     1.871056  p :     5.279825
      px      :     1.492607
      py      :     1.916161
      dz2     :     0.001816  d :     0.014240
      dxz     :     0.003487
      dyz     :     0.000384
      dx2y2   :     0.005268
      dxy     :     0.003285
      f0      :     0.000058  f :     0.000640
      f+1     :     0.000109
      f-1     :     0.000005
      f+2     :     0.000121
      f-2     :     0.000028
      f+3     :     0.000192
      f-3     :     0.000127

 23 O s       :     3.836531  s :     3.836531
      pz      :     1.496233  p :     4.652904
      px      :     1.481257
      py      :     1.675415
      dz2     :     0.004713  d :     0.025834
      dxz     :     0.005350
      dyz     :     0.003719
      dx2y2   :     0.005254
      dxy     :     0.006798
      f0      :     0.000116  f :     0.001750
      f+1     :     0.000335
      f-1     :     0.000129
      f+2     :     0.000234
      f-2     :     0.000327
      f+3     :     0.000302
      f-3     :     0.000307

 24 O s       :     3.830818  s :     3.830818
      pz      :     1.571661  p :     4.665818
      px      :     1.355199
      py      :     1.738958
      dz2     :     0.002706  d :     0.025502
      dxz     :     0.007015
      dyz     :     0.001618
      dx2y2   :     0.006995
      dxy     :     0.007167
      f0      :     0.000176  f :     0.001764
      f+1     :     0.000257
      f-1     :     0.000040
      f+2     :     0.000264
      f-2     :     0.000171
      f+3     :     0.000446
      f-3     :     0.000409

 25 O s       :     3.805814  s :     3.805814
      pz      :     1.818272  p :     4.913693
      px      :     1.379640
      py      :     1.715780
      dz2     :     0.001685  d :     0.019991
      dxz     :     0.006075
      dyz     :     0.004086
      dx2y2   :     0.001878
      dxy     :     0.006267
      f0      :     0.000270  f :     0.001306
      f+1     :     0.000059
      f-1     :     0.000058
      f+2     :     0.000204
      f-2     :     0.000298
      f+3     :     0.000206
      f-3     :     0.000212

 26 H s       :     0.625527  s :     0.625527
      pz      :     0.014718  p :     0.044947
      px      :     0.014262
      py      :     0.015968

 27 H s       :     0.594923  s :     0.594923
      pz      :     0.016875  p :     0.053005
      px      :     0.023409
      py      :     0.012722

 28 H s       :     0.598462  s :     0.598462
      pz      :     0.016345  p :     0.053971
      px      :     0.026198
      py      :     0.011428

 29 O s       :     3.801902  s :     3.801902
      pz      :     1.885496  p :     4.912991
      px      :     1.627701
      py      :     1.399793
      dz2     :     0.002604  d :     0.019923
      dxz     :     0.004275
      dyz     :     0.002033
      dx2y2   :     0.010107
      dxy     :     0.000905
      f0      :     0.000247  f :     0.001298
      f+1     :     0.000074
      f-1     :     0.000256
      f+2     :     0.000226
      f-2     :     0.000082
      f+3     :     0.000025
      f-3     :     0.000388

 30 H s       :     0.625635  s :     0.625635
      pz      :     0.015222  p :     0.045210
      px      :     0.012438
      py      :     0.017550


SPIN
  0 C s       :     0.016333  s :     0.016333
      pz      :     0.024079  p :     0.041817
      px      :     0.017243
      py      :     0.000495
      dz2     :     0.000196  d :     0.008653
      dxz     :     0.000040
      dyz     :     0.004776
      dx2y2   :     0.002983
      dxy     :     0.000659
      f0      :     0.000065  f :     0.000221
      f+1     :    -0.000031
      f-1     :     0.000012
      f+2     :     0.000052
      f-2     :     0.000075
      f+3     :    -0.000008
      f-3     :     0.000056

  1 C s       :    -0.018696  s :    -0.018696
      pz      :     0.087041  p :     0.113500
      px      :     0.040575
      py      :    -0.014116
      dz2     :     0.005494  d :     0.027333
      dxz     :     0.000968
      dyz     :     0.003462
      dx2y2   :     0.017295
      dxy     :     0.000114
      f0      :    -0.000045  f :    -0.000219
      f+1     :    -0.000010
      f-1     :    -0.000036
      f+2     :    -0.000076
      f-2     :     0.000012
      f+3     :    -0.000078
      f-3     :     0.000014

  2 C s       :    -0.016251  s :    -0.016251
      pz      :     0.113800  p :     0.200260
      px      :     0.076198
      py      :     0.010262
      dz2     :     0.005231  d :     0.041251
      dxz     :     0.001110
      dyz     :     0.011626
      dx2y2   :     0.023282
      dxy     :     0.000002
      f0      :    -0.000035  f :    -0.000560
      f+1     :    -0.000064
      f-1     :    -0.000160
      f+2     :    -0.000135
      f-2     :    -0.000032
      f+3     :    -0.000078
      f-3     :    -0.000056

  3 C s       :    -0.020721  s :    -0.020721
[...]
 39:    327.08   0.000314    1.58  0.000299  ( 0.001207  0.013655  0.010548)
 40:    337.02   0.016158   81.66  0.014962  ( 0.000838 -0.117429 -0.034225)
 41:    351.23   0.000998    5.05  0.000887  ( 0.006277  0.028689  0.004962)
 42:    359.63   0.000193    0.97  0.000167  ( 0.009129  0.004664  0.007888)
 43:    368.89   0.004027   20.35  0.003407  (-0.037513 -0.038600 -0.022580)
 44:    410.84   0.000367    1.85  0.000278  (-0.009668  0.013500  0.001627)
 45:    432.51   0.013710   69.28  0.009892  (-0.095581 -0.022280 -0.016118)
 46:    452.86   0.020596  104.08  0.014193  ( 0.095376  0.067012  0.024603)
 47:    460.80   0.000437    2.21  0.000296  ( 0.001719  0.003928 -0.016658)
 48:    469.78   0.002309   11.67  0.001533  (-0.012825 -0.036932  0.002252)
 49:    500.21   0.003275   16.55  0.002043  (-0.000193  0.042333  0.015850)
 50:    511.46   0.000293    1.48  0.000179  (-0.003619 -0.010549  0.007371)
 51:    522.04   0.006686   33.79  0.003997  (-0.015517 -0.059687  0.013911)
 52:    549.22   0.000508    2.57  0.000289  ( 0.012260 -0.011707 -0.001203)
 53:    554.91   0.001532    7.74  0.000861  ( 0.007752 -0.002652 -0.028181)
 54:    576.30   0.002999   15.16  0.001624  ( 0.008929  0.039020  0.004654)
 55:    584.60   0.000951    4.81  0.000508  (-0.009091 -0.020324 -0.003491)
 56:    587.84   0.000066    0.33  0.000035  (-0.003296 -0.000499 -0.004888)
 57:    610.10   0.035004  176.89  0.017904  (-0.000291 -0.126746 -0.042889)
 58:    629.77   0.070521  356.39  0.034945  ( 0.011920  0.181794  0.041875)
 59:    660.48   0.071072  359.17  0.033580  ( 0.003738  0.176679  0.048481)
 60:    673.37   0.024004  121.30  0.011124  ( 0.001462 -0.099462 -0.035061)
 61:    708.43   0.019716   99.64  0.008685  ( 0.004179  0.090893  0.020150)
 62:    710.37   0.026975  136.32  0.011850  (-0.019712  0.069544  0.081394)
 63:    725.88   0.027373  138.33  0.011768  (-0.045908  0.030872  0.093312)
 64:    741.58   0.017931   90.62  0.007545  ( 0.010834 -0.075314 -0.041903)
 65:    784.99   0.005560   28.10  0.002210  (-0.017374 -0.039243  0.019200)
 66:    818.83   0.027907  141.03  0.010636  ( 0.020805  0.100762 -0.007060)
 67:    888.31   0.008876   44.86  0.003118  (-0.003968  0.054195  0.012860)
 68:    891.23   0.019837  100.25  0.006946  ( 0.002574 -0.076719 -0.032456)
 69:    929.91   0.104312  527.15  0.035006  ( 0.004595  0.184381  0.031435)
 70:    956.74   0.026053  131.66  0.008498  (-0.033090  0.078306 -0.035650)
 71:    977.88   0.169647  857.32  0.054138  ( 0.050550  0.226814  0.011759)
 72:   1000.13   0.119546  604.14  0.037301  (-0.002979 -0.154383 -0.116009)
 73:   1006.12   0.013291   67.17  0.004122  ( 0.042256 -0.045032  0.017577)
 74:   1026.01   0.368393  1861.71  0.112047  (-0.144915  0.225360  0.200647)
 75:   1028.68   0.124343  628.38  0.037721  ( 0.103784  0.023506  0.162472)
 76:   1033.01   0.007343   37.11  0.002218  (-0.003979  0.046680 -0.004841)
 77:   1047.18   0.175871  888.78  0.052410  (-0.102057 -0.193395 -0.067772)
 78:   1064.58   0.028043  141.72  0.008220  (-0.046167 -0.056601  0.053714)
 79:   1071.92   0.213806  1080.49  0.062244  (-0.179342  0.173293  0.007097)
 80:   1087.61   0.100056  505.64  0.028709  ( 0.050673  0.046767  0.154770)
 81:   1106.35   0.006797   34.35  0.001917  ( 0.024705  0.002295  0.036077)
 82:   1132.47   0.111552  563.74  0.030739  (-0.136553  0.060036 -0.092132)
 83:   1135.32   0.317067  1602.33  0.087152  (-0.071769 -0.284058 -0.036225)
 84:   1232.95   0.290556  1468.35  0.073541  ( 0.035128  0.267934  0.022758)
 85:   1357.94   0.182592  922.74  0.041961  ( 0.016229  0.201705  0.031818)
 86:   1664.76   0.255967  1293.55  0.047982  (-0.195172  0.042061 -0.090114)
 87:   1671.23   0.015102   76.32  0.002820  ( 0.032840  0.037451 -0.018411)
 88:   1682.19   0.014861   75.10  0.002757  ( 0.027919  0.044414  0.002190)
 89:   3350.76   0.349410  1765.77  0.032541  ( 0.166009 -0.002522  0.070540)
 90:   3380.87   0.124864  631.01  0.011525  (-0.086214 -0.028762 -0.057142)
 91:   3790.73   0.016473   83.25  0.001356  (-0.031631 -0.018617 -0.002998)
 92:   3798.69   0.007131   36.04  0.000586  (-0.016318 -0.017776 -0.001886)

* The epsilon (eps) is given for a Dirac delta lineshape.
** The dipole moment derivative (T) already includes vibrational overlap.

The first frequency considered to be a vibration is 6
The total number of vibrations considered is 87


--------------------------
THERMOCHEMISTRY AT 298.15K
--------------------------

Temperature         ...   298.15 K
Pressure            ...     1.00 atm
Total Mass          ...   449.09 AMU
Quasi RRHO          ...     True
Cut-Off Frequency   ...     1.00 cm^-1

Throughout the following assumptions are being made:
  (1) The electronic state is orbitally nondegenerate
      but the spin degeneracy is treated
  (2) There are no thermally accessible electronically excited states
  (3) Hindered rotations indicated by low frequency modes are not
      treated as such but are treated as vibrations and this may
      cause some error
  (4) All equations used are the standard statistical mechanics
      equations for an ideal gas
  (5) All vibrations are strictly harmonic

freq.       9.44  E(vib)   ...       0.58 
freq.      13.54  E(vib)   ...       0.57 
freq.      26.25  E(vib)   ...       0.56 
freq.      28.59  E(vib)   ...       0.55 
freq.      38.78  E(vib)   ...       0.54 
freq.      41.65  E(vib)   ...       0.53 
freq.      48.36  E(vib)   ...       0.53 
freq.      53.16  E(vib)   ...       0.52 
freq.      56.53  E(vib)   ...       0.52 
freq.      67.40  E(vib)   ...       0.50 
freq.      69.51  E(vib)   ...       0.50 
freq.      84.95  E(vib)   ...       0.48 
freq.      95.21  E(vib)   ...       0.47 
freq.      98.22  E(vib)   ...       0.46 
freq.     102.81  E(vib)   ...       0.46 
freq.     131.93  E(vib)   ...       0.42 
freq.     150.16  E(vib)   ...       0.40 
freq.     161.63  E(vib)   ...       0.39 
freq.     171.21  E(vib)   ...       0.38 
freq.     182.33  E(vib)   ...       0.37 
freq.     193.21  E(vib)   ...       0.36 
freq.     198.14  E(vib)   ...       0.35 
freq.     206.52  E(vib)   ...       0.35 
freq.     221.70  E(vib)   ...       0.33 
freq.     234.47  E(vib)   ...       0.32 
freq.     239.44  E(vib)   ...       0.31 
freq.     240.90  E(vib)   ...       0.31 
freq.     250.35  E(vib)   ...       0.30 
freq.     273.81  E(vib)   ...       0.28 
freq.     310.04  E(vib)   ...       0.26 
freq.     314.88  E(vib)   ...       0.25 
freq.     317.34  E(vib)   ...       0.25 
freq.     322.47  E(vib)   ...       0.25 
freq.     327.08  E(vib)   ...       0.24 
freq.     337.02  E(vib)   ...       0.24 
freq.     351.23  E(vib)   ...       0.23 
freq.     359.63  E(vib)   ...       0.22 
freq.     368.89  E(vib)   ...       0.21 
freq.     410.84  E(vib)   ...       0.19 
freq.     432.51  E(vib)   ...       0.18 
freq.     452.86  E(vib)   ...       0.16 
freq.     460.80  E(vib)   ...       0.16 
freq.     469.78  E(vib)   ...       0.16 
freq.     500.21  E(vib)   ...       0.14 
freq.     511.46  E(vib)   ...       0.14 
freq.     522.04  E(vib)   ...       0.13 
freq.     549.22  E(vib)   ...       0.12 
freq.     554.91  E(vib)   ...       0.12 
freq.     576.30  E(vib)   ...       0.11 
freq.     584.60  E(vib)   ...       0.11 
freq.     587.84  E(vib)   ...       0.10 
freq.     610.10  E(vib)   ...       0.10 
freq.     629.77  E(vib)   ...       0.09 
freq.     660.48  E(vib)   ...       0.08 
freq.     673.37  E(vib)   ...       0.08 
freq.     708.43  E(vib)   ...       0.07 
freq.     710.37  E(vib)   ...       0.07 
freq.     725.88  E(vib)   ...       0.06 
freq.     741.58  E(vib)   ...       0.06 
freq.     784.99  E(vib)   ...       0.05 
freq.     818.83  E(vib)   ...       0.05 
freq.     888.31  E(vib)   ...       0.04 
freq.     891.23  E(vib)   ...       0.04 
freq.     929.91  E(vib)   ...       0.03 
freq.     956.74  E(vib)   ...       0.03 
freq.     977.88  E(vib)   ...       0.03 
freq.    1000.13  E(vib)   ...       0.02 
freq.    1006.12  E(vib)   ...       0.02 
freq.    1026.01  E(vib)   ...       0.02 
freq.    1028.68  E(vib)   ...       0.02 
freq.    1033.01  E(vib)   ...       0.02 
freq.    1047.18  E(vib)   ...       0.02 
freq.    1064.58  E(vib)   ...       0.02 
freq.    1071.92  E(vib)   ...       0.02 
freq.    1087.61  E(vib)   ...       0.02 
freq.    1106.35  E(vib)   ...       0.02 
freq.    1132.47  E(vib)   ...       0.01 
freq.    1135.32  E(vib)   ...       0.01 
freq.    1232.95  E(vib)   ...       0.01 
freq.    1357.94  E(vib)   ...       0.01 
freq.    1664.76  E(vib)   ...       0.00 
freq.    1671.23  E(vib)   ...       0.00 
freq.    1682.19  E(vib)   ...       0.00 
freq.    3350.76  E(vib)   ...       0.00 
freq.    3380.87  E(vib)   ...       0.00 
freq.    3790.73  E(vib)   ...       0.00 
freq.    3798.69  E(vib)   ...       0.00 

------------
INNER ENERGY
------------

The inner energy is: U= E(el) + E(ZPE) + E(vib) + E(rot) + E(trans)
    E(el)   - is the total energy from the electronic structure calculation
              = E(kin-el) + E(nuc-el) + E(el-el) + E(nuc-nuc)
    E(ZPE)  - the the zero temperature vibrational energy from the frequency calculation
    E(vib)  - the the finite temperature correction to E(ZPE) due to population
              of excited vibrational states
    E(rot)  - is the rotational thermal energy
    E(trans)- is the translational thermal energy

Summary of contributions to the inner energy U:
Electronic energy                ...  -2106.88862963 Eh
Zero point energy                ...      0.13598283 Eh      85.33 kcal/mol
Thermal vibrational correction   ...      0.02821661 Eh      17.71 kcal/mol
Thermal rotational correction    ...      0.00141627 Eh       0.89 kcal/mol
Thermal translational correction ...      0.00141627 Eh       0.89 kcal/mol
-----------------------------------------------------------------------
Total thermal energy                  -2106.72159765 Eh


Summary of corrections to the electronic energy:
(perhaps to be used in another calculation)
Total thermal correction                  0.03104916 Eh      19.48 kcal/mol
Non-thermal (ZPE) correction              0.13598283 Eh      85.33 kcal/mol
-----------------------------------------------------------------------
Total correction                          0.16703198 Eh     104.81 kcal/mol


--------
ENTHALPY
--------

The enthalpy is H = U + kB*T
                kB is Boltzmann's constant
Total thermal energy              ...  -2106.72159765 Eh 
Thermal Enthalpy correction       ...      0.00094421 Eh       0.59 kcal/mol
-----------------------------------------------------------------------
Total Enthalpy                    ...  -2106.72065344 Eh


Note: Only C1 symmetry has been detected, increase convergence thresholds 
      if your molecule has a higher symmetry. Symmetry factor of 1.0 is   
      used for the rotational entropy correction. 
 

Note: Rotational entropy computed according to Herzberg 
Infrared and Raman Spectra, Chapter V,1, Van Nostrand Reinhold, 1945 
Point Group:  C1, Symmetry Number:   1  
Rotational constants in cm-1:     0.013468     0.002903     0.002698 

Vibrational entropy computed according to the QRRHO of S. Grimme
Chem.Eur.J. 2012 18 9955 using a reference frequency of 100.0 cm-1


-------
ENTROPY
-------

The entropy contributions are T*S = T*(S(el)+S(vib)+S(rot)+S(trans))
     S(el)   - electronic entropy
     S(vib)  - vibrational entropy
     S(rot)  - rotational entropy
     S(trans)- translational entropy
The entropies will be listed as multiplied by the temperature to get
units of energy

Electronic entropy                ...      0.00065446 Eh      0.41 kcal/mol
Vibrational entropy               ...      0.05249743 Eh     32.94 kcal/mol
Rotational entropy                ...      0.01709479 Eh     10.73 kcal/mol
Translational entropy             ...      0.02099854 Eh     13.18 kcal/mol
-----------------------------------------------------------------------
Final entropy term                ...      0.09124522 Eh     57.26 kcal/mol

In case the symmetry of your molecule has not been determined correctly
or in case you have a reason to use a different symmetry number we print 
out the resulting rotational entropy values for sn=1,12:

 non-linear molecules -----------------------------------
|  sn= 1 | S(rot)=       0.01709479 Eh     10.73 kcal/mol|
|  sn= 2 | S(rot)=       0.01644034 Eh     10.32 kcal/mol|
|  sn= 3 | S(rot)=       0.01605751 Eh     10.08 kcal/mol|
|  sn= 4 | S(rot)=       0.01578588 Eh      9.91 kcal/mol|
|  sn= 5 | S(rot)=       0.01557519 Eh      9.77 kcal/mol|
|  sn= 6 | S(rot)=       0.01540305 Eh      9.67 kcal/mol|
|  sn= 7 | S(rot)=       0.01525750 Eh      9.57 kcal/mol|
|  sn= 8 | S(rot)=       0.01513143 Eh      9.50 kcal/mol|
|  sn= 9 | S(rot)=       0.01502022 Eh      9.43 kcal/mol|
|  sn=10 | S(rot)=       0.01492074 Eh      9.36 kcal/mol|
|  sn=11 | S(rot)=       0.01483075 Eh      9.31 kcal/mol|
|  sn=12 | S(rot)=       0.01474859 Eh      9.25 kcal/mol|
 linear molecules ---------------------------------------
|  Dinfh | S(rot)=       0.01091095 Eh      6.85 kcal/mol|
|  Cinfv | S(rot)=       0.01156540 Eh      7.26 kcal/mol|
 --------------------------------------------------------


-------------------
GIBBS FREE ENERGY
-------------------

The Gibbs free energy is G = H - T*S

Total enthalpy                    ...  -2106.72065344 Eh 
Total entropy correction          ...     -0.09124522 Eh    -57.26 kcal/mol
-----------------------------------------------------------------------
Final Gibbs free energy         ...  -2106.81189866 Eh

For completeness - the Gibbs free energy minus the electronic energy
G-E(el)                           ...      0.07673097 Eh     48.15 kcal/mol


Maximum memory used throughout the entire PROP-calculation: 752.2 MB

--------------------------------
SUGGESTED CITATIONS FOR THIS RUN
--------------------------------

Below you find a list of papers that are relevant to this ORCA run
We neither can nor want to force you to cite these papers, but we appreciate if you do
You receive ORCA, which is the product of decades of hard work by many enthusiastic individuals, for free
The only thing we kindly ask in return is that you cite our papers,
We deeply appreciate it, if you show your appreciation for ORCA by not just citing the generic ORCA reference.

Please note that relegating all ORCA citations to the supporting information does *not* help us.
SI sections are not indexed - citations you put there will not count into any citation statistics
But we need these citations in order to attract the funding resources that allow us to do what we are doing

Therefore, if you are a happy ORCA user, please consider citing a few of the papers listed below in the main body of your paper

In addition to the list printed below, the program has created the file rf_mecn_2H2O_freq_TP_sw_04.bibtex that contains the list in bibtex format
You can import this file easily into all common literature databanks and citation aid programs


List of essential papers. We consider these as the minimum necessary citations

  1. Neese,F.
     Software update: the ORCA program system, version 5.0
     WIRES Comput. Molec. Sci., 2022 12(1)e1606
     doi.org/10.1002/wcms.1606

List of papers to cite with high priority. The work reported in these papers was absolutely
necessary for this run to complete.
Our perspective: the developers of density functionals and basis sets usually get cited in chemistry papers
Good! But without the algorithms to do something with them, the functionals or basis sets would not do anything.
Hence, in our opinion, the algorithm design and method developments papers are equally worthy of getting cited

  1. Neese,F.
     An improvement of the resolution of the identity approximation for the formation of the Coulomb matrix
     J. Comp. Chem., 2003 24(14)1740-1747
     doi.org/10.1002/jcc.10318
  2. Neese,F.; Wennmohs,F.; Hansen,A.; Becker,U.
     Efficient, approximate and parallel Hartree-Fock and hybrid DFT calculations. A 'chain-of-spheres' algorithm for the Hartree-Fock exchange
     Chem. Phys., 2009 356(1-3)98-109
     doi.org/10.1016/j.chemphys.2008.10.036
  3. Bykov,D.; Petrenko,T.; Izsak,R.; Kossmann,S.; Becker,U.; Valeev,E.; Neese,F.
     Efficient implementation of the analytic second derivatives of Hartree-Fock and hybrid DFT energies: a detailed analysis of different approximations
     Molec. Phys., 2015 113 1961-1977
     doi.org/10.1080/00268976.2015.1025114
  4. Garcia-Rates,M.; Neese,F.
     Efficient implementation of the analytical second derivatives of hartree-fock and hybrid DFT energies within the framework of the conductor-like polarizable continuum model
     J. Comput. Chem., 2019 40 1816-1828
     doi.org/10.1002/jcc.25833
  5. Garcia-Rates,M.; Neese,F.
     Effect of the Solute Cavity on the Solvation Energy and its Derivatives within the Framework of the Gaussian Charge Scheme
     J. Comput. Chem., 2020 41 922-939
     doi.org/10.1002/jcc.26139
  6. Helmich-Paris,B.; de Souza,B.; Neese,F.; Izsák,R.
     An improved chain of spheres for exchange algorithm
     J. Chem. Phys., 2021 155 104109
     doi.org/doi: 10.1063/5.0058766.
  7. Neese,F.
     The SHARK Integral Generation and Digestion System
     J. Comp. Chem., 2022  1-16
     doi.org/10.1002/jcc.26942
  8. Grimme,S.; Antony,J.; Ehrlich,S.; Krieg,H.
     A consistent and accurate ab initio parametrization of density functional dispersion correction (DFT-D) for the 94 elements H-Pu
     J. Chem. Phys., 2010 132 154104
     doi.org/10.1063/1.3382344
  9. Grimme,S.; Ehrlich,S.; Goerigk,L.
     Effect of the damping function in dispersion corrected density functional theory
     J. Comput. Chem., 2011 32(7)1456-1465
     doi.org/10.1002/jcc.21759

List of suggested additional citations. These are papers that are important in the 'surrounding' of 
of this run, or papers that preceded the highly important papers. If you like your results we are grateful for a citation.

  1. Izsak,R.; Neese,F.
     An overlap fitted chain of spheres exchange method
     J. Chem. Phys., 2011 135 144105
     doi.org/10.1063/1.3646921
  2. Izsak,R.; Hansen,A.; Neese,F.
     The resolution of identity and chain of spheres approximations for the LPNO-CCSD singles Fock term
     Molec. Phys., 2012 110 2413-2417
     doi.org/10.1080/00268976.2012.687466
  3. Neese,F.
     The ORCA program system
     WIRES Comput. Molec. Sci., 2012 2(1)73-78
     doi.org/10.1002/wcms.81
  4. Izsak,R.; Neese,F.; Klopper,W.
     Robust fitting techniques in the chain of spheres approximation to the Fock exchange: The role of the complementary space
     J. Chem. Phys., 2013 139 
     doi.org/10.1063/1.4819264
  5. Neese,F.
     Software update: the ORCA program system, version 4.0
     WIRES Comput. Molec. Sci., 2018 8(1)1-6
     doi.org/10.1002/wcms.1327
  6. Neese,F.; Wennmohs,F.; Becker,U.; Riplinger,C.
     The ORCA quantum chemistry program package
     J. Chem. Phys., 2020 152 Art. No. L224108
     doi.org/10.1063/5.0004608

List of optional additional citations

  1. Neese,F.
     Approximate second-order SCF convergence for spin unrestricted wavefunctions
     Chem. Phys. Lett., 2000 325(1-3)93-98
     doi.org/10.1016/s0009-2614(00)00662-x

Timings for individual modules:

Sum of individual times          ...     1776.946 sec (=  29.616 min)
Startup calculation              ...        5.056 sec (=   0.084 min)   0.3 %
SCF iterations                   ...      120.660 sec (=   2.011 min)   6.8 %
Property integrals               ...      430.238 sec (=   7.171 min)  24.2 %
SCF Response                     ...      941.751 sec (=  15.696 min)  53.0 %
Property calculations            ...      279.241 sec (=   4.654 min)  15.7 %
                             ****ORCA TERMINATED NORMALLY****
TOTAL RUN TIME: 0 days 0 hours 29 minutes 39 seconds 414 msec
