
                                 *****************
                                 * O   R   C   A *
                                 *****************

                                            #,                                       
                                            ###                                      
                                            ####                                     
                                            #####                                    
                                            ######                                   
                                           ########,                                 
                                     ,,################,,,,,                         
                               ,,#################################,,                 
                          ,,##########################################,,             
                       ,#########################################, ''#####,          
                    ,#############################################,,   '####,        
                  ,##################################################,,,,####,       
                ,###########''''           ''''###############################       
              ,#####''   ,,,,##########,,,,          '''####'''          '####       
            ,##' ,,,,###########################,,,                        '##       
           ' ,,###''''                  '''############,,,                           
         ,,##''                                '''############,,,,        ,,,,,,###''
      ,#''                                            '''#######################'''  
     '                                                          ''''####''''         
             ,#######,   #######,   ,#######,      ##                                
            ,#'     '#,  ##    ##  ,#'     '#,    #''#        ######   ,####,        
            ##       ##  ##   ,#'  ##            #'  '#       #        #'  '#        
            ##       ##  #######   ##           ,######,      #####,   #    #        
            '#,     ,#'  ##    ##  '#,     ,#' ,#      #,         ##   #,  ,#        
             '#######'   ##     ##  '#######'  #'      '#     #####' # '####'        



                  #######################################################
                  #                        -***-                        #
                  #          Department of theory and spectroscopy      #
                  #    Directorship and core code : Frank Neese         #
                  #        Max Planck Institute fuer Kohlenforschung    #
                  #                Kaiser Wilhelm Platz 1               #
                  #                 D-45470 Muelheim/Ruhr               #
                  #                      Germany                        #
                  #                                                     #
                  #                  All rights reserved                #
                  #                        -***-                        #
                  #######################################################


                         Program Version 5.0.3 -  RELEASE  -


 With contributions from (in alphabetic order):
   Daniel Aravena         : Magnetic Suceptibility
   Michael Atanasov       : Ab Initio Ligand Field Theory (pilot matlab implementation)
   Alexander A. Auer      : GIAO ZORA, VPT2 properties, NMR spectrum
   Ute Becker             : Parallelization
   Giovanni Bistoni       : ED, misc. LED, open-shell LED, HFLD
   Martin Brehm           : Molecular dynamics
   Dmytro Bykov           : SCF Hessian
   Vijay G. Chilkuri      : MRCI spin determinant printing, contributions to CSF-ICE
   Dipayan Datta          : RHF DLPNO-CCSD density
   Achintya Kumar Dutta   : EOM-CC, STEOM-CC
   Dmitry Ganyushin       : Spin-Orbit,Spin-Spin,Magnetic field MRCI
   Miquel Garcia          : C-PCM and meta-GGA Hessian, CC/C-PCM, Gaussian charge scheme
   Yang Guo               : DLPNO-NEVPT2, F12-NEVPT2, CIM, IAO-localization
   Andreas Hansen         : Spin unrestricted coupled pair/coupled cluster methods
   Benjamin Helmich-Paris : MC-RPA, TRAH-SCF, COSX integrals
   Lee Huntington         : MR-EOM, pCC
   Robert Izsak           : Overlap fitted RIJCOSX, COSX-SCS-MP3, EOM
   Marcus Kettner         : VPT2
   Christian Kollmar      : KDIIS, OOCD, Brueckner-CCSD(T), CCSD density, CASPT2, CASPT2-K
   Simone Kossmann        : Meta GGA functionals, TD-DFT gradient, OOMP2, MP2 Hessian
   Martin Krupicka        : Initial AUTO-CI
   Lucas Lang             : DCDCAS
   Marvin Lechner         : AUTO-CI (C++ implementation), FIC-MRCC
   Dagmar Lenk            : GEPOL surface, SMD
   Dimitrios Liakos       : Extrapolation schemes; Compound Job, initial MDCI parallelization
   Dimitrios Manganas     : Further ROCIS development; embedding schemes
   Dimitrios Pantazis     : SARC Basis sets
   Anastasios Papadopoulos: AUTO-CI, single reference methods and gradients
   Taras Petrenko         : DFT Hessian,TD-DFT gradient, ASA, ECA, R-Raman, ABS, FL, XAS/XES, NRVS
   Peter Pinski           : DLPNO-MP2, DLPNO-MP2 Gradient
   Christoph Reimann      : Effective Core Potentials
   Marius Retegan         : Local ZFS, SOC
   Christoph Riplinger    : Optimizer, TS searches, QM/MM, DLPNO-CCSD(T), (RO)-DLPNO pert. Triples
   Tobias Risthaus        : Range-separated hybrids, TD-DFT gradient, RPA, STAB
   Michael Roemelt        : Original ROCIS implementation
   Masaaki Saitow         : Open-shell DLPNO-CCSD energy and density
   Barbara Sandhoefer     : DKH picture change effects
   Avijit Sen             : IP-ROCIS
   Kantharuban Sivalingam : CASSCF convergence, NEVPT2, FIC-MRCI
   Bernardo de Souza      : ESD, SOC TD-DFT
   Georgi Stoychev        : AutoAux, RI-MP2 NMR, DLPNO-MP2 response
   Willem Van den Heuvel  : Paramagnetic NMR
   Boris Wezisla          : Elementary symmetry handling
   Frank Wennmohs         : Technical directorship


 We gratefully acknowledge several colleagues who have allowed us to
 interface, adapt or use parts of their codes:
   Stefan Grimme, W. Hujo, H. Kruse, P. Pracht,  : VdW corrections, initial TS optimization,
                  C. Bannwarth, S. Ehlert          DFT functionals, gCP, sTDA/sTD-DF
   Ed Valeev, F. Pavosevic, A. Kumar             : LibInt (2-el integral package), F12 methods
   Garnet Chan, S. Sharma, J. Yang, R. Olivares  : DMRG
   Ulf Ekstrom                                   : XCFun DFT Library
   Mihaly Kallay                                 : mrcc  (arbitrary order and MRCC methods)
   Jiri Pittner, Ondrej Demel                    : Mk-CCSD
   Frank Weinhold                                : gennbo (NPA and NBO analysis)
   Christopher J. Cramer and Donald G. Truhlar   : smd solvation model
   Lars Goerigk                                  : TD-DFT with DH, B97 family of functionals
   V. Asgeirsson, H. Jonsson                     : NEB implementation
   FAccTs GmbH                                   : IRC, NEB, NEB-TS, DLPNO-Multilevel, CI-OPT
                                                   MM, QMMM, 2- and 3-layer-ONIOM, Crystal-QMMM,
                                                   LR-CPCM, SF, NACMEs, symmetry and pop. for TD-DFT,
                                                   nearIR, NL-DFT gradient (VV10), updates on ESD,
                                                   ML-optimized integration grids
   S Lehtola, MJT Oliveira, MAL Marques          : LibXC Library
   Liviu Ungur et al                             : ANISO software


 Your calculation uses the libint2 library for the computation of 2-el integrals
 For citations please refer to: http://libint.valeyev.net

 Your ORCA version has been built with support for libXC version: 5.1.0
 For citations please refer to: https://tddft.org/programs/libxc/

 This ORCA versions uses:
   CBLAS   interface :  Fast vector & matrix operations
   LAPACKE interface :  Fast linear algebra routines
   SCALAPACK package :  Parallel linear algebra routines
   Shared memory     :  Shared parallel matrices
   BLAS/LAPACK       :  OpenBLAS 0.3.15  USE64BITINT DYNAMIC_ARCH NO_AFFINITY SkylakeX SINGLE_THREADED
        Core in use  :  SkylakeX
   Copyright (c) 2011-2014, The OpenBLAS Project


Your calculation utilizes the atom-pairwise dispersion correction
with the Becke-Johnson damping scheme (D3BJ)
Cite in your paper:
S.Grimme, S.Ehrlich, L.Goerigk, J Comput Chem, (2011), 32, 1456–1465 
S.Grimme, J.Antony, S.Ehrlich and H.Krieg, J.Chem.Phys., 132, (2010), 154104 
   

Your calculation utilizes the SMD solvation module
Please cite in your paper:
A.V. Marenich, C.J. Cramer, D.G. Truhlar J. Phys. Chem. B, 113, (2009), 6378 

================================================================================

----- Orbital basis set information -----
Your calculation utilizes the basis: def2-TZVP
   F. Weigend and R. Ahlrichs, Phys. Chem. Chem. Phys. 7, 3297 (2005).

----- AuxJ basis set information -----
Your calculation utilizes the auxiliary basis: def2/J
   F. Weigend, Phys. Chem. Chem. Phys. 8, 1057 (2006).

================================================================================
                                        WARNINGS
                       Please study these warnings very carefully!
================================================================================


WARNING: your system is open-shell and RHF/RKS was chosen
  ===> : WILL SWITCH to UHF/UKS


WARNING: Geometry Optimization
  ===> : Switching off AutoStart
         For restart on a previous wavefunction, please use MOREAD

INFO   : the flag for use of the SHARK integral package has been found!

================================================================================
                                       INPUT FILE
================================================================================
NAME = rf_mecn_opt_TPS_C4_D_B.inp
|  1> !TPSSh def2-TZVP opt d3 TightSCF SlowConv defgrid2
|  2>  
|  3> %pal
|  4> nprocs 20
|  5> end
|  6>  
|  7> %scf
|  8> MaxIter 1500
|  9> end
| 10>  
| 11> %maxcore 8000
| 12>  
| 13> !CPCM
| 14> %cpcm smd true
| 15> SMDsolvent "ACETONITRILE"
| 16> end
| 17>  
| 18> * xyz -1 2
| 19> 6        4.790427000     -0.033865800     -0.529943200
| 20> 8        5.449345000     -1.206924000     -0.894594600
| 21> 8        4.978223000      1.323071000     -0.737377200
| 22> 6        3.506687600     -0.338741600      0.376153800
| 23> 6        2.222300000      0.400524800     -0.110681600
| 24> 6        0.900506800     -0.386389800      0.175703000
| 25> 6       -0.395261200      0.487294000      0.065549000
| 26> 6       -1.705693600     -0.364773800     -0.068373600
| 27> 6       -3.005136200      0.445344800      0.258164000
| 28> 6       -4.319880200     -0.214526000     -0.270540800
| 29> 9        3.211587400     -1.692050400      0.412735200
| 30> 9        3.741061800      0.055285800      1.689948800
| 31> 9        2.125696800      1.616867800      0.483236600
| 32> 9        2.314152400      0.589704000     -1.455769200
| 33> 9        0.958350600     -0.884509000      1.435093400
| 34> 9       -0.498373400      1.260265600      1.173340200
| 35> 9       -0.299075000      1.289512600     -1.020910800
| 36> 9       -1.641790400     -1.418189000      0.779523800
| 37> 9       -1.792381400     -0.831391600     -1.336863600
| 38> 9       -2.918792200      1.679227200     -0.295171200
| 39> 9       -3.119771000      0.573779800      1.598579800
| 40> 9       -4.383115600     -1.504377600      0.089127600
| 41> 9       -5.365669800      0.430528600      0.260394200
| 42> 9       -4.396020400     -0.128550600     -1.602941800
| 43> *
| 44> 
| 45>                          ****END OF INPUT****
================================================================================

                       *****************************
                       * Geometry Optimization Run *
                       *****************************

Geometry optimization settings:
Update method            Update   .... BFGS
Choice of coordinates    CoordSys .... Z-matrix Internals
Initial Hessian          InHess   .... Almoef's Model

Convergence Tolerances:
Energy Change            TolE     ....  5.0000e-06 Eh
Max. Gradient            TolMAXG  ....  3.0000e-04 Eh/bohr
RMS Gradient             TolRMSG  ....  1.0000e-04 Eh/bohr
Max. Displacement        TolMAXD  ....  4.0000e-03 bohr
RMS Displacement         TolRMSD  ....  2.0000e-03 bohr
Strict Convergence                ....  False
------------------------------------------------------------------------------
                        ORCA OPTIMIZATION COORDINATE SETUP
------------------------------------------------------------------------------

The optimization will be done in new redundant internal coordinates
Making redundant internal coordinates   ...  (new redundants) done
Evaluating the initial hessian          ...  (Almloef) done
Evaluating the coordinates              ...  done
Calculating the B-matrix                .... done
Calculating the G-matrix                .... done
Diagonalizing the G-matrix              .... done
Small eigenvalue found = 5.678e-03
Small eigenvalue found = 1.672e-02
The first mode is                       ....   53
The number of degrees of freedom        ....   66

    -----------------------------------------------------------------
                    Redundant Internal Coordinates


    -----------------------------------------------------------------
         Definition                    Initial Value    Approx d2E/dq
    -----------------------------------------------------------------
      1. B(O   1,C   0)                  1.3940         0.551454   
      2. B(O   2,C   0)                  1.3855         0.568952   
      3. B(C   3,C   0)                  1.6006         0.288221   
      4. B(C   4,C   3)                  1.5599         0.334759   
      5. B(C   5,C   4)                  1.5647         0.328824   
      6. B(C   6,C   5)                  1.5667         0.326486   
      7. B(C   7,C   6)                  1.5688         0.323927   
      8. B(C   8,C   7)                  1.5657         0.327637   
      9. B(C   9,C   8)                  1.5632         0.330714   
     10. B(F  10,C   3)                  1.3856         0.528443   
     11. B(F  11,C   3)                  1.3915         0.517117   
     12. B(F  12,C   4)                  1.3570         0.586881   
     13. B(F  13,C   4)                  1.3614         0.577499   
     14. B(F  14,C   5)                  1.3556         0.590092   
     15. B(F  15,C   6)                  1.3547         0.591865   
     16. B(F  16,C   6)                  1.3540         0.593567   
     17. B(F  17,C   7)                  1.3538         0.593973   
     18. B(F  18,C   7)                  1.3544         0.592672   
     19. B(F  19,C   8)                  1.3550         0.591238   
     20. B(F  20,C   8)                  1.3514         0.599114   
     21. B(F  21,C   9)                  1.3406         0.623533   
     22. B(F  22,C   9)                  1.3385         0.628179   
     23. B(F  23,C   9)                  1.3373         0.630929   
     24. A(O   1,C   0,C   3)          111.5249         0.369222   
     25. A(O   1,C   0,O   2)          136.1318         0.413163   
     26. A(O   2,C   0,C   3)          112.3347         0.371210   
     27. A(C   4,C   3,F  10)          107.2033         0.374492   
     28. A(C   0,C   3,C   4)          113.1687         0.341363   
     29. A(C   0,C   3,F  10)          111.8265         0.364982   
     30. A(C   4,C   3,F  11)          107.4072         0.373095   
     31. A(C   0,C   3,F  11)          110.2099         0.363632   
     32. A(F  10,C   3,F  11)          106.7094         0.399684   
     33. A(C   3,C   4,F  12)          110.2926         0.381351   
     34. A(C   3,C   4,C   5)          113.5839         0.349005   
     35. A(F  12,C   4,F  13)          108.2194         0.415201   
     36. A(C   3,C   4,F  13)          108.5818         0.380286   
     37. A(C   5,C   4,F  13)          107.9208         0.379109   
     38. A(C   5,C   4,F  12)          108.0911         0.380169   
     39. A(C   4,C   5,C   6)          113.9128         0.347536   
     40. A(C   4,C   5,F  14)          108.5900         0.380529   
     41. A(C   6,C   5,F  14)          107.7906         0.380059   
     42. A(C   5,C   6,C   7)          113.2023         0.346660   
     43. A(F  15,C   6,F  16)          108.8752         0.417862   
     44. A(C   7,C   6,F  16)          108.2186         0.379927   
     45. A(C   5,C   6,F  16)          109.1523         0.380446   
     46. A(C   7,C   6,F  15)          108.4284         0.379738   
     47. A(C   5,C   6,F  15)          108.8835         0.380256   
     48. A(C   8,C   7,F  18)          108.6915         0.380579   
     49. A(C   6,C   7,F  18)          108.6955         0.379828   
     50. A(C   8,C   7,F  17)          108.1296         0.380723   
     51. A(C   6,C   7,F  17)          109.2524         0.379972   
     52. A(C   6,C   7,C   8)          113.2298         0.346865   
     53. A(F  17,C   7,F  18)          108.7561         0.418014   
     54. A(F  19,C   8,F  20)          108.8987         0.418476   
     55. A(C   7,C   8,C   9)          114.1471         0.348078   
     56. A(C   9,C   8,F  20)          107.7127         0.381912   
     57. A(C   7,C   8,F  20)          109.0521         0.381293   
     58. A(C   9,C   8,F  19)          107.4499         0.381036   
     59. A(C   7,C   8,F  19)          109.4572         0.380419   
     60. A(F  22,C   9,F  23)          108.6464         0.426961   
     61. A(F  21,C   9,F  23)          109.0552         0.426394   
     62. A(C   8,C   9,F  23)          110.9604         0.385362   
     63. A(F  21,C   9,F  22)          108.6877         0.426061   
     64. A(C   8,C   9,F  22)          108.6349         0.385069   
     65. A(C   8,C   9,F  21)          110.7995         0.384572   
     66. D(F  11,C   3,C   0,O   1)    108.6317         0.006601   
     67. D(F  10,C   3,C   0,O   2)    171.0025         0.006601   
     68. D(C   4,C   3,C   0,O   1)   -131.0839         0.006601   
     69. D(F  11,C   3,C   0,O   2)    -70.4768         0.006601   
     70. D(C   4,C   3,C   0,O   2)     49.8076         0.006601   
     71. D(F  10,C   3,C   0,O   1)     -9.8890         0.006601   
     72. D(F  12,C   4,C   3,F  10)    146.3851         0.009100   
     73. D(F  12,C   4,C   3,F  11)     32.0233         0.009100   
     74. D(C   5,C   4,C   3,C   0)    148.6429         0.009100   
     75. D(F  12,C   4,C   3,C   0)    -89.8453         0.009100   
     76. D(F  13,C   4,C   3,C   0)     28.5784         0.009100   
     77. D(C   5,C   4,C   3,F  10)     24.8733         0.009100   
     78. D(F  13,C   4,C   3,F  10)    -95.1911         0.009100   
     79. D(F  13,C   4,C   3,F  11)    150.4470         0.009100   
     80. D(C   5,C   4,C   3,F  11)    -89.4885         0.009100   
     81. D(F  14,C   5,C   4,F  13)    164.2540         0.008276   
     82. D(F  14,C   5,C   4,F  12)    -78.9166         0.008276   
     83. D(F  14,C   5,C   4,C   3)     43.8158         0.008276   
     84. D(C   6,C   5,C   4,F  13)    -75.6292         0.008276   
     85. D(C   6,C   5,C   4,F  12)     41.2001         0.008276   
     86. D(C   6,C   5,C   4,C   3)    163.9326         0.008276   
     87. D(F  15,C   6,C   5,F  14)     44.2190         0.008172   
     88. D(F  15,C   6,C   5,C   4)    -76.3465         0.008172   
     89. D(F  16,C   6,C   5,C   4)     42.3872         0.008172   
     90. D(C   7,C   6,C   5,F  14)    -76.4529         0.008172   
     91. D(C   7,C   6,C   5,C   4)    162.9815         0.008172   
     92. D(F  16,C   6,C   5,F  14)    162.9527         0.008172   
     93. D(F  17,C   7,C   6,C   5)     41.7939         0.008578   
     94. D(C   8,C   7,C   6,F  16)    -76.5134         0.008578   
     95. D(C   8,C   7,C   6,F  15)     41.4341         0.008578   
     96. D(C   8,C   7,C   6,C   5)    162.3638         0.008578   
     97. D(F  18,C   7,C   6,F  16)     44.3783         0.008578   
     98. D(F  18,C   7,C   6,F  15)    162.3257         0.008578   
     99. D(F  18,C   7,C   6,C   5)    -76.7446         0.008578   
    100. D(F  17,C   7,C   6,F  16)    162.9167         0.008578   
    101. D(F  17,C   7,C   6,F  15)    -79.1358         0.008578   
    102. D(F  20,C   8,C   7,F  18)    162.0243         0.008755   
    103. D(F  20,C   8,C   7,F  17)     44.1231         0.008755   
    104. D(F  20,C   8,C   7,C   6)    -77.0818         0.008755   
    105. D(F  19,C   8,C   7,F  18)    -78.9355         0.008755   
    106. D(F  19,C   8,C   7,F  17)    163.1633         0.008755   
    107. D(F  19,C   8,C   7,C   6)     41.9584         0.008755   
    108. D(C   9,C   8,C   7,F  18)     41.5227         0.008755   
    109. D(C   9,C   8,C   7,F  17)    -76.3785         0.008755   
    110. D(C   9,C   8,C   7,C   6)    162.4166         0.008755   
    111. D(F  23,C   9,C   8,F  20)    167.4828         0.008903   
    112. D(F  23,C   9,C   8,F  19)     50.3013         0.008903   
    113. D(F  23,C   9,C   8,C   7)    -71.2711         0.008903   
    114. D(F  22,C   9,C   8,F  20)     48.1091         0.008903   
    115. D(F  22,C   9,C   8,F  19)    -69.0724         0.008903   
    116. D(F  22,C   9,C   8,C   7)    169.3552         0.008903   
    117. D(F  21,C   9,C   8,F  20)    -71.2185         0.008903   
    118. D(F  21,C   9,C   8,F  19)    171.5999         0.008903   
    119. D(F  21,C   9,C   8,C   7)     50.0276         0.008903   
    -----------------------------------------------------------------

Number of atoms                         .... 24
Number of degrees of freedom            .... 119

         *************************************************************
         *                GEOMETRY OPTIMIZATION CYCLE   1            *
         *************************************************************
---------------------------------
CARTESIAN COORDINATES (ANGSTROEM)
---------------------------------
  C      4.790427   -0.033866   -0.529943
  O      5.449345   -1.206924   -0.894595
  O      4.978223    1.323071   -0.737377
  C      3.506688   -0.338742    0.376154
  C      2.222300    0.400525   -0.110682
  C      0.900507   -0.386390    0.175703
  C     -0.395261    0.487294    0.065549
  C     -1.705694   -0.364774   -0.068374
  C     -3.005136    0.445345    0.258164
  C     -4.319880   -0.214526   -0.270541
  F      3.211587   -1.692050    0.412735
  F      3.741062    0.055286    1.689949
  F      2.125697    1.616868    0.483237
  F      2.314152    0.589704   -1.455769
  F      0.958351   -0.884509    1.435093
  F     -0.498373    1.260266    1.173340
  F     -0.299075    1.289513   -1.020911
  F     -1.641790   -1.418189    0.779524
  F     -1.792381   -0.831392   -1.336864
  F     -2.918792    1.679227   -0.295171
  F     -3.119771    0.573780    1.598580
  F     -4.383116   -1.504378    0.089128
  F     -5.365670    0.430529    0.260394
  F     -4.396020   -0.128551   -1.602942

----------------------------
CARTESIAN COORDINATES (A.U.)
----------------------------
  NO LB      ZA    FRAG     MASS         X           Y           Z
   0 C     6.0000    0    12.011    9.052595   -0.063997   -1.001448
   1 O     8.0000    0    15.999   10.297770   -2.280756   -1.690539
   2 O     8.0000    0    15.999    9.407478    2.500242   -1.393441
   3 C     6.0000    0    12.011    6.626679   -0.640129    0.710828
   4 C     6.0000    0    12.011    4.199538    0.756882   -0.209158
   5 C     6.0000    0    12.011    1.701711   -0.730171    0.332031
   6 C     6.0000    0    12.011   -0.746935    0.920852    0.123870
   7 C     6.0000    0    12.011   -3.223294   -0.689323   -0.129207
   8 C     6.0000    0    12.011   -5.678884    0.841580    0.487859
   9 C     6.0000    0    12.011   -8.163391   -0.405395   -0.511248
  10 F     9.0000    0    18.998    6.069021   -3.197512    0.779956
  11 F     9.0000    0    18.998    7.069582    0.104475    3.193540
  12 F     9.0000    0    18.998    4.016985    3.055437    0.913185
  13 F     9.0000    0    18.998    4.373114    1.114379   -2.751005
  14 F     9.0000    0    18.998    1.811020   -1.671480    2.711934
  15 F     9.0000    0    18.998   -0.941789    2.381557    2.217292
  16 F     9.0000    0    18.998   -0.565170    2.436826   -1.929242
  17 F     9.0000    0    18.998   -3.102534   -2.679989    1.473086
  18 F     9.0000    0    18.998   -3.387110   -1.571102   -2.526306
  19 F     9.0000    0    18.998   -5.515718    3.173280   -0.557793
  20 F     9.0000    0    18.998   -5.895513    1.084287    3.020878
  21 F     9.0000    0    18.998   -8.282888   -2.842862    0.168427
  22 F     9.0000    0    18.998  -10.139646    0.813581    0.492074
  23 F     9.0000    0    18.998   -8.307275   -0.242925   -3.029121

--------------------------------
INTERNAL COORDINATES (ANGSTROEM)
--------------------------------
 C      0   0   0     0.000000000000     0.00000000     0.00000000
 O      1   0   0     1.393990356793     0.00000000     0.00000000
 O      1   2   0     1.385486802956   136.13177198     0.00000000
 C      1   2   3     1.600608594862   111.52489317   181.18992567
 C      4   1   2     1.559863783763   113.16872737   228.91614990
 C      5   4   1     1.564732561934   113.58394786   148.64287440
 C      6   5   4     1.566675459667   113.91280616   163.93256239
 C      7   6   5     1.568817348692   113.20226571   162.98152714
 C      8   7   6     1.565717094808   113.22984595   162.36375422
 C      9   8   7     1.563173062643   114.14707705   162.41661495
 F      4   1   2     1.385592665621   111.82651119   350.11101305
 F      4   1   2     1.391490625050   110.20991618   108.63170802
 F      5   4   1     1.357041377479   110.29260564   270.15468021
 F      5   4   1     1.361428031433   108.58179722    28.57841973
 F      6   5   4     1.355556277776   108.59004089    43.81583148
 F      7   6   5     1.354739297058   108.88346185   283.65347401
 F      7   6   5     1.353957667090   109.15230848    42.38718856
 F      8   7   6     1.353771473879   109.25240264    41.79387651
 F      8   7   6     1.354368423305   108.69554158   283.25540020
 F      9   8   7     1.355028009646   109.45719767    41.95842364
 F      9   8   7     1.351425618925   109.05210362   282.91820052
 F     10   9   8     1.340551089588   110.79953142    50.02756898
 F     10   9   8     1.338530275591   108.63493714   169.35523750
 F     10   9   8     1.337341214598   110.96044107   288.72891896

---------------------------
INTERNAL COORDINATES (A.U.)
---------------------------
 C      0   0   0     0.000000000000     0.00000000     0.00000000
 O      1   0   0     2.634260007667     0.00000000     0.00000000
 O      1   2   0     2.618190619750   136.13177198     0.00000000
 C      1   2   3     3.024711891890   111.52489317   181.18992567
 C      4   1   2     2.947715357535   113.16872737   228.91614990
 C      5   4   1     2.956916014884   113.58394786   148.64287440
 C      6   5   4     2.960587559506   113.91280616   163.93256239
 C      7   6   5     2.964635143173   113.20226571   162.98152714
 C      8   7   6     2.958776512386   113.22984595   162.36375422
 C      9   8   7     2.953968988318   114.14707705   162.41661495
 F      4   1   2     2.618390671194   111.82651119   350.11101305
 F      4   1   2     2.629536199263   110.20991618   108.63170802
 F      5   4   1     2.564436555835   110.29260564   270.15468021
 F      5   4   1     2.572726130452   108.58179722    28.57841973
 F      6   5   4     2.561630124115   108.59004089    43.81583148
 F      7   6   5     2.560086254300   108.88346185   283.65347401
 F      7   6   5     2.558609187723   109.15230848    42.38718856
 F      8   7   6     2.558257333546   109.25240264    41.79387651
 F      8   7   6     2.559385404477   108.69554158   283.25540020
 F      9   8   7     2.560631842023   109.45719767    41.95842364
 F      9   8   7     2.553824310132   109.05210362   282.91820052
 F     10   9   8     2.533274427850   110.79953142    50.02756898
 F     10   9   8     2.529455642830   108.63493714   169.35523750
 F     10   9   8     2.527208643196   110.96044107   288.72891896

---------------------
BASIS SET INFORMATION
---------------------
There are 3 groups of distinct atoms

 Group   1 Type C   : 11s6p2d1f contracted to 5s3p2d1f pattern {62111/411/11/1}
 Group   2 Type O   : 11s6p2d1f contracted to 5s3p2d1f pattern {62111/411/11/1}
 Group   3 Type F   : 11s6p2d1f contracted to 5s3p2d1f pattern {62111/411/11/1}

Atom   0C    basis set group =>   1
Atom   1O    basis set group =>   2
Atom   2O    basis set group =>   2
Atom   3C    basis set group =>   1
Atom   4C    basis set group =>   1
Atom   5C    basis set group =>   1
Atom   6C    basis set group =>   1
Atom   7C    basis set group =>   1
Atom   8C    basis set group =>   1
Atom   9C    basis set group =>   1
Atom  10F    basis set group =>   3
Atom  11F    basis set group =>   3
Atom  12F    basis set group =>   3
Atom  13F    basis set group =>   3
Atom  14F    basis set group =>   3
Atom  15F    basis set group =>   3
Atom  16F    basis set group =>   3
Atom  17F    basis set group =>   3
Atom  18F    basis set group =>   3
Atom  19F    basis set group =>   3
Atom  20F    basis set group =>   3
Atom  21F    basis set group =>   3
Atom  22F    basis set group =>   3
Atom  23F    basis set group =>   3
---------------------------------
AUXILIARY/J BASIS SET INFORMATION
---------------------------------
There are 3 groups of distinct atoms

 Group   1 Type C   : 12s5p4d2f1g contracted to 6s4p3d1f1g pattern {711111/2111/211/2/1}
 Group   2 Type O   : 12s5p4d2f1g contracted to 6s4p3d1f1g pattern {711111/2111/211/2/1}
 Group   3 Type F   : 12s5p4d2f1g contracted to 6s4p3d1f1g pattern {711111/2111/211/2/1}

Atom   0C    basis set group =>   1
Atom   1O    basis set group =>   2
Atom   2O    basis set group =>   2
Atom   3C    basis set group =>   1
Atom   4C    basis set group =>   1
Atom   5C    basis set group =>   1
Atom   6C    basis set group =>   1
Atom   7C    basis set group =>   1
Atom   8C    basis set group =>   1
Atom   9C    basis set group =>   1
Atom  10F    basis set group =>   3
Atom  11F    basis set group =>   3
Atom  12F    basis set group =>   3
Atom  13F    basis set group =>   3
Atom  14F    basis set group =>   3
Atom  15F    basis set group =>   3
Atom  16F    basis set group =>   3
Atom  17F    basis set group =>   3
Atom  18F    basis set group =>   3
Atom  19F    basis set group =>   3
Atom  20F    basis set group =>   3
Atom  21F    basis set group =>   3
Atom  22F    basis set group =>   3
Atom  23F    basis set group =>   3


           ************************************************************
           *        Program running with 20 parallel MPI-processes    *
           *              working on a common directory               *
           ************************************************************
------------------------------------------------------------------------------
                           ORCA GTO INTEGRAL CALCULATION
                           -- RI-GTO INTEGRALS CHOSEN --
------------------------------------------------------------------------------
------------------------------------------------------------------------------
                   ___                                                        
                  /   \      - P O W E R E D   B Y -                         
                 /     \                                                     
                 |  |  |   _    _      __       _____    __    __             
                 |  |  |  | |  | |    /  \     |  _  \  |  |  /  |          
                  \  \/   | |  | |   /    \    | | | |  |  | /  /          
                 / \  \   | |__| |  /  /\  \   | |_| |  |  |/  /          
                |  |  |   |  __  | /  /__\  \  |    /   |      \           
                |  |  |   | |  | | |   __   |  |    \   |  |\   \          
                \     /   | |  | | |  |  |  |  | |\  \  |  | \   \       
                 \___/    |_|  |_| |__|  |__|  |_| \__\ |__|  \__/        
                                                                              
                      - O R C A' S   B I G   F R I E N D -                    
                                      &                                       
                       - I N T E G R A L  F E E D E R -                       
                                                                              
 v1 FN, 2020, v2 2021                                                         
------------------------------------------------------------------------------


Reading SHARK input file rf_mecn_opt_TPS_C4_D_B.SHARKINP.tmp ... ok
----------------------
SHARK INTEGRAL PACKAGE
----------------------

Number of atoms                             ...     24
Number of basis functions                   ...    744
Number of shells                            ...    264
Maximum angular momentum                    ...      3
Integral batch strategy                     ... SHARK/LIBINT Hybrid
RI-J (if used) integral strategy            ... SPLIT-RIJ (Revised 2003 algorithm where possible)
Printlevel                                  ...      1
Contraction scheme used                     ... SEGMENTED contraction
Coulomb Range Separation                    ... NOT USED
Exchange Range Separation                   ... NOT USED
Finite Nucleus Model                        ... NOT USED
Auxiliary Coulomb fitting basis             ... AVAILABLE
   # of basis functions in Aux-J            ...   1176
   # of shells in Aux-J                     ...    360
   Maximum angular momentum in Aux-J        ...      4
Auxiliary J/K fitting basis                 ... NOT available
Auxiliary Correlation fitting basis         ... NOT available
Auxiliary 'external' fitting basis          ... NOT available
Integral threshold                          ...     2.500000e-11
Primitive cut-off                           ...     2.500000e-12
Primitive pair pre-selection threshold      ...     2.500000e-12

Calculating pre-screening integrals         ... done (  0.1 sec) Dimension = 264
Organizing shell pair data                  ... done (  0.3 sec)
Shell pair information
Total number of shell pairs                 ...     34980
Shell pairs after pre-screening             ...     21379
Total number of primitive shell pairs       ...    115968
Primitive shell pairs kept                  ...     45535
          la=0 lb=0:   3992 shell pairs
          la=1 lb=0:   5808 shell pairs
          la=1 lb=1:   2038 shell pairs
          la=2 lb=0:   3180 shell pairs
          la=2 lb=1:   2358 shell pairs
          la=2 lb=2:    668 shell pairs
          la=3 lb=0:   1442 shell pairs
          la=3 lb=1:   1133 shell pairs
          la=3 lb=2:    613 shell pairs
          la=3 lb=3:    147 shell pairs

Calculating one electron integrals          ... done (  0.0 sec)
Calculating RI/J V-Matrix + Cholesky decomp.... done (  0.1 sec)
Calculating Nuclear repulsion               ... done (  0.0 sec) ENN=   2589.580242709824 Eh

SHARK setup successfully completed in   0.9 seconds

Maximum memory used throughout the entire GTOINT-calculation: 38.2 MB


           ************************************************************
           *        Program running with 20 parallel MPI-processes    *
           *              working on a common directory               *
           ************************************************************
-------------------------------------------------------------------------------
                                 ORCA SCF
-------------------------------------------------------------------------------

------------
SCF SETTINGS
------------
Hamiltonian:
 Density Functional     Method          .... DFT(GTOs)
 Exchange Functional    Exchange        .... TPSS
 Correlation Functional Correlation     .... TPSS
 LDA part of GGA corr.  LDAOpt          .... PW91-LDA
 Gradients option       PostSCFGGA      .... off
 Hybrid DFT is turned on
   Fraction HF Exchange ScalHFX         ....  0.100000
   Scaling of DF-GGA-X  ScalDFX         ....  0.900000
   Scaling of DF-GGA-C  ScalDFC         ....  1.000000
   Scaling of DF-LDA-C  ScalLDAC        ....  1.000000
   Perturbative correction              ....  0.000000
   Density functional embedding theory  .... OFF
   NL short-range parameter             ....  5.200000
 RI-approximation to the Coulomb term is turned on
   Number of AuxJ basis functions       .... 1176
   RIJ-COSX (HFX calculated with COS-X)).... on


General Settings:
 Integral files         IntName         .... rf_mecn_opt_TPS_C4_D_B
 Hartree-Fock type      HFTyp           .... UHF
 Total Charge           Charge          ....   -1
 Multiplicity           Mult            ....    2
 Number of Electrons    NEL             ....  191
 Basis Dimension        Dim             ....  744
 Nuclear Repulsion      ENuc            ....   2589.5802427098 Eh

Convergence Acceleration:
 DIIS                   CNVDIIS         .... on
   Start iteration      DIISMaxIt       ....     0
   Startup error        DIISStart       ....  0.200000
   # of expansion vecs  DIISMaxEq       ....     5
   Bias factor          DIISBfac        ....   1.050
   Max. coefficient     DIISMaxC        ....  10.000
 Trust-Rad. Augm. Hess. CNVTRAH         .... auto
   Auto Start mean grad. ratio tolernc. ....  1.125000
   Auto Start start iteration           ....    20
   Auto Start num. interpolation iter.  ....    10
   Max. Number of Micro iterations      ....    16
   Max. Number of Macro iterations      .... Maxiter - #DIIS iter
   Number of Davidson start vectors     ....     2
   Converg. threshold I  (grad. norm)   ....   1.000e-05
   Converg. threshold II (energy diff.) ....   1.000e-08
   Grad. Scal. Fac. for Micro threshold ....   0.100
   Minimum threshold for Micro iter.    ....   0.010
   NR start threshold (gradient norm)   ....   0.001
   Initial trust radius                 ....   0.400
   Minimum AH scaling param. (alpha)    ....   1.000
   Maximum AH scaling param. (alpha)    .... 1000.000
   Orbital update algorithm             .... Taylor
   White noise on init. David. guess    .... on
   Maximum white noise                  ....   0.010
   Quad. conv. algorithm                .... NR
 SOSCF                  CNVSOSCF        .... off
 Level Shifting         CNVShift        .... on
   Level shift para.    LevelShift      ....    0.2500
   Turn off err/grad.   ShiftErr        ....    0.0000
 Zerner damping         CNVZerner       .... off
 Static damping         CNVDamp         .... on
   Fraction old density DampFac         ....    0.8500
   Max. Damping (<1)    DampMax         ....    0.9800
   Min. Damping (>=0)   DampMin         ....    0.0000
   Turn off err/grad.   DampErr         ....    0.0300
 Fernandez-Rico         CNVRico         .... off

SCF Procedure:
 Maximum # iterations   MaxIter         ....  1500
 SCF integral mode      SCFMode         .... Direct
   Integral package                     .... SHARK and LIBINT hybrid scheme
 Reset frequency        DirectResetFreq ....    20
 Integral Threshold     Thresh          ....  2.500e-11 Eh
 Primitive CutOff       TCut            ....  2.500e-12 Eh

Convergence Tolerance:
 Convergence Check Mode ConvCheckMode   .... Total+1el-Energy
 Convergence forced     ConvForced      .... 0
 Energy Change          TolE            ....  1.000e-08 Eh
 1-El. energy change                    ....  1.000e-05 Eh
 DIIS Error             TolErr          ....  5.000e-07


Diagonalization of the overlap matrix:
Smallest eigenvalue                        ... 6.676e-05
Time for diagonalization                   ...    0.137 sec
Threshold for overlap eigenvalues          ... 1.000e-08
Number of eigenvalues below threshold      ... 0
Time for construction of square roots      ...    0.100 sec
Total time needed                          ...    0.240 sec

Time for model grid setup =    0.269 sec

------------------------------
INITIAL GUESS: MODEL POTENTIAL
------------------------------
Loading Hartree-Fock densities                     ... done
Calculating cut-offs                               ... done
Initializing the effective Hamiltonian             ... done
Setting up the integral package (SHARK)            ... done
Starting the Coulomb interaction                   ... done (   0.2 sec)
Reading the grid                                   ... done
Mapping shells                                     ... done
Starting the XC term evaluation                    ... done (   0.2 sec)
  promolecular density results
     # of electrons  =    190.000210576
     EX              =   -197.018144900
     EC              =     -6.647580427
     EX+EC           =   -203.665725327
Transforming the Hamiltonian                       ... done (   0.1 sec)
Diagonalizing the Hamiltonian                      ... done (   0.1 sec)
Back transforming the eigenvectors                 ... done (   0.0 sec)
Now organizing SCF variables                       ... done
                      ------------------
                      INITIAL GUESS DONE (   1.0 sec)
                      ------------------
-------------------
DFT GRID GENERATION
-------------------

General Integration Accuracy     IntAcc      ... 4.388
Radial Grid Type                 RadialGrid  ... OptM3 with GC (2021)
Angular Grid (max. ang.)         AngularGrid ... 4 (Lebedev-302)
Angular grid pruning method      GridPruning ... 4 (adaptive)
Weight generation scheme         WeightScheme... Becke
Basis function cutoff            BFCut       ... 1.0000e-11
Integration weight cutoff        WCut        ... 1.0000e-14
Angular grids for H and He will be reduced by one unit
Partially contracted basis set               ... off
Rotationally invariant grid construction     ... off

Total number of grid points                  ...   145515
Total number of batches                      ...     2285
Average number of points per batch           ...       63
Average number of grid points per atom       ...     6063
Time for grid setup =    0.935 sec

--------------------
COSX GRID GENERATION
--------------------

GRIDX 1
-------
General Integration Accuracy     IntAcc      ... 3.816
Radial Grid Type                 RadialGrid  ... OptM3 with GC (2021)
Angular Grid (max. ang.)         AngularGrid ... 1 (Lebedev-50)
Angular grid pruning method      GridPruning ... 4 (adaptive)
Weight generation scheme         WeightScheme... Becke
Basis function cutoff            BFCut       ... 1.0000e-11
Integration weight cutoff        WCut        ... 1.0000e-14
Angular grids for H and He will be reduced by one unit
Partially contracted basis set               ... on
Rotationally invariant grid construction     ... off

Total number of grid points                  ...    18283
Total number of batches                      ...      300
Average number of points per batch           ...       60
Average number of grid points per atom       ...      762
UseSFitting                                  ... on

GRIDX 2
-------
General Integration Accuracy     IntAcc      ... 4.020
Radial Grid Type                 RadialGrid  ... OptM3 with GC (2021)
Angular Grid (max. ang.)         AngularGrid ... 2 (Lebedev-110)
Angular grid pruning method      GridPruning ... 4 (adaptive)
Weight generation scheme         WeightScheme... Becke
Basis function cutoff            BFCut       ... 1.0000e-11
Integration weight cutoff        WCut        ... 1.0000e-14
Angular grids for H and He will be reduced by one unit
Partially contracted basis set               ... on
Rotationally invariant grid construction     ... off

Total number of grid points                  ...    43391
Total number of batches                      ...      692
Average number of points per batch           ...       62
Average number of grid points per atom       ...     1808
UseSFitting                                  ... on

GRIDX 3
-------
General Integration Accuracy     IntAcc      ... 4.338
Radial Grid Type                 RadialGrid  ... OptM3 with GC (2021)
Angular Grid (max. ang.)         AngularGrid ... 3 (Lebedev-194)
Angular grid pruning method      GridPruning ... 4 (adaptive)
Weight generation scheme         WeightScheme... Becke
Basis function cutoff            BFCut       ... 1.0000e-11
Integration weight cutoff        WCut        ... 1.0000e-14
Angular grids for H and He will be reduced by one unit
Partially contracted basis set               ... on
Rotationally invariant grid construction     ... off

Total number of grid points                  ...    96141
Total number of batches                      ...     1512
Average number of points per batch           ...       63
Average number of grid points per atom       ...     4006
UseSFitting                                  ... on

Time for X-Grid setup             =    1.987 sec


--------------------
CPCM SOLVATION MODEL
--------------------
CPCM parameters:
  Epsilon                                         ...      35.6880
  Refrac                                          ...       1.3442
  Rsolv                                           ...       1.3000
  Surface type                                    ... GAUSSIAN VDW
  Epsilon function type                           ...         CPCM
Solvent:                                     ... ACETONITRILE
SMD-CDS solvent descriptors:
  Soln                                       ...    1.3442
  Soln25                                     ...    1.3416
  Sola                                       ...    0.0700
  Solb                                       ...    0.3200
  Solg                                       ...   41.2500
  Solc                                       ...    0.0000
  Solh                                       ...    0.0000
Radii:
 Radius for C  used is    3.4960 Bohr (=   1.8500 Ang.)
 Radius for O  used is    4.0969 Bohr (=   2.1680 Ang.)
 Radius for F  used is    3.2692 Bohr (=   1.7300 Ang.)
Calculating surface                               ...        done! (  0.0s)
GEPOL surface points                              ...         1273
GEPOL Volume                                      ...    2153.0148
GEPOL Surface-area                                ...    1121.9146
Calculating surface distance matrix               ...        done! (  0.0s)
Performing Cholesky decomposition & store         ...        done! (  0.1s)
Overall time for CPCM initialization              ...                 0.1s
--------------
SCF ITERATIONS
--------------
ITER       Energy         Delta-E        Max-DP      RMS-DP      [F,P]     Damp
               ***  Starting incremental Fock matrix formation  ***
  0  -1853.4084789491   0.000000000000 0.03705659  0.00018549  0.1563310 0.8500
  1  -1853.5611944621  -0.152715513074 0.05789721  0.00020990  0.1024348 0.8500
                               ***Turning on DIIS***
  2  -1853.6377671348  -0.076572672634 0.04411631  0.00015353  0.0576919 0.8500
  3  -1853.6783886179  -0.040621483157 0.11415508  0.00048240  0.0293624 0.0000
  4  -1853.8472075154  -0.168818897424 0.01208964  0.00003731  0.0342893 0.8500
  5  -1853.8522756055  -0.005068090195 0.10149229  0.00031152  0.0292703 0.0000
  6  -1853.8698302230  -0.017554617447 0.01228661  0.00005039  0.0080956 0.0000
  7  -1853.8707515253  -0.000921302297 0.00179184  0.00001293  0.0022890 0.0000
  8  -1853.8708258748  -0.000074349538 0.00069480  0.00000623  0.0024032 0.0000
  9  -1853.8708720693  -0.000046194432 0.00064464  0.00000362  0.0004419 0.0000
               *** Restarting incremental Fock matrix formation ***
                                   *** Resetting DIIS ***
 10  -1853.8708861180  -0.000014048714 0.00033874  0.00000260  0.0002848 0.0000
 11  -1853.8708900152  -0.000003897194 0.00020252  0.00000154  0.0004597 0.0000
 12  -1853.8708936585  -0.000003643319 0.00016074  0.00000132  0.0001571 0.0000
 13  -1853.8708952378  -0.000001579307 0.00011484  0.00000095  0.0001259 0.0000
 14  -1853.8708961885  -0.000000950712 0.00009515  0.00000071  0.0000969 0.0000
 15  -1853.8708967477  -0.000000559179 0.00006593  0.00000053  0.0000768 0.0000
 16  -1853.8708970548  -0.000000307133 0.00006159  0.00000043  0.0000599 0.0000
 17  -1853.8708972253  -0.000000170506 0.00004803  0.00000034  0.0000469 0.0000
 18  -1853.8708973425  -0.000000117210 0.00003667  0.00000026  0.0000362 0.0000
 19  -1853.8708974177  -0.000000075165 0.00002802  0.00000021  0.0000278 0.0000
 20  -1853.8708974455  -0.000000027817 0.00002412  0.00000017  0.0000213 0.0000
 21  -1853.8708974753  -0.000000029815 0.00001944  0.00000013  0.0000161 0.0000
 22  -1853.8708974758  -0.000000000420 0.00001543  0.00000011  0.0000125 0.0000
 23  -1853.8708974579   0.000000017809 0.00001156  0.00000008  0.0000094 0.0000
 24  -1853.8708974438   0.000000014174 0.00000914  0.00000008  0.0000072 0.0000
 25  -1853.8708974875  -0.000000043744 0.00001236  0.00000007  0.0000056 0.0000
 26  -1853.8708974816   0.000000005864 0.00000795  0.00000006  0.0000042 0.0000
 27  -1853.8708974312   0.000000050423 0.00001067  0.00000006  0.0000032 0.0000
 28  -1853.8708974714  -0.000000040199 0.00000403  0.00000003  0.0000024 0.0000
 29  -1853.8708974402   0.000000031174 0.00004105  0.00000026  0.0000019 0.0000
               *** Restarting incremental Fock matrix formation ***
                                   *** Resetting DIIS ***
 30  -1853.8708974561  -0.000000015851 0.00001296  0.00000010  0.0000014 0.0000
 31  -1853.8708974427   0.000000013434 0.00000327  0.00000002  0.0000017 0.0000
                            ***DIIS convergence achieved***

               *****************************************************
               *                     SUCCESS                       *
               *           SCF CONVERGED AFTER  32 CYCLES          *
               *****************************************************

Old exchange energy                            =    -19.871720033 Eh
New exchange energy                            =    -19.871732015 Eh
Exchange energy change after final integration =     -0.000011982 Eh
Total energy after final integration           =  -1853.870909452 Eh
Final COS-X integration done in                =    10.362 sec

SMD CDS free energy correction energy :                 3.60969     Kcal/mol
Total Energy after SMD CDS correction =             -1853.865157044 Eh

----------------
TOTAL SCF ENERGY
----------------

Total Energy       :        -1853.86515704 Eh          -50446.23556 eV

Components:
Nuclear Repulsion  :         2589.58024271 Eh           70466.06083 eV
Electronic Energy  :        -4443.44539975 Eh         -120912.29639 eV
One Electron Energy:        -7753.62607069 Eh         -210986.89175 eV
Two Electron Energy:         3310.18067094 Eh           90074.59536 eV
Max COSX asymmetry :            0.00000025 Eh               0.00001 eV
CPCM Dielectric    :           -0.08335074 Eh              -2.26809 eV
SMD CDS (Gcds)     :            0.00575241 Eh               0.15653 eV

Virial components:
Potential Energy   :        -3700.47844529 Eh         -100695.13774 eV
Kinetic Energy     :         1846.61328824 Eh           50248.90218 eV
Virial Ratio       :            2.00392712


DFT components:
N(Alpha)           :       95.999970738776 electrons
N(Beta)            :       94.999968757000 electrons
N(Total)           :      190.999939495776 electrons
E(X)               :     -180.647370653680 Eh       
E(C)               :       -6.696101814910 Eh       
E(XC)              :     -187.343472468589 Eh       
DFET-embed. en.    :        0.000000000000 Eh       
CPCM Solvation Model Properties:
Surface-charge          :            0.98984413
Charge-correction       :           -0.00104516 Eh              -0.02844 eV
Free-energy (cav+disp)  :            0.00575241 Eh               0.15653 eV

---------------
SCF CONVERGENCE
---------------

  Last Energy change         ...   -2.7844e-08  Tolerance :   1.0000e-08
  Last MAX-Density change    ...    0.0000e+00  Tolerance :   1.0000e-07
  Last RMS-Density change    ...    0.0000e+00  Tolerance :   5.0000e-09
  Last DIIS Error            ...    8.7149e-07  Tolerance :   5.0000e-07

             **** THE GBW FILE WAS UPDATED (rf_mecn_opt_TPS_C4_D_B.gbw) ****
             **** DENSITY rf_mecn_opt_TPS_C4_D_B.scfp WAS UPDATED ****
             **** ENERGY FILE WAS UPDATED (rf_mecn_opt_TPS_C4_D_B.en.tmp) ****
----------------------
UHF SPIN CONTAMINATION
----------------------

Warning: in a DFT calculation there is little theoretical justification to 
         calculate <S**2> as in Hartree-Fock theory. We will do it anyways
         but you should keep in mind that the values have only limited relevance

Expectation value of <S**2>     :     0.753901
Ideal value S*(S+1) for S=0.5   :     0.750000
Deviation                       :     0.003901

             **** THE GBW FILE WAS UPDATED (rf_mecn_opt_TPS_C4_D_B.gbw) ****
             **** DENSITY rf_mecn_opt_TPS_C4_D_B.scfp WAS UPDATED ****
----------------
ORBITAL ENERGIES
----------------
                 SPIN UP ORBITALS
  NO   OCC          E(Eh)            E(eV) 
   0   1.0000     -24.660164      -671.0372 
   1   1.0000     -24.659355      -671.0152 
   2   1.0000     -24.658634      -670.9955 
   3   1.0000     -24.658150      -670.9824 
   4   1.0000     -24.657429      -670.9628 
   5   1.0000     -24.657331      -670.9601 
   6   1.0000     -24.656529      -670.9383 
   7   1.0000     -24.654068      -670.8713 
   8   1.0000     -24.652849      -670.8381 
   9   1.0000     -24.650889      -670.7848 
  10   1.0000     -24.638667      -670.4522 
  11   1.0000     -24.630708      -670.2356 
  12   1.0000     -24.617922      -669.8877 
  13   1.0000     -24.616116      -669.8386 
  14   1.0000     -19.011891      -517.3399 
  15   1.0000     -19.009904      -517.2858 
  16   1.0000     -10.395076      -282.8644 
  17   1.0000     -10.341830      -281.4155 
  18   1.0000     -10.339793      -281.3601 
  19   1.0000     -10.337849      -281.3072 
  20   1.0000     -10.318046      -280.7683 
  21   1.0000     -10.293894      -280.1111 
  22   1.0000     -10.268454      -279.4188 
  23   1.0000     -10.227484      -278.3040 
  24   1.0000      -1.319519       -35.9059 
  25   1.0000      -1.291777       -35.1510 
  26   1.0000      -1.275881       -34.7185 
  27   1.0000      -1.271803       -34.6075 
  28   1.0000      -1.259670       -34.2774 
  29   1.0000      -1.242251       -33.8034 
  30   1.0000      -1.234869       -33.6025 
  31   1.0000      -1.229831       -33.4654 
  32   1.0000      -1.226444       -33.3732 
  33   1.0000      -1.224834       -33.3294 
  34   1.0000      -1.219644       -33.1882 
  35   1.0000      -1.215933       -33.0872 
  36   1.0000      -1.200800       -32.6754 
  37   1.0000      -1.174088       -31.9486 
  38   1.0000      -0.934533       -25.4299 
  39   1.0000      -0.876527       -23.8515 
  40   1.0000      -0.820078       -22.3155 
  41   1.0000      -0.798864       -21.7382 
  42   1.0000      -0.765417       -20.8280 
  43   1.0000      -0.729018       -19.8376 
  44   1.0000      -0.684708       -18.6319 
  45   1.0000      -0.657824       -17.9003 
  46   1.0000      -0.633169       -17.2294 
  47   1.0000      -0.616515       -16.7762 
  48   1.0000      -0.614057       -16.7093 
  49   1.0000      -0.607544       -16.5321 
  50   1.0000      -0.591875       -16.1057 
  51   1.0000      -0.588872       -16.0240 
  52   1.0000      -0.586385       -15.9564 
  53   1.0000      -0.575771       -15.6675 
  54   1.0000      -0.570444       -15.5226 
  55   1.0000      -0.564317       -15.3559 
  56   1.0000      -0.559490       -15.2245 
  57   1.0000      -0.550584       -14.9822 
  58   1.0000      -0.541543       -14.7361 
  59   1.0000      -0.532115       -14.4796 
  60   1.0000      -0.521709       -14.1964 
  61   1.0000      -0.489122       -13.3097 
  62   1.0000      -0.483309       -13.1515 
  63   1.0000      -0.476911       -12.9774 
  64   1.0000      -0.473472       -12.8838 
  65   1.0000      -0.468267       -12.7422 
  66   1.0000      -0.467436       -12.7196 
  67   1.0000      -0.459005       -12.4902 
  68   1.0000      -0.455166       -12.3857 
  69   1.0000      -0.448251       -12.1975 
  70   1.0000      -0.445819       -12.1314 
  71   1.0000      -0.440435       -11.9848 
  72   1.0000      -0.434086       -11.8121 
  73   1.0000      -0.433254       -11.7894 
  74   1.0000      -0.432675       -11.7737 
  75   1.0000      -0.429391       -11.6843 
  76   1.0000      -0.423937       -11.5359 
  77   1.0000      -0.422133       -11.4868 
  78   1.0000      -0.419964       -11.4278 
  79   1.0000      -0.416463       -11.3325 
  80   1.0000      -0.413113       -11.2414 
  81   1.0000      -0.411459       -11.1964 
  82   1.0000      -0.409348       -11.1389 
  83   1.0000      -0.401520       -10.9259 
  84   1.0000      -0.396821       -10.7980 
  85   1.0000      -0.386683       -10.5222 
  86   1.0000      -0.384723       -10.4688 
  87   1.0000      -0.371608       -10.1120 
  88   1.0000      -0.363395        -9.8885 
  89   1.0000      -0.345482        -9.4011 
  90   1.0000      -0.326635        -8.8882 
  91   1.0000      -0.319287        -8.6882 
  92   1.0000      -0.278036        -7.5658 
  93   1.0000      -0.230276        -6.2661 
  94   1.0000      -0.222773        -6.0620 
  95   1.0000      -0.219914        -5.9842 
  96   0.0000      -0.030483        -0.8295 
  97   0.0000      -0.008526        -0.2320 
  98   0.0000       0.004015         0.1092 
  99   0.0000       0.030095         0.8189 
 100   0.0000       0.052966         1.4413 
 101   0.0000       0.074431         2.0254 
 102   0.0000       0.090252         2.4559 
 103   0.0000       0.097263         2.6467 
 104   0.0000       0.101083         2.7506 
 105   0.0000       0.116128         3.1600 
 106   0.0000       0.125211         3.4072 
 107   0.0000       0.139375         3.7926 
 108   0.0000       0.140876         3.8334 
 109   0.0000       0.148256         4.0343 
 110   0.0000       0.158509         4.3132 
 111   0.0000       0.171874         4.6769 
 112   0.0000       0.185035         5.0351 
 113   0.0000       0.194692         5.2978 
 114   0.0000       0.198534         5.4024 
 115   0.0000       0.200343         5.4516 
 116   0.0000       0.204168         5.5557 
 117   0.0000       0.206451         5.6178 
 118   0.0000       0.211638         5.7590 
 119   0.0000       0.218790         5.9536 
 120   0.0000       0.223202         6.0736 
 121   0.0000       0.224677         6.1138 
 122   0.0000       0.229523         6.2456 
 123   0.0000       0.237350         6.4586 
 124   0.0000       0.240279         6.5383 
 125   0.0000       0.243377         6.6226 
 126   0.0000       0.252064         6.8590 
 127   0.0000       0.254810         6.9337 
 128   0.0000       0.264572         7.1994 
 129   0.0000       0.274664         7.4740 
 130   0.0000       0.283553         7.7159 
 131   0.0000       0.293179         7.9778 
 132   0.0000       0.295365         8.0373 
 133   0.0000       0.295710         8.0467 
 134   0.0000       0.307435         8.3657 
 135   0.0000       0.313095         8.5197 
 136   0.0000       0.319436         8.6923 
 137   0.0000       0.328269         8.9327 
 138   0.0000       0.335865         9.1393 
 139   0.0000       0.342565         9.3217 
 140   0.0000       0.343324         9.3423 
 141   0.0000       0.349003         9.4969 
 142   0.0000       0.376331        10.2405 
 143   0.0000       0.386491        10.5169 
 144   0.0000       0.400193        10.8898 
 145   0.0000       0.416840        11.3428 
 146   0.0000       0.417539        11.3618 
 147   0.0000       0.429434        11.6855 
 148   0.0000       0.432510        11.7692 
 149   0.0000       0.438217        11.9245 
 150   0.0000       0.446669        12.1545 
 151   0.0000       0.452088        12.3019 
 152   0.0000       0.463001        12.5989 
 153   0.0000       0.468123        12.7383 
 154   0.0000       0.468544        12.7497 
 155   0.0000       0.483639        13.1605 
 156   0.0000       0.493427        13.4268 
 157   0.0000       0.498232        13.5576 
 158   0.0000       0.505109        13.7447 
 159   0.0000       0.517357        14.0780 
 160   0.0000       0.524491        14.2721 
 161   0.0000       0.533111        14.5067 
 162   0.0000       0.536286        14.5931 
 163   0.0000       0.538403        14.6507 
 164   0.0000       0.546721        14.8770 
 165   0.0000       0.561655        15.2834 
 166   0.0000       0.577126        15.7044 
 167   0.0000       0.589853        16.0507 
 168   0.0000       0.597188        16.2503 
 169   0.0000       0.615959        16.7611 
 170   0.0000       0.620958        16.8971 
 171   0.0000       0.627588        17.0775 
 172   0.0000       0.645114        17.5544 
 173   0.0000       0.648403        17.6439 
 174   0.0000       0.657140        17.8817 
 175   0.0000       0.663856        18.0644 
 176   0.0000       0.670401        18.2425 
 177   0.0000       0.678688        18.4680 
 178   0.0000       0.688125        18.7248 
 179   0.0000       0.691804        18.8249 
 180   0.0000       0.707130        19.2420 
 181   0.0000       0.721527        19.6337 
 182   0.0000       0.721810        19.6414 
 183   0.0000       0.731071        19.8935 
 184   0.0000       0.732754        19.9393 
 185   0.0000       0.742590        20.2069 
 186   0.0000       0.749252        20.3882 
 187   0.0000       0.757434        20.6108 
 188   0.0000       0.758954        20.6522 
 189   0.0000       0.761712        20.7272 
 190   0.0000       0.769544        20.9404 
 191   0.0000       0.779209        21.2034 
 192   0.0000       0.782356        21.2890 
 193   0.0000       0.795369        21.6431 
 194   0.0000       0.803760        21.8714 
 195   0.0000       0.812610        22.1122 
 196   0.0000       0.821091        22.3430 
 197   0.0000       0.828476        22.5440 
 198   0.0000       0.836216        22.7546 
 199   0.0000       0.848383        23.0857 
 200   0.0000       0.851916        23.1818 
 201   0.0000       0.858742        23.3676 
 202   0.0000       0.864410        23.5218 
 203   0.0000       0.883491        24.0410 
 204   0.0000       0.890257        24.2251 
 205   0.0000       0.893885        24.3238 
 206   0.0000       0.905386        24.6368 
 207   0.0000       0.908275        24.7154 
 208   0.0000       0.920915        25.0594 
 209   0.0000       0.922873        25.1126 
 210   0.0000       0.940236        25.5851 
 211   0.0000       0.943642        25.6778 
 212   0.0000       0.952680        25.9237 
 213   0.0000       0.962266        26.1846 
 214   0.0000       0.970780        26.4163 
 215   0.0000       0.984664        26.7941 
 216   0.0000       0.989558        26.9273 
 217   0.0000       0.998409        27.1681 
 218   0.0000       1.005906        27.3721 
 219   0.0000       1.019685        27.7470 
 220   0.0000       1.028943        27.9990 
 221   0.0000       1.042402        28.3652 
 222   0.0000       1.059168        28.8214 
 223   0.0000       1.061137        28.8750 
 224   0.0000       1.078824        29.3563 
 225   0.0000       1.079296        29.3691 
 226   0.0000       1.097193        29.8561 
 227   0.0000       1.101392        29.9704 
 228   0.0000       1.109376        30.1877 
 229   0.0000       1.118989        30.4492 
 230   0.0000       1.126976        30.6666 
 231   0.0000       1.133325        30.8393 
 232   0.0000       1.148936        31.2641 
 233   0.0000       1.160182        31.5702 
 234   0.0000       1.166484        31.7416 
 235   0.0000       1.171156        31.8688 
 236   0.0000       1.181546        32.1515 
 237   0.0000       1.192551        32.4510 
 238   0.0000       1.198827        32.6217 
 239   0.0000       1.212594        32.9964 
 240   0.0000       1.224099        33.3094 
 241   0.0000       1.239389        33.7255 
 242   0.0000       1.241212        33.7751 
 243   0.0000       1.257465        34.2174 
 244   0.0000       1.267490        34.4902 
 245   0.0000       1.275261        34.7016 
 246   0.0000       1.288541        35.0630 
 247   0.0000       1.295646        35.2563 
 248   0.0000       1.303473        35.4693 
 249   0.0000       1.323430        36.0124 
 250   0.0000       1.342348        36.5271 
 251   0.0000       1.355830        36.8940 
 252   0.0000       1.372423        37.3455 
 253   0.0000       1.399219        38.0747 
 254   0.0000       1.406937        38.2847 
 255   0.0000       1.435713        39.0677 
 256   0.0000       1.459142        39.7053 
 257   0.0000       1.462812        39.8051 
 258   0.0000       1.483323        40.3633 
 259   0.0000       1.496926        40.7334 
 260   0.0000       1.545361        42.0514 
 261   0.0000       1.551061        42.2065 
 262   0.0000       1.561320        42.4857 
 263   0.0000       1.584057        43.1044 
 264   0.0000       1.604483        43.6602 
 265   0.0000       1.631530        44.3962 
 266   0.0000       1.648880        44.8683 
 267   0.0000       1.654094        45.0102 
 268   0.0000       1.670904        45.4676 
 269   0.0000       1.682262        45.7767 
 270   0.0000       1.704213        46.3740 
 271   0.0000       1.721574        46.8464 
 272   0.0000       1.747593        47.5544 
 273   0.0000       1.762387        47.9570 
 274   0.0000       1.775569        48.3157 
 275   0.0000       1.779090        48.4115 
 276   0.0000       1.787050        48.6281 
 277   0.0000       1.810403        49.2636 
 278   0.0000       1.813446        49.3464 
 279   0.0000       1.839521        50.0559 
 280   0.0000       1.843703        50.1697 
 281   0.0000       1.848382        50.2970 
 282   0.0000       1.876256        51.0555 
 283   0.0000       1.890924        51.4547 
 284   0.0000       1.893874        51.5349 
 285   0.0000       1.895811        51.5876 
 286   0.0000       1.902123        51.7594 
 287   0.0000       1.904165        51.8150 
 288   0.0000       1.907508        51.9059 
 289   0.0000       1.917860        52.1876 
 290   0.0000       1.926981        52.4358 
 291   0.0000       1.934650        52.6445 
 292   0.0000       1.939196        52.7682 
 293   0.0000       1.950117        53.0654 
 294   0.0000       1.955571        53.2138 
 295   0.0000       1.973801        53.7099 
 296   0.0000       1.989133        54.1271 
 297   0.0000       2.004498        54.5452 
 298   0.0000       2.016749        54.8785 
 299   0.0000       2.033902        55.3453 
 300   0.0000       2.044122        55.6234 
 301   0.0000       2.047424        55.7132 
 302   0.0000       2.054277        55.8997 
 303   0.0000       2.060018        56.0559 
 304   0.0000       2.060754        56.0760 
 305   0.0000       2.068604        56.2896 
 306   0.0000       2.075380        56.4740 
 307   0.0000       2.080073        56.6017 
 308   0.0000       2.085904        56.7603 
 309   0.0000       2.093118        56.9566 
 310   0.0000       2.103765        57.2464 
 311   0.0000       2.111232        57.4495 
 312   0.0000       2.113290        57.5056 
 313   0.0000       2.121047        57.7166 
 314   0.0000       2.129877        57.9569 
 315   0.0000       2.140276        58.2399 
 316   0.0000       2.151725        58.5514 
 317   0.0000       2.161098        58.8065 
 318   0.0000       2.169968        59.0478 
 319   0.0000       2.185579        59.4726 
 320   0.0000       2.189468        59.5785 
 321   0.0000       2.217440        60.3396 
 322   0.0000       2.235203        60.8230 
 323   0.0000       2.243855        61.0584 
 324   0.0000       2.256034        61.3898 
 325   0.0000       2.272806        61.8462 
 326   0.0000       2.275261        61.9130 
 327   0.0000       2.284980        62.1775 
 328   0.0000       2.309074        62.8331 
 329   0.0000       2.323074        63.2141 
 330   0.0000       2.330690        63.4213 
 331   0.0000       2.352193        64.0064 
 332   0.0000       2.360014        64.2192 
 333   0.0000       2.368227        64.4427 
 334   0.0000       2.374843        64.6228 
 335   0.0000       2.383608        64.8613 
 336   0.0000       2.402390        65.3724 
 337   0.0000       2.419198        65.8297 
 338   0.0000       2.428737        66.0893 
 339   0.0000       2.431379        66.1612 
 340   0.0000       2.440032        66.3967 
 341   0.0000       2.450268        66.6752 
 342   0.0000       2.455057        66.8055 
 343   0.0000       2.459128        66.9163 
 344   0.0000       2.463992        67.0486 
 345   0.0000       2.469231        67.1912 
 346   0.0000       2.479909        67.4817 
 347   0.0000       2.487292        67.6826 
 348   0.0000       2.497776        67.9679 
 349   0.0000       2.504310        68.1457 
 350   0.0000       2.526971        68.7624 
 351   0.0000       2.540976        69.1435 
 352   0.0000       2.556824        69.5747 
 353   0.0000       2.571888        69.9846 
 354   0.0000       2.586081        70.3708 
 355   0.0000       2.595063        70.6153 
 356   0.0000       2.600544        70.7644 
 357   0.0000       2.615565        71.1731 
 358   0.0000       2.623553        71.3905 
 359   0.0000       2.651798        72.1591 
 360   0.0000       2.671326        72.6905 
 361   0.0000       2.693316        73.2889 
 362   0.0000       2.712893        73.8216 
 363   0.0000       2.757262        75.0289 
 364   0.0000       2.760241        75.1100 
 365   0.0000       2.776113        75.5419 
 366   0.0000       2.799518        76.1787 
 367   0.0000       2.825141        76.8760 
 368   0.0000       2.834807        77.1390 
 369   0.0000       2.858927        77.7954 
 370   0.0000       2.866839        78.0106 
 371   0.0000       2.885753        78.5253 
 372   0.0000       2.890667        78.6591 
 373   0.0000       2.903316        79.0032 
 374   0.0000       2.910232        79.1914 
 375   0.0000       2.915640        79.3386 
 376   0.0000       2.930365        79.7393 
 377   0.0000       2.942961        80.0820 
 378   0.0000       2.953209        80.3609 
 379   0.0000       2.957502        80.4777 
 380   0.0000       2.974289        80.9345 
 381   0.0000       2.980328        81.0989 
 382   0.0000       2.989697        81.3538 
 383   0.0000       2.999034        81.6079 
 384   0.0000       3.004297        81.7511 
 385   0.0000       3.009306        81.8874 
 386   0.0000       3.019299        82.1593 
 387   0.0000       3.025083        82.3167 
 388   0.0000       3.037060        82.6426 
 389   0.0000       3.047266        82.9203 
 390   0.0000       3.053037        83.0773 
 391   0.0000       3.059406        83.2507 
 392   0.0000       3.068179        83.4894 
 393   0.0000       3.076379        83.7125 
 394   0.0000       3.088321        84.0375 
 395   0.0000       3.097017        84.2741 
 396   0.0000       3.108619        84.5898 
 397   0.0000       3.110919        84.6524 
 398   0.0000       3.117390        84.8285 
 399   0.0000       3.118399        84.8559 
 400   0.0000       3.128697        85.1362 
 401   0.0000       3.134736        85.3005 
 402   0.0000       3.140287        85.4515 
 403   0.0000       3.150755        85.7364 
 404   0.0000       3.156754        85.8996 
 405   0.0000       3.160823        86.0104 
 406   0.0000       3.164587        86.1128 
 407   0.0000       3.170514        86.2741 
 408   0.0000       3.179389        86.5156 
 409   0.0000       3.193464        86.8986 
 410   0.0000       3.199901        87.0737 
 411   0.0000       3.206683        87.2583 
 412   0.0000       3.210413        87.3598 
 413   0.0000       3.225613        87.7734 
 414   0.0000       3.226238        87.7904 
 415   0.0000       3.244903        88.2983 
 416   0.0000       3.246550        88.3431 
 417   0.0000       3.251262        88.4713 
 418   0.0000       3.264701        88.8370 
 419   0.0000       3.271331        89.0174 
 420   0.0000       3.275728        89.1371 
 421   0.0000       3.297595        89.7321 
 422   0.0000       3.304020        89.9069 
 423   0.0000       3.307867        90.0116 
 424   0.0000       3.320214        90.3476 
 425   0.0000       3.330706        90.6331 
 426   0.0000       3.339623        90.8758 
 427   0.0000       3.344297        91.0029 
 428   0.0000       3.365956        91.5923 
 429   0.0000       3.374031        91.8121 
 430   0.0000       3.380088        91.9769 
 431   0.0000       3.398829        92.4868 
 432   0.0000       3.418879        93.0324 
 433   0.0000       3.430477        93.3480 
 434   0.0000       3.435887        93.4952 
 435   0.0000       3.469506        94.4101 
 436   0.0000       3.473715        94.5246 
 437   0.0000       3.497702        95.1773 
 438   0.0000       3.507518        95.4444 
 439   0.0000       3.534593        96.1812 
 440   0.0000       3.545539        96.4790 
 441   0.0000       3.567724        97.0827 
 442   0.0000       3.570984        97.1714 
 443   0.0000       3.591058        97.7177 
 444   0.0000       3.611536        98.2749 
 445   0.0000       3.618660        98.4687 
 446   0.0000       3.634568        98.9016 
 447   0.0000       3.640863        99.0729 
 448   0.0000       3.678964       100.1097 
 449   0.0000       3.707548       100.8875 
 450   0.0000       3.718194       101.1772 
 451   0.0000       3.727258       101.4238 
 452   0.0000       3.732171       101.5575 
 453   0.0000       3.745562       101.9219 
 454   0.0000       3.760849       102.3379 
 455   0.0000       3.777404       102.7884 
 456   0.0000       3.787830       103.0721 
 457   0.0000       3.797043       103.3228 
 458   0.0000       3.824207       104.0620 
 459   0.0000       3.839106       104.4674 
 460   0.0000       3.841608       104.5355 
 461   0.0000       3.849063       104.7383 
 462   0.0000       3.869177       105.2857 
 463   0.0000       3.876733       105.4913 
 464   0.0000       3.883548       105.6767 
 465   0.0000       3.890262       105.8594 
 466   0.0000       3.900835       106.1471 
 467   0.0000       3.913803       106.5000 
 468   0.0000       3.922209       106.7287 
 469   0.0000       3.936727       107.1238 
 470   0.0000       3.946617       107.3929 
 471   0.0000       3.954607       107.6103 
 472   0.0000       3.966317       107.9290 
 473   0.0000       3.977317       108.2283 
 474   0.0000       3.984682       108.4287 
 475   0.0000       3.992306       108.6362 
 476   0.0000       3.997253       108.7708 
 477   0.0000       4.014599       109.2428 
 478   0.0000       4.028295       109.6155 
 479   0.0000       4.037273       109.8598 
 480   0.0000       4.050914       110.2310 
 481   0.0000       4.060690       110.4970 
 482   0.0000       4.069907       110.7478 
 483   0.0000       4.081624       111.0666 
 484   0.0000       4.099370       111.5495 
 485   0.0000       4.102858       111.6444 
 486   0.0000       4.113845       111.9434 
 487   0.0000       4.116072       112.0040 
 488   0.0000       4.122633       112.1825 
 489   0.0000       4.129220       112.3618 
 490   0.0000       4.148647       112.8904 
 491   0.0000       4.153835       113.0316 
 492   0.0000       4.164346       113.3176 
 493   0.0000       4.181043       113.7720 
 494   0.0000       4.184539       113.8671 
 495   0.0000       4.204905       114.4213 
 496   0.0000       4.211701       114.6062 
 497   0.0000       4.244625       115.5021 
 498   0.0000       4.251513       115.6896 
 499   0.0000       4.267739       116.1311 
 500   0.0000       4.283477       116.5593 
 501   0.0000       4.296122       116.9034 
 502   0.0000       4.345144       118.2374 
 503   0.0000       4.370705       118.9329 
 504   0.0000       4.425004       120.4105 
 505   0.0000       4.570473       124.3689 
 506   0.0000       4.598674       125.1363 
 507   0.0000       4.630757       126.0093 
 508   0.0000       4.678916       127.3198 
 509   0.0000       4.751183       129.2863 
 510   0.0000       4.781245       130.1043 
 511   0.0000       4.827160       131.3537 
 512   0.0000       4.939703       134.4162 
 513   0.0000       4.980672       135.5310 
 514   0.0000       5.010984       136.3558 
 515   0.0000       5.151450       140.1781 
 516   0.0000       5.171515       140.7241 
 517   0.0000       5.205921       141.6603 
 518   0.0000       5.223631       142.1422 
 519   0.0000       5.249308       142.8409 
 520   0.0000       5.251350       142.8965 
 521   0.0000       5.253137       142.9451 
 522   0.0000       5.268441       143.3616 
 523   0.0000       5.283460       143.7703 
 524   0.0000       5.312093       144.5494 
 525   0.0000       5.332546       145.1059 
 526   0.0000       5.349786       145.5751 
 527   0.0000       5.361115       145.8834 
 528   0.0000       5.375147       146.2652 
 529   0.0000       5.396200       146.8381 
 530   0.0000       5.458283       148.5274 
 531   0.0000       5.485148       149.2585 
 532   0.0000       5.486608       149.2982 
 533   0.0000       5.543717       150.8522 
 534   0.0000       5.562439       151.3617 
 535   0.0000       5.616899       152.8436 
 536   0.0000       5.741543       156.2353 
 537   0.0000       5.775883       157.1698 
 538   0.0000       5.878927       159.9737 
 539   0.0000       5.945841       161.7946 
 540   0.0000       6.194556       168.5624 
 541   0.0000       6.253647       170.1704 
 542   0.0000       6.354455       172.9135 
 543   0.0000       6.400250       174.1597 
 544   0.0000       6.431517       175.0105 
 545   0.0000       6.462393       175.8506 
 546   0.0000       6.756316       183.8487 
 547   0.0000       6.806280       185.2083 
 548   0.0000       6.809320       185.2910 
 549   0.0000       6.848623       186.3605 
 550   0.0000       6.852913       186.4772 
 551   0.0000       6.855430       186.5457 
 552   0.0000       6.856689       186.5800 
 553   0.0000       6.856964       186.5875 
 554   0.0000       6.857610       186.6051 
 555   0.0000       6.859793       186.6645 
 556   0.0000       6.862633       186.7417 
 557   0.0000       6.863818       186.7740 
 558   0.0000       6.864875       186.8027 
 559   0.0000       6.865010       186.8064 
 560   0.0000       6.867035       186.8615 
 561   0.0000       6.867922       186.8856 
 562   0.0000       6.868925       186.9129 
 563   0.0000       6.870432       186.9540 
 564   0.0000       6.871094       186.9720 
 565   0.0000       6.874176       187.0558 
 566   0.0000       6.877183       187.1377 
 567   0.0000       6.878052       187.1613 
 568   0.0000       6.878665       187.1780 
 569   0.0000       6.881535       187.2561 
 570   0.0000       6.882689       187.2875 
 571   0.0000       6.883593       187.3121 
 572   0.0000       6.885028       187.3511 
 573   0.0000       6.887016       187.4052 
 574   0.0000       6.889318       187.4679 
 575   0.0000       6.889936       187.4847 
 576   0.0000       6.891353       187.5233 
 577   0.0000       6.893063       187.5698 
 578   0.0000       6.895838       187.6453 
 579   0.0000       6.899244       187.7380 
 580   0.0000       6.900850       187.7817 
 581   0.0000       6.903090       187.8426 
 582   0.0000       6.907291       187.9570 
 583   0.0000       6.908704       187.9954 
 584   0.0000       6.910565       188.0460 
 585   0.0000       6.914939       188.1651 
 586   0.0000       6.917231       188.2274 
 587   0.0000       6.918191       188.2535 
[...]
      dxy     :     0.000007
      f0      :     0.000003  f :     0.000004
      f+1     :    -0.000001
      f-1     :     0.000002
      f+2     :    -0.000001
      f-2     :    -0.000000
      f+3     :     0.000001
      f-3     :     0.000000
  2 O s       :     0.000014  s :     0.000014
      pz      :     0.000439  p :     0.001244
      px      :    -0.000371
      py      :     0.001177
      dz2     :    -0.000000  d :    -0.000003
      dxz     :     0.000003
      dyz     :     0.000006
      dx2y2   :    -0.000006
      dxy     :    -0.000006
      f0      :     0.000000  f :     0.000000
      f+1     :     0.000000
      f-1     :     0.000000
      f+2     :     0.000000
      f-2     :     0.000001
      f+3     :    -0.000001
      f-3     :    -0.000000
  3 C s       :     0.000985  s :     0.000985
      pz      :     0.000612  p :     0.014578
      px      :     0.003998
      py      :     0.009968
      dz2     :    -0.000133  d :     0.000220
      dxz     :     0.000204
      dyz     :     0.000012
      dx2y2   :     0.000256
      dxy     :    -0.000119
      f0      :    -0.000008  f :     0.000223
      f+1     :     0.000051
      f-1     :    -0.000006
      f+2     :    -0.000007
      f-2     :     0.000002
      f+3     :    -0.000020
      f-3     :     0.000212
  4 C s       :    -0.002545  s :    -0.002545
      pz      :    -0.003745  p :    -0.003722
      px      :    -0.003913
      py      :     0.003936
      dz2     :     0.001579  d :     0.053435
      dxz     :     0.003325
      dyz     :     0.007677
      dx2y2   :     0.002896
      dxy     :     0.037958
      f0      :     0.000364  f :     0.009010
      f+1     :     0.000501
      f-1     :     0.000321
      f+2     :     0.000353
      f-2     :     0.004875
      f+3     :     0.000723
      f-3     :     0.001873
  5 C s       :     0.029051  s :     0.029051
      pz      :     0.045461  p :     0.622972
      px      :     0.031118
      py      :     0.546393
      dz2     :     0.003360  d :     0.005526
      dxz     :    -0.001157
      dyz     :     0.004241
      dx2y2   :    -0.001501
      dxy     :     0.000582
      f0      :     0.000853  f :     0.000213
      f+1     :     0.000089
      f-1     :     0.000262
      f+2     :    -0.000102
      f-2     :    -0.000108
      f+3     :    -0.000623
      f-3     :    -0.000158
  6 C s       :    -0.002312  s :    -0.002312
      pz      :    -0.001372  p :    -0.005466
      px      :    -0.011598
      py      :     0.007504
      dz2     :     0.002106  d :     0.067565
      dxz     :     0.010187
      dyz     :     0.002828
      dx2y2   :     0.008568
      dxy     :     0.043876
      f0      :     0.000329  f :     0.008071
      f+1     :     0.000481
      f-1     :     0.000812
      f+2     :     0.000287
      f-2     :     0.000490
      f+3     :     0.002206
      f-3     :     0.003466
  7 C s       :     0.003095  s :     0.003095
      pz      :     0.002217  p :     0.018585
      px      :     0.004668
      py      :     0.011700
      dz2     :     0.000421  d :     0.005208
      dxz     :     0.000280
      dyz     :    -0.000125
      dx2y2   :     0.004715
      dxy     :    -0.000083
      f0      :    -0.000011  f :    -0.000065
      f+1     :    -0.000009
      f-1     :    -0.000016
      f+2     :    -0.000002
      f-2     :    -0.000045
      f+3     :     0.000001
      f-3     :     0.000017
  8 C s       :     0.000430  s :     0.000430
      pz      :     0.000057  p :     0.004028
      px      :     0.003489
      py      :     0.000481
      dz2     :     0.000035  d :     0.002275
      dxz     :     0.000477
      dyz     :     0.000072
      dx2y2   :     0.000228
      dxy     :     0.001463
      f0      :    -0.000007  f :     0.000159
      f+1     :     0.000001
      f-1     :     0.000019
      f+2     :     0.000004
      f-2     :     0.000019
      f+3     :     0.000024
      f-3     :     0.000099
  9 C s       :     0.000356  s :     0.000356
      pz      :     0.000461  p :     0.001187
      px      :     0.000079
      py      :     0.000646
      dz2     :     0.000030  d :     0.000332
      dxz     :     0.000008
      dyz     :     0.000039
      dx2y2   :     0.000263
      dxy     :    -0.000009
      f0      :     0.000011  f :     0.000097
      f+1     :     0.000002
      f-1     :    -0.000001
      f+2     :     0.000045
      f-2     :    -0.000004
      f+3     :     0.000000
      f-3     :     0.000045
 10 F s       :     0.000325  s :     0.000325
      pz      :    -0.000078  p :     0.000981
      px      :     0.000084
      py      :     0.000975
      dz2     :     0.000038  d :     0.000230
      dxz     :     0.000023
      dyz     :    -0.000001
      dx2y2   :     0.000065
      dxy     :     0.000104
      f0      :     0.000000  f :     0.000012
      f+1     :     0.000000
      f-1     :     0.000000
      f+2     :     0.000000
      f-2     :     0.000001
      f+3     :     0.000007
      f-3     :     0.000003
 11 F s       :     0.000100  s :     0.000100
      pz      :    -0.000192  p :     0.003475
      px      :     0.000581
      py      :     0.003086
      dz2     :     0.000041  d :     0.000237
      dxz     :     0.000026
      dyz     :     0.000119
      dx2y2   :     0.000017
      dxy     :     0.000034
      f0      :     0.000003  f :     0.000011
      f+1     :     0.000000
      f-1     :     0.000003
      f+2     :     0.000000
      f-2     :     0.000004
      f+3     :     0.000000
      f-3     :     0.000001
 12 F s       :     0.001812  s :     0.001812
      pz      :     0.000464  p :     0.022769
      px      :     0.018789
      py      :     0.003515
      dz2     :     0.000070  d :    -0.000049
      dxz     :     0.000008
      dyz     :    -0.000025
      dx2y2   :    -0.000084
      dxy     :    -0.000018
      f0      :    -0.000001  f :    -0.000007
      f+1     :     0.000000
      f-1     :     0.000003
      f+2     :    -0.000001
      f-2     :    -0.000003
      f+3     :    -0.000001
      f-3     :    -0.000004
 13 F s       :    -0.000078  s :    -0.000078
      pz      :    -0.001459  p :     0.002199
      px      :     0.001340
      py      :     0.002318
      dz2     :    -0.000101  d :    -0.000122
      dxz     :    -0.000027
      dyz     :    -0.000023
      dx2y2   :    -0.000003
      dxy     :     0.000033
      f0      :    -0.000008  f :    -0.000008
      f+1     :    -0.000002
      f-1     :    -0.000000
      f+2     :    -0.000000
      f-2     :     0.000001
      f+3     :     0.000000
      f-3     :    -0.000000
 14 F s       :     0.002298  s :     0.002298
      pz      :    -0.004168  p :     0.091141
      px      :     0.003734
      py      :     0.091575
      dz2     :     0.002210  d :     0.009912
      dxz     :     0.000567
      dyz     :     0.006018
      dx2y2   :     0.001030
      dxy     :     0.000087
      f0      :     0.000174  f :     0.000510
      f+1     :     0.000039
      f-1     :     0.000174
      f+2     :     0.000109
      f-2     :     0.000006
      f+3     :     0.000002
      f-3     :     0.000005
 15 F s       :     0.000890  s :     0.000890
      pz      :     0.004941  p :     0.007785
      px      :     0.003352
      py      :    -0.000508
      dz2     :    -0.000049  d :    -0.000135
      dxz     :    -0.000045
      dyz     :     0.000001
      dx2y2   :    -0.000017
      dxy     :    -0.000025
      f0      :    -0.000004  f :    -0.000009
      f+1     :    -0.000000
      f-1     :     0.000000
      f+2     :    -0.000003
      f-2     :    -0.000002
      f+3     :     0.000001
      f-3     :    -0.000001
 16 F s       :     0.001095  s :     0.001095
      pz      :     0.007667  p :     0.007785
      px      :    -0.000078
      py      :     0.000195
      dz2     :    -0.000031  d :    -0.000162
      dxz     :    -0.000057
      dyz     :     0.000019
      dx2y2   :    -0.000008
      dxy     :    -0.000085
      f0      :    -0.000001  f :    -0.000011
      f+1     :     0.000000
      f-1     :    -0.000000
      f+2     :    -0.000000
      f-2     :    -0.000007
      f+3     :    -0.000002
      f-3     :    -0.000001
 17 F s       :     0.000149  s :     0.000149
      pz      :     0.000605  p :     0.000063
      px      :     0.000105
      py      :    -0.000647
      dz2     :     0.000006  d :     0.000215
      dxz     :     0.000032
      dyz     :     0.000014
      dx2y2   :     0.000173
      dxy     :    -0.000010
      f0      :     0.000000  f :     0.000013
      f+1     :     0.000002
      f-1     :     0.000002
      f+2     :     0.000002
      f-2     :     0.000001
      f+3     :    -0.000000
      f-3     :     0.000006
 18 F s       :     0.000062  s :     0.000062
      pz      :    -0.000538  p :     0.000354
      px      :    -0.000309
      py      :     0.001201
      dz2     :     0.000019  d :     0.000226
      dxz     :     0.000010
      dyz     :     0.000091
      dx2y2   :     0.000097
      dxy     :     0.000008
      f0      :     0.000001  f :     0.000013
      f+1     :     0.000001
      f-1     :     0.000004
      f+2     :     0.000006
      f-2     :     0.000001
      f+3     :     0.000000
      f-3     :     0.000000
 19 F s       :     0.000042  s :     0.000042
      pz      :     0.000000  p :    -0.000216
      px      :    -0.000117
      py      :    -0.000099
      dz2     :     0.000002  d :     0.000031
      dxz     :    -0.000001
      dyz     :     0.000001
      dx2y2   :     0.000003
      dxy     :     0.000025
      f0      :     0.000000  f :     0.000002
      f+1     :     0.000000
      f-1     :     0.000000
      f+2     :     0.000000
      f-2     :    -0.000000
      f+3     :     0.000001
      f-3     :     0.000000
 20 F s       :     0.000004  s :     0.000004
      pz      :    -0.000100  p :     0.000240
      px      :     0.000162
      py      :     0.000178
      dz2     :     0.000011  d :     0.000056
      dxz     :     0.000042
      dyz     :     0.000000
      dx2y2   :     0.000001
      dxy     :     0.000003
      f0      :     0.000001  f :     0.000003
      f+1     :     0.000001
      f-1     :     0.000000
      f+2     :     0.000001
      f-2     :    -0.000000
      f+3     :    -0.000000
      f-3     :     0.000000
 21 F s       :    -0.000005  s :    -0.000005
      pz      :     0.000007  p :    -0.000079
      px      :     0.000002
      py      :    -0.000088
      dz2     :     0.000001  d :     0.000008
      dxz     :     0.000002
      dyz     :     0.000002
      dx2y2   :     0.000003
      dxy     :    -0.000001
      f0      :     0.000000  f :     0.000001
      f+1     :    -0.000000
      f-1     :     0.000000
      f+2     :     0.000000
      f-2     :     0.000000
      f+3     :    -0.000000
      f-3     :     0.000000
 22 F s       :     0.000054  s :     0.000054
      pz      :     0.000102  p :     0.000832
      px      :     0.000503
      py      :     0.000227
      dz2     :     0.000006  d :     0.000035
      dxz     :     0.000006
      dyz     :     0.000000
      dx2y2   :     0.000011
      dxy     :     0.000012
      f0      :     0.000000  f :     0.000002
      f+1     :     0.000000
      f-1     :     0.000000
      f+2     :     0.000000
      f-2     :     0.000000
      f+3     :     0.000001
      f-3     :     0.000001
 23 F s       :     0.000003  s :     0.000003
      pz      :    -0.000012  p :     0.000047
      px      :    -0.000026
      py      :     0.000084
      dz2     :     0.000008  d :     0.000014
      dxz     :    -0.000001
      dyz     :     0.000006
      dx2y2   :    -0.000000
      dxy     :     0.000001
      f0      :     0.000000  f :     0.000001
      f+1     :    -0.000000
      f-1     :     0.000000
      f+2     :     0.000000
      f-2     :     0.000000
      f+3     :    -0.000000
      f-3     :    -0.000000


                      *****************************
                      * MAYER POPULATION ANALYSIS *
                      *****************************

  NA   - Mulliken gross atomic population
  ZA   - Total nuclear charge
  QA   - Mulliken gross atomic charge
  VA   - Mayer's total valence
  BVA  - Mayer's bonded valence
  FA   - Mayer's free valence

  ATOM       NA         ZA         QA         VA         BVA        FA
  0 C      5.8292     6.0000     0.1708     4.6360     4.6360     0.0000
  1 O      8.4803     8.0000    -0.4803     1.9804     1.9803     0.0001
  2 O      8.4932     8.0000    -0.4932     1.9646     1.9645     0.0000
  3 C      5.6909     6.0000     0.3091     3.8767     3.8764     0.0004
  4 C      5.6966     6.0000     0.3034     4.1932     4.1904     0.0027
  5 C      5.8978     6.0000     0.1022     3.9770     3.3964     0.5806
  6 C      5.6477     6.0000     0.3523     4.2849     4.2819     0.0029
  7 C      5.7455     6.0000     0.2545     4.1566     4.1555     0.0011
  8 C      5.6988     6.0000     0.3012     4.2428     4.2427     0.0001
  9 C      5.5903     6.0000     0.4097     4.5660     4.5659     0.0000
 10 F      9.2016     9.0000    -0.2016     1.0934     1.0934     0.0000
 11 F      9.2023     9.0000    -0.2023     1.0852     1.0852     0.0000
 12 F      9.1762     9.0000    -0.1762     1.1241     1.1236     0.0006
 13 F      9.1795     9.0000    -0.1795     1.1294     1.1294     0.0000
 14 F      9.1373     9.0000    -0.1373     1.2048     1.1942     0.0106
 15 F      9.1606     9.0000    -0.1606     1.1574     1.1573     0.0001
 16 F      9.1535     9.0000    -0.1535     1.1646     1.1645     0.0001
 17 F      9.1593     9.0000    -0.1593     1.1680     1.1680     0.0000
 18 F      9.1600     9.0000    -0.1600     1.1689     1.1689     0.0000
 19 F      9.1487     9.0000    -0.1487     1.1767     1.1767     0.0000
 20 F      9.1463     9.0000    -0.1463     1.1775     1.1775     0.0000
 21 F      9.1366     9.0000    -0.1366     1.1879     1.1879     0.0000
 22 F      9.1341     9.0000    -0.1341     1.1897     1.1897     0.0000
 23 F      9.1338     9.0000    -0.1338     1.1910     1.1910     0.0000

  Mayer bond orders larger than 0.100000
B(  0-C ,  1-O ) :   1.8691 B(  0-C ,  2-O ) :   1.8480 B(  0-C ,  3-C ) :   0.8467 
B(  3-C ,  4-C ) :   0.9199 B(  3-C , 10-F ) :   1.0342 B(  3-C , 11-F ) :   1.0398 
B(  4-C ,  5-C ) :   1.0426 B(  4-C , 12-F ) :   1.0695 B(  4-C , 13-F ) :   1.0612 
B(  5-C ,  6-C ) :   1.0300 B(  5-C , 14-F ) :   1.1299 B(  6-C ,  7-C ) :   0.9346 
B(  6-C , 15-F ) :   1.0734 B(  6-C , 16-F ) :   1.1090 B(  7-C ,  8-C ) :   0.9284 
B(  7-C , 17-F ) :   1.0751 B(  7-C , 18-F ) :   1.0816 B(  8-C ,  9-C ) :   0.9686 
B(  8-C , 19-F ) :   1.1020 B(  8-C , 20-F ) :   1.1112 B(  9-C , 21-F ) :   1.1588 
B(  9-C , 22-F ) :   1.1609 B(  9-C , 23-F ) :   1.1701 

-------
TIMINGS
-------

Total SCF time: 0 days 0 hours 1 min 14 sec 

Total time                  ....      74.644 sec
Sum of individual times     ....      72.354 sec  ( 96.9%)

Fock matrix formation       ....      64.292 sec  ( 86.1%)
  Split-RI-J                ....       3.700 sec  (  5.8% of F)
  Chain of spheres X        ....      43.891 sec  ( 68.3% of F)
  XC integration            ....      11.098 sec  ( 17.3% of F)
    Basis function eval.    ....       0.645 sec  (  5.8% of XC)
    Density eval.           ....       4.091 sec  ( 36.9% of XC)
    XC-Functional eval.     ....       0.466 sec  (  4.2% of XC)
    XC-Potential eval.      ....       3.037 sec  ( 27.4% of XC)
Diagonalization             ....       3.623 sec  (  4.9%)
Density matrix formation    ....       0.191 sec  (  0.3%)
Population analysis         ....       0.266 sec  (  0.4%)
Initial guess               ....       0.466 sec  (  0.6%)
Orbital Transformation      ....       0.000 sec  (  0.0%)
Orbital Orthonormalization  ....       0.400 sec  (  0.5%)
DIIS solution               ....       1.432 sec  (  1.9%)
Grid generation             ....       2.083 sec  (  2.8%)

Maximum memory used throughout the entire SCF-calculation: 161.4 MB


-------------------------------------------------------------------------------
                          DFT DISPERSION CORRECTION                            
                                                                               
                              DFTD3 V3.1  Rev 1                                
                          USING Becke-Johnson damping                          
-------------------------------------------------------------------------------
The TPSSH functional is recognized
Active option DFTDOPT                   ...         4   

molecular C6(AA) [au] = 6300.128321 


            DFT-D V3
 parameters
 s6 scaling factor         :     1.0000 
 a1 scaling factor         :     0.4529 
 s8 scaling factor         :     2.2382 
 a2 scaling factor         :     4.6550 
 ad hoc parameters k1-k3   :    16.0000     1.3333    -4.0000 

 Edisp/kcal,au: -18.565476467784  -0.029585966834 
 E6   /kcal   :  -8.979870829 
 E8   /kcal   :  -9.585605639 
 % E8         :  51.631347332 

-------------------------   ----------------
Dispersion correction           -0.029585967
-------------------------   ----------------


-------------------------   --------------------
FINAL SINGLE POINT ENERGY     -1853.954596309099
-------------------------   --------------------

                                *** OPTIMIZATION RUN DONE ***

                            ***************************************
                            *     ORCA property calculations      *
                            ***************************************

                                    ---------------------
                                    Active property flags
                                    ---------------------
   (+) Dipole Moment


------------------------------------------------------------------------------
                       ORCA ELECTRIC PROPERTIES CALCULATION
------------------------------------------------------------------------------

Dipole Moment Calculation                       ... on
Quadrupole Moment Calculation                   ... off
Polarizability Calculation                      ... off
GBWName                                         ... rf_mecn_opt_TPS_C4_D_B.gbw
Electron density                                ... rf_mecn_opt_TPS_C4_D_B.scfp
The origin for moment calculation is the CENTER OF MASS  = (-0.146909,  0.096902  0.066359)

-------------
DIPOLE MOMENT
-------------
                                X             Y             Z
Electronic contribution:    -15.22486       2.54823       4.41896
Nuclear contribution   :      8.13575      -1.12659      -2.23265
                        -----------------------------------------
Total Dipole Moment    :     -7.08910       1.42164       2.18632
                        -----------------------------------------
Magnitude (a.u.)       :      7.55357
Magnitude (Debye)      :     19.19965



--------------------
Rotational spectrum 
--------------------
 
Rotational constants in cm-1:     0.016097     0.004866     0.004466 
Rotational constants in MHz :   482.579772   145.892273   133.902004 

 Dipole components along the rotational axes: 
x,y,z [a.u.] :    -7.002810     2.759596     0.633815 
x,y,z [Debye]:   -17.799729     7.014336     1.611030 

 

Timings for individual modules:

Sum of individual times         ...     3716.282 sec (=  61.938 min)
GTO integral calculation        ...       32.179 sec (=   0.536 min)   0.9 %
SCF iterations                  ...     3093.884 sec (=  51.565 min)  83.3 %
SCF Gradient evaluation         ...      588.580 sec (=   9.810 min)  15.8 %
Geometry relaxation             ...        1.638 sec (=   0.027 min)   0.0 %
                             ****ORCA TERMINATED NORMALLY****
TOTAL RUN TIME: 0 days 1 hours 2 minutes 10 seconds 36 msec
