
                                 *****************
                                 * O   R   C   A *
                                 *****************

                                            #,                                       
                                            ###                                      
                                            ####                                     
                                            #####                                    
                                            ######                                   
                                           ########,                                 
                                     ,,################,,,,,                         
                               ,,#################################,,                 
                          ,,##########################################,,             
                       ,#########################################, ''#####,          
                    ,#############################################,,   '####,        
                  ,##################################################,,,,####,       
                ,###########''''           ''''###############################       
              ,#####''   ,,,,##########,,,,          '''####'''          '####       
            ,##' ,,,,###########################,,,                        '##       
           ' ,,###''''                  '''############,,,                           
         ,,##''                                '''############,,,,        ,,,,,,###''
      ,#''                                            '''#######################'''  
     '                                                          ''''####''''         
             ,#######,   #######,   ,#######,      ##                                
            ,#'     '#,  ##    ##  ,#'     '#,    #''#        ,####,   ,####,        
            ##       ##  ##   ,#'  ##            #'  '#       #'       #'  '#        
            ##       ##  #######   ##           ,######,      #####,   #    #        
            '#,     ,#'  ##    ##  '#,     ,#' ,#      #,     #,   #   #,  ,#        
             '#######'   ##     ##  '#######'  #'      '#     '####' # '####'        



                #########################################################
                #                        -***-                          #
                #          Department of theory and spectroscopy        #
                #                                                       #
                #                      Frank Neese                      #
                #                                                       #
                #     Directorship, Architecture, Infrastructure        #
                #                    SHARK, DRIVERS                     #
                #        Core code/Algorithms in most modules           #
                #                                                       #
                #        Max Planck Institute fuer Kohlenforschung      #
                #                Kaiser Wilhelm Platz 1                 #
                #                 D-45470 Muelheim/Ruhr                 #
                #                      Germany                          #
                #                                                       #
                #                  All rights reserved                  #
                #                        -***-                          #
                #########################################################


                         Program Version 6.0.1  -  RELEASE   -


 With contributions from (in alphabetic order):
[Max-Planck-Institut fuer Kohlenforschung]                               
  Daniel Aravena         : Magnetic Suceptibility                        
  Michael Atanasov       : Ab Initio Ligand Field Theory (pilot matlab implementation)
  Alexander A. Auer      : GIAO ZORA, VPT2 properties, NMR spectrum      
  Ute Becker             : All parallelization in ORCA, NUMFREQ, NUMCALC 
  Giovanni Bistoni       : ED, misc. LED, open-shell LED, HFLD           
  Martin Brehm           : Molecular dynamics                            
  Dmytro Bykov           : pre 5.0 version of the SCF Hessian            
  Marcos Casanova-Páez   : Triplet and SCS-CIS(D). UHF-(DLPNO)-IP/EA/STEOM-CCSD. UHF-CVS-IP/STEOM-CCSD   
  Vijay G. Chilkuri      : MRCI spin determinant printing, contributions to CSF-ICE 
  Pauline Colinet        : FMM embedding                                 
  Dipayan Datta          : RHF DLPNO-CCSD density                        
  Achintya Kumar Dutta   : EOM-CC, STEOM-CC                              
  Nicolas Foglia         : Exact transition moments, OPA infrastructure, MCD improvements    
  Dmitry Ganyushin       : Spin-Orbit,Spin-Spin,Magnetic field MRCI      
  Miquel Garcia-Rates    : C-PCM and meta-GGA Hessian, CCSD/C-PCM, Gaussian charge scheme 
  Tiago L. C. Gouveia    : GS-ROHF, GS-ROCIS                             
  Yang Guo               : DLPNO-NEVPT2, F12-NEVPT2, CIM, IAO-localization        
  Andreas Hansen         : Spin unrestricted coupled pair/coupled cluster methods 
  Ingolf Harden          : AUTO-CI MPn and infrastructure                
  Benjamin Helmich-Paris : MC-RPA, TRAH-(SCF,CASSCF), AVAS, COSX integrals, SCF dyn. polar. 
  Lee Huntington         : MR-EOM, pCC                                   
  Robert Izsak           : Overlap fitted RIJCOSX, COSX-SCS-MP3, EOM     
  Riya Kayal             : Wick's Theorem for AUTO-CI, AUTO-CI UHF-CCSDT 
  Emily Kempfer          : AUTO-CI, RHF CISDT and CCSDT                  
  Christian Kollmar      : KDIIS, OOCD, Brueckner-CCSD(T), CCSD density, CASPT2, CASPT2-K, improved NEVPT2 
  Axel Koslowski         : Symmetry handling                             
  Simone Kossmann        : meta-GGA functionals, TD-DFT gradient, OOMP2, (MP2 Hessian; deprecated post 5.0) 
  Lucas Lang             : DCDCAS                                        
  Marvin Lechner         : AUTO-CI (C++ implementation), FIC-MRCC        
  Spencer Leger          : CASSCF response                               
  Dagmar Lenk            : GEPOL surface, SMD, ORCA-2-JSON               
  Dimitrios Liakos       : Extrapolation schemes; Compound Job, initial MDCI parallelization 
  Dimitrios Manganas     : Further ROCIS development; embedding schemes. LFT, Crystal Embedding 
  Dimitrios Pantazis     : SARC Basis sets                               
  Anastasios Papadopoulos: AUTO-CI, single reference methods and gradients 
  Taras Petrenko         : pre 6.0 DFT Hessian and TD-DFT gradient, (ASA, deprecated), ECA, 1-Electron XAS/XES, NRVS 
  Peter Pinski           : DLPNO-MP2, DLPNO-MP2 Gradient                 
  Christoph Reimann      : Effective Core Potentials                     
  Marius Retegan         : Local ZFS, SOC                                
  Christoph Riplinger    : Optimizer, TS searches, QM/MM, DLPNO-CCSD(T), (RO)-DLPNO pert. Triples 
  Michael Roemelt        : Original ROCIS implementation                 
  Masaaki Saitow         : Open-shell DLPNO-CCSD energy and density      
  Barbara Sandhoefer     : DKH picture change effects                    
  Kantharuban Sivalingam : CASSCF convergence/infrastructure, NEVPT2 and variants, FIC-MRCI 
  Bernardo de Souza      : ESD, SOC TD-DFT                               
  Georgi L. Stoychev     : AutoAux, RI-MP2 NMR, DLPNO-MP2 response, X2C  
  Van Anh Tran           : RI-MP2 g-tensors                              
  Willem Van den Heuvel  : Paramagnetic NMR                              
  Zikuan Wang            : NOTCH, Electric field optimization            
  Frank Wennmohs         : Technical directorship and infrastructure     
  Hang Xu                : AUTO-CI-Response properties                   
                                                                         
[FACCTs GmbH]                                                            
  Markus Bursch, Miquel Garcia-Rates, Christoph Riplinger, Bernardo de Souza, Georgi L. Stoychev 
                                                                 
  APM, Basis sets (HGBS, AHGBS, def-TZVP (Ac-Lr), def2-XVPD (La-Lu)), CI-OPT, improved COSX, DLPNO-Multilevel,           
  DOCKER, DRACO, updates on ESD, GOAT, IRC, LR-CPCM, MBIS, meta-GGA TD-DFT gradient, ML-optimized integration grids, 
  MM, NACMEs, nearIR, NEB, NEB-TS, NL-DFT gradient (VV10), 2- and 3-layer-ONIOM, interface openCOSMO-RS, QMMM,   
  Crystal-QMMM, SF, symmetry and pop. for TD-DFT, r2SCAN hybrids, SOLVATOR                                   
                                                                         
[Other institutions]                                                     
  V. Asgeirsson          : NEB                                           
  Christoph Bannwarth    : sTDA-DFT, sTD-DFT, PBEh-3c, B97-3c, D3        
  Sebastian Ehlert       : rSCAN, r2SCAN, r2SCAN-3c, D4, dhf basis sets  
  Marvin Friede          : D4 for Fr, Ra, Ac-Lr                          
  Lars Goerigk           : TD-DFT with DH, B97 family of functionals     
  Stefan Grimme          : VdW corrections, initial TS optimization, DFT functionals, gCP, sTDA/sTD-DF 
  Waldemar Hujo          : DFT-NL                                        
  H. Jonsson             : NEB                                           
  Holger Kruse           : gCP                                           
  Marcel Mueller         : wB97X-3c, vDZP basis set                      
  Hagen Neugebauer       : wr2SCAN                                       
  Tobias Risthaus        : range-separated hybrid DFT                    
  Lukas Wittmann         : regularized MP2, r2SCAN double-hybrids, wr2SCAN        
                                                                         
We gratefully acknowledge several colleagues who have allowed us to      
interface, adapt or use parts of their codes:                            
  Ed Valeev, F. Pavosevic, A. Kumar             : LibInt (2-el integral package), F12 methods 
  Garnet Chan, S. Sharma, J. Yang, R. Olivares  : DMRG                   
  Ulf Ekstrom                                   : XCFun DFT Library      
  Mihaly Kallay                                 : mrcc  (arbitrary order and MRCC methods)
  Frank Weinhold                                : gennbo (NPA and NBO analysis)           
  Simon Mueller                                 : openCOSMO-RS                            
  Christopher J. Cramer and Donald G. Truhlar   : smd solvation model                     
  S Lehtola, MJT Oliveira, MAL Marques          : LibXC Library                           
  Liviu Ungur et al                             : ANISO software                          


 Your calculation uses the libint2 library for the computation of 2-el integrals
 For citations please refer to: http://libint.valeyev.net

 Your ORCA version has been built with support for libXC version: 6.2.2
 For citations please refer to: https://libxc.gitlab.io

 This ORCA versions uses:
   CBLAS   interface :  Fast vector & matrix operations
   LAPACKE interface :  Fast linear algebra routines
   SCALAPACK package :  Parallel linear algebra routines
   Shared memory     :  Shared parallel matrices
   BLAS/LAPACK       :  OpenBLAS 0.3.27  USE64BITINT DYNAMIC_ARCH NO_AFFINITY SkylakeX SINGLE_THREADED
        Core in use  :  SkylakeX
   Copyright (c) 2011-2014, The OpenBLAS Project


NOTE: MaxCore=8000 MB was set to SCF,MP2,MDCI,CIPSI,MRCI and CIS
      => If you want to overwrite this, your respective input block should be placed after the MaxCore statement
Your calculation utilizes the atom-pairwise dispersion correction
with the Becke-Johnson damping scheme (D3BJ)


Your calculation utilizes the SMD solvation module
Please cite in your paper:
A.V. Marenich, C.J. Cramer, D.G. Truhlar J. Phys. Chem. B, 113, (2009), 6378 

Warning: RI is on but no J-basis has been assigned. Assigning Def2/J (nothing to worry about!)
================================================================================

----- Orbital basis set information -----
Your calculation utilizes the basis: def2-TZVP
   F. Weigend and R. Ahlrichs, Phys. Chem. Chem. Phys. 7, 3297 (2005).

----- AuxJ basis set information -----
Your calculation utilizes the auxiliary basis: def2/J
   F. Weigend, Phys. Chem. Chem. Phys. 8, 1057 (2006).

================================================================================
                                        WARNINGS
                       Please study these warnings very carefully!
================================================================================



WARNING: SCAN, rSCAN, or r2SCAN functional requested.
  ===> : libXC variant has now been activated.



WARNING: your system is open-shell and RHF/RKS was chosen
  ===> : WILL SWITCH to UHF/UKS


WARNING: Geometry Optimization
  ===> : Switching off AutoStart
         For restart on a previous wavefunction, please use MOREAD

================================================================================
                                       INPUT FILE
================================================================================
NAME = rf_mecn_1H2O_opt_r2s_con_002.inp
|  1> !r2scanh def2-TZVP opt d3 TightSCF SlowConv defgrid2
|  2>  
|  3> %pal
|  4> nprocs 20
|  5> end
|  6>  
|  7> %scf
|  8> MaxIter 1500
|  9> end
| 10>  
| 11> %maxcore 8000
| 12>  
| 13> !CPCM
| 14> %cpcm smd true
| 15> SMDsolvent "ACETONITRILE"
| 16> end
| 17>  
| 18> * xyz -1 2
| 19> 6        6.857281000     27.901753000      3.100720000
| 20> 6        6.154045000     26.704598000      2.411136000
| 21> 6        7.086540000     25.482838000      2.185614000
| 22> 6        6.299617000     24.171731000      1.900071000
| 23> 6        7.185882000     23.070259000      1.248992000
| 24> 6        6.565391000     21.647303000      1.360367000
| 25> 6        7.185682000     20.616666000      0.394673000
| 26> 6        6.843395000     19.121603000      0.784431000
| 27> 9        8.006807000     28.182557000      2.503586000
| 28> 9        7.082781000     27.647576000      4.378926000
| 29> 9        6.067589000     28.966668000      3.018349000
| 30> 9        5.116419000     26.361022000      3.182511000
| 31> 9        5.702796000     27.135986000      1.230361000
| 32> 9        7.887906000     25.777720000      1.156932000
| 33> 9        7.829892000     25.318192000      3.287322000
| 34> 9        5.806495000     23.745652000      3.066653000
| 35> 9        5.287432000     24.474179000      1.076604000
| 36> 9        7.350610000     23.413929000     -0.034316000
| 37> 9        6.756127000     21.255165000      2.631171000
| 38> 9        5.250982000     21.784657000      1.133609000
| 39> 9        6.706597000     20.903759000     -0.845345000
| 40> 9        8.519171000     20.869305000      0.364164000
| 41> 8        7.813742000     18.363469000      0.789216000
| 42> 8        5.634556000     18.967368000      0.997889000
| 43> 8        2.818390000     18.736600000      1.412613000
| 44> 1        2.716934000     17.791620000      1.243556000
| 45> 1        3.748071000     18.906228000      1.215687000
| 46> *
| 47> 
| 48>                          ****END OF INPUT****
================================================================================

                       *****************************
                       * Geometry Optimization Run *
                       *****************************

Geometry optimization settings:
Update method            Update   .... BFGS
Choice of coordinates    CoordSys .... (2022) Redundant Internals
Initial Hessian          InHess   .... Almloef's Model
Max. no of cycles        MaxIter  .... 81

Convergence Tolerances:
Energy Change            TolE     ....  5.0000e-06 Eh
Max. Gradient            TolMAXG  ....  3.0000e-04 Eh/bohr
RMS Gradient             TolRMSG  ....  1.0000e-04 Eh/bohr
Max. Displacement        TolMAXD  ....  4.0000e-03 bohr
RMS Displacement         TolRMSD  ....  2.0000e-03 bohr
Strict Convergence                .... False

------------------------------------------------------------------------------
                        ORCA OPTIMIZATION COORDINATE SETUP
------------------------------------------------------------------------------

The optimization will be done in redundant internal coordinates (2022)
Making redundant internal coordinates   ...  (2022 redundants) done
Evaluating the initial hessian          ...  (Almloef) done
Evaluating the coordinates              ...  done
Calculating the B-matrix                .... done
Calculating the G-matrix                .... done
Diagonalizing the G-matrix              .... done
Small eigenvalue found = 2.463e-03
Small eigenvalue found = 9.250e-03
Small eigenvalue found = 1.177e-02
Small eigenvalue found = 2.637e-02
The first mode is                       ....   39
The number of degrees of freedom        ....   75

    -----------------------------------------------------------------
                    Redundant Internal Coordinates


    -----------------------------------------------------------------
         Definition                    Initial Value    Approx d2E/dq
    -----------------------------------------------------------------
      1. B(C   1,C   0)                  1.5502         0.346804   
      2. B(C   2,C   1)                  1.5534         0.342781   
      3. B(C   3,C   2)                  1.5556         0.340086   
      4. B(C   4,C   3)                  1.5565         0.338954   
      5. B(C   5,C   4)                  1.5563         0.339111   
      6. B(C   6,C   5)                  1.5426         0.356709   
      7. B(C   7,C   6)                  1.5825         0.308055   
      8. B(F   8,C   0)                  1.3255         0.659090   
      9. B(F   9,C   0)                  1.3226         0.666042   
     10. B(F  10,C   0)                  1.3283         0.652181   
     11. B(F  11,C   1)                  1.3378         0.629847   
     12. B(F  12,C   1)                  1.3356         0.634870   
     13. B(F  13,C   2)                  1.3369         0.631928   
     14. B(F  14,C   2)                  1.3392         0.626649   
     15. B(F  15,C   3)                  1.3363         0.633409   
     16. B(F  16,C   3)                  1.3394         0.626090   
     17. B(F  17,C   4)                  1.3387         0.627782   
     18. B(F  18,C   5)                  1.3435         0.616728   
     19. B(F  19,C   5)                  1.3409         0.622782   
     20. B(F  20,C   6)                  1.3600         0.580545   
     21. B(F  21,C   6)                  1.3576         0.585779   
     22. B(O  22,C   7)                  1.2314         1.002075   
     23. B(O  23,C   7)                  1.2372         0.981004   
     24. B(H  25,O  24)                  0.9653         0.509875   
     25. B(H  26,O  23)                  1.9000         0.016453   
     26. B(H  26,O  24)                  0.9653         0.509876   
     27. A(F   9,C   0,F  10)          108.3827         0.434046   
     28. A(C   1,C   0,F  10)          108.7739         0.390821   
     29. A(C   1,C   0,F   8)          110.8930         0.391542   
     30. A(F   8,C   0,F   9)          109.1619         0.434870   
     31. A(C   1,C   0,F   9)          111.0282         0.392261   
     32. A(F   8,C   0,F  10)          108.5307         0.433227   
     33. A(C   2,C   1,F  11)          110.3230         0.387660   
     34. A(C   0,C   1,C   2)          113.5553         0.353571   
     35. A(C   0,C   1,F  11)          107.0787         0.388450   
     36. A(F  11,C   1,F  12)          109.3079         0.427641   
     37. A(C   2,C   1,F  12)          109.1769         0.388197   
     38. A(C   0,C   1,F  12)          107.2827         0.388989   
     39. A(C   3,C   2,F  14)          109.1587         0.386784   
     40. A(F  13,C   2,F  14)          109.1107         0.426896   
     41. A(C   1,C   2,C   3)          112.6983         0.352402   
     42. A(C   1,C   2,F  14)          108.0873         0.387316   
     43. A(C   3,C   2,F  13)          110.3587         0.387350   
     44. A(C   1,C   2,F  13)          107.3405         0.387883   
     45. A(F  15,C   3,F  16)          109.2595         0.427007   
     46. A(C   4,C   3,F  16)          109.4458         0.386499   
     47. A(C   2,C   3,F  16)          107.7470         0.386724   
     48. A(C   4,C   3,F  15)          110.4668         0.387282   
     49. A(C   2,C   3,C   4)          112.6559         0.351734   
     50. A(C   2,C   3,F  15)          107.1682         0.387508   
     51. A(C   5,C   4,F  17)          110.6326         0.386712   
     52. A(C   3,C   4,F  17)          106.8213         0.386681   
     53. A(C   3,C   4,C   5)          112.9589         0.351563   
     54. A(C   6,C   5,F  18)          109.8795         0.388932   
     55. A(C   4,C   5,F  18)          106.1374         0.385517   
     56. A(C   4,C   5,C   6)          113.9380         0.354615   
     57. A(F  18,C   5,F  19)          109.2091         0.424568   
     58. A(C   6,C   5,F  19)          110.9006         0.389596   
     59. A(C   4,C   5,F  19)          106.5622         0.386174   
     60. A(C   5,C   6,C   7)          112.9578         0.348903   
     61. A(F  20,C   6,F  21)          106.6335         0.415450   
     62. A(C   7,C   6,F  21)          113.1920         0.375779   
     63. A(C   5,C   6,F  21)          106.5420         0.385457   
     64. A(C   7,C   6,F  20)          110.3532         0.375197   
     65. A(C   5,C   6,F  20)          106.7446         0.384856   
     66. A(O  22,C   7,O  23)          133.8297         0.508781   
     67. A(C   6,C   7,O  23)          111.8150         0.413089   
     68. A(C   6,C   7,O  22)          114.3410         0.414652   
     69. A(C   7,O  23,H  26)          173.6796         0.231741   
     70. A(H  25,O  24,H  26)          103.7396         0.319779   
     71. A(O  23,H  26,O  24)          170.1504         0.195092   
     72. D(F  11,C   1,C   0,F   9)     49.4768         0.009705   
     73. D(C   2,C   1,C   0,F   8)     48.9947         0.009705   
     74. D(C   2,C   1,C   0,F  10)    168.2729         0.009705   
     75. D(F  11,C   1,C   0,F  10)    -69.7011         0.009705   
     76. D(F  11,C   1,C   0,F   8)    171.0207         0.009705   
     77. D(C   2,C   1,C   0,F   9)    -72.5492         0.009705   
     78. D(C   3,C   2,C   1,C   0)    162.7875         0.009500   
     79. D(F  13,C   2,C   1,F  12)     44.1537         0.009500   
     80. D(F  13,C   2,C   1,F  11)    164.2939         0.009500   
     81. D(F  13,C   2,C   1,C   0)    -75.4998         0.009500   
     82. D(C   3,C   2,C   1,F  11)     42.5812         0.009500   
     83. D(C   3,C   2,C   1,F  12)    -77.5590         0.009500   
     84. D(C   4,C   3,C   2,F  14)    -77.7232         0.009364   
     85. D(C   4,C   3,C   2,F  13)     42.1846         0.009364   
     86. D(C   4,C   3,C   2,C   1)    162.1720         0.009364   
     87. D(F  15,C   3,C   2,F  14)     43.9807         0.009364   
     88. D(F  15,C   3,C   2,F  13)    163.8885         0.009364   
     89. D(F  15,C   3,C   2,C   1)    -76.1241         0.009364   
     90. D(F  17,C   4,C   3,C   2)    -75.9715         0.008735   
     91. D(C   5,C   4,C   3,F  16)    -77.9884         0.008735   
     92. D(C   5,C   4,C   3,F  15)     42.3521         0.008735   
     93. D(F  17,C   4,C   3,F  15)    164.2137         0.008735   
     94. D(C   5,C   4,C   3,C   2)    162.1669         0.008735   
     95. D(F  19,C   5,C   4,C   3)     40.5013         0.008743   
     96. D(F  18,C   5,C   4,F  17)    164.4895         0.008743   
     97. D(F  18,C   5,C   4,C   3)    -75.8189         0.008743   
     98. D(C   6,C   5,C   4,F  17)     43.4416         0.008743   
     99. D(C   6,C   5,C   4,C   3)    163.1331         0.008743   
    100. D(C   7,C   6,C   5,F  19)    -75.6808         0.010222   
    101. D(C   7,C   6,C   5,F  18)     45.1557         0.010222   
    102. D(C   7,C   6,C   5,C   4)    164.0956         0.010222   
    103. D(F  20,C   6,C   5,F  19)     45.7788         0.010222   
    104. D(F  20,C   6,C   5,F  18)    166.6154         0.010222   
    105. D(F  20,C   6,C   5,C   4)    -74.4447         0.010222   
    106. D(O  23,C   7,C   6,F  20)    -70.5516         0.007386   
    107. D(O  23,C   7,C   6,C   5)     48.8461         0.007386   
    108. D(O  22,C   7,C   6,F  21)    -11.1459         0.007386   
    109. D(O  22,C   7,C   6,F  20)    108.2663         0.007386   
    110. D(O  22,C   7,C   6,C   5)   -132.3360         0.007386   
    111. D(H  26,O  23,C   7,O  22)   -158.3762         0.078375   
    112. D(H  26,O  23,C   7,C   6)     20.1308         0.078375   
    113. D(O  23,H  26,O  24,H  25)    -44.6421         0.289651   
    114. D(O  24,H  26,O  23,C   7)   -179.9999         0.001625   
    -----------------------------------------------------------------

Number of atoms                         .... 27
Number of degrees of freedom            .... 114


         *************************************************************
         *                GEOMETRY OPTIMIZATION CYCLE   1            *
         *************************************************************
---------------------------------
CARTESIAN COORDINATES (ANGSTROEM)
---------------------------------
  C      6.857281   27.901753    3.100720
  C      6.154045   26.704598    2.411136
  C      7.086540   25.482838    2.185614
  C      6.299617   24.171731    1.900071
  C      7.185882   23.070259    1.248992
  C      6.565391   21.647303    1.360367
  C      7.185682   20.616666    0.394673
  C      6.843395   19.121603    0.784431
  F      8.006807   28.182557    2.503586
  F      7.082781   27.647576    4.378926
  F      6.067589   28.966668    3.018349
  F      5.116419   26.361022    3.182511
  F      5.702796   27.135986    1.230361
  F      7.887906   25.777720    1.156932
  F      7.829892   25.318192    3.287322
  F      5.806495   23.745652    3.066653
  F      5.287432   24.474179    1.076604
  F      7.350610   23.413929   -0.034316
  F      6.756127   21.255165    2.631171
  F      5.250982   21.784657    1.133609
  F      6.706597   20.903759   -0.845345
  F      8.519171   20.869305    0.364164
  O      7.813742   18.363469    0.789216
  O      5.634556   18.967368    0.997889
  O      2.818390   18.736600    1.412613
  H      2.716934   17.791620    1.243556
  H      3.748071   18.906228    1.215687

----------------------------
CARTESIAN COORDINATES (A.U.)
----------------------------
  NO LB      ZA    FRAG     MASS         X           Y           Z
   0 C     6.0000    0    12.011   12.958383   52.726672    5.859512
   1 C     6.0000    0    12.011   11.629460   50.464377    4.556387
   2 C     6.0000    0    12.011   13.391620   48.155585    4.130212
   3 C     6.0000    0    12.011   11.904551   45.677952    3.590614
   4 C     6.0000    0    12.011   13.579349   43.596471    2.360253
   5 C     6.0000    0    12.011   12.406791   40.907474    2.570721
   6 C     6.0000    0    12.011   13.578971   38.959853    0.745824
   7 C     6.0000    0    12.011   12.932142   36.134593    1.482360
   8 F     9.0000    0    18.998   15.130672   53.257314    4.731092
   9 F     9.0000    0    18.998   13.384516   52.246347    8.274971
  10 F     9.0000    0    18.998   11.466082   54.739070    5.703853
  11 F     9.0000    0    18.998    9.668631   49.815112    6.014074
  12 F     9.0000    0    18.998   10.776723   51.279582    2.325045
  13 F     9.0000    0    18.998   14.905982   48.712831    2.186285
  14 F     9.0000    0    18.998   14.796352   47.844449    6.212138
  15 F     9.0000    0    18.998   10.972685   44.872779    5.795134
  16 F     9.0000    0    18.998    9.991798   46.249496    2.034487
  17 F     9.0000    0    18.998   13.890640   44.245914   -0.064848
  18 F     9.0000    0    18.998   12.767230   40.166441    4.972193
  19 F     9.0000    0    18.998    9.922918   41.167036    2.142211
  20 F     9.0000    0    18.998   12.673632   39.502380   -1.597471
  21 F     9.0000    0    18.998   16.098900   39.437271    0.688170
  22 O     8.0000    0    15.999   14.765832   34.701927    1.491402
  23 O     8.0000    0    15.999   10.647768   35.843131    1.885737
  24 O     8.0000    0    15.999    5.325985   35.407043    2.669452
  25 H     1.0000    0     1.008    5.134261   33.621289    2.349980
  26 H     1.0000    0     1.008    7.082828   35.727593    2.297315

--------------------------------
INTERNAL COORDINATES (ANGSTROEM)
--------------------------------
 C      0   0   0     0.000000000000     0.00000000     0.00000000
 C      1   0   0     1.550240967971     0.00000000     0.00000000
 C      2   1   0     1.553417070561   113.55533844     0.00000000
 C      3   2   1     1.555565549319   112.69827683   162.78749478
 C      4   3   2     1.556473604418   112.65593685   162.17204174
 C      5   4   3     1.556347406475   112.95890429   162.16693919
 C      6   5   4     1.542575266263   113.93798420   163.13314068
 C      7   6   5     1.582493305800   112.95775891   164.09560104
 F      1   2   3     1.325454610708   110.89295443    48.99470066
 F      1   2   3     1.322598493786   111.02821211   287.45080856
 F      1   2   3     1.328323151093   108.77385697   168.27294708
 F      2   1   3     1.337808496862   107.07872998   122.02597894
 F      2   1   3     1.335646235786   107.28270546   239.27402584
 F      3   2   1     1.336910437166   107.34054952   284.50021141
 F      3   2   1     1.339194167581   108.08730739    42.06766241
 F      4   3   2     1.336273244456   107.16821115   283.87589533
 F      4   3   2     1.339436884298   107.74698212    41.35047990
 F      5   4   3     1.338702284210   106.82131950   284.02853646
 F      6   5   4     1.343538328131   106.13743735   284.18106314
 F      6   5   4     1.340878939786   106.56217547    40.50128759
 F      7   6   5     1.359996128008   106.74461671   285.55525164
 F      7   6   5     1.357553010576   106.54195382    39.20780969
 O      8   7   6     1.231407064536   114.34099629   227.66396244
 O      8   7   6     1.237192176224   111.81500307    48.84611502
 O     24   8   7     2.855878289696   176.99439615    20.13060346
 H     25  24   8     0.965329368446    99.05066579   136.27709331
 H     25  24   8     0.965329099127     6.53483163     0.00000000

---------------------------
INTERNAL COORDINATES (A.U.)
---------------------------
 C      0   0   0     0.000000000000     0.00000000     0.00000000
 C      1   0   0     2.929530871051     0.00000000     0.00000000
 C      2   1   0     2.935532835118   113.55533844     0.00000000
 C      3   2   1     2.939592871575   112.69827683   162.78749478
 C      4   3   2     2.941308847027   112.65593685   162.17204174
 C      5   4   3     2.941070367477   112.95890429   162.16693919
 C      6   5   4     2.915044794198   113.93798420   163.13314068
 C      7   6   5     2.990478956726   112.95775891   164.09560104
 F      1   2   3     2.504746217182   110.89295443    48.99470066
 F      1   2   3     2.499348938392   111.02821211   287.45080856
 F      1   2   3     2.510166972913   108.77385697   168.27294708
 F      2   1   3     2.528091678703   107.07872998   122.02597894
 F      2   1   3     2.524005597439   107.28270546   239.27402584
 F      3   2   1     2.526394591825   107.34054952   284.50021141
 F      3   2   1     2.530710216873   108.08730739    42.06766241
 F      4   3   2     2.525190472108   107.16821115   283.87589533
 F      4   3   2     2.531168884996   107.74698212    41.35047990
 F      5   4   3     2.529780692011   106.82131950   284.02853646
 F      6   5   4     2.538919490593   106.13743735   284.18106314
 F      6   5   4     2.533893974938   106.56217547    40.50128759
 F      7   6   5     2.570020225129   106.74461671   285.55525164
 F      7   6   5     2.565403402268   106.54195382    39.20780969
 O      8   7   6     2.327022111350   114.34099629   227.66396244
 O      8   7   6     2.337954388093   111.81500307    48.84611502
 O     24   8   7     5.396827839337   176.99439615    20.13060346
 H     25  24   8     1.824208135395    99.05066579   136.27709331
 H     25  24   8     1.824207626455     6.53483163     0.00000000

---------------------
BASIS SET INFORMATION
---------------------
There are 4 groups of distinct atoms

 Group   1 Type C   : 11s6p2d1f contracted to 5s3p2d1f pattern {62111/411/11/1}
 Group   2 Type F   : 11s6p2d1f contracted to 5s3p2d1f pattern {62111/411/11/1}
 Group   3 Type O   : 11s6p2d1f contracted to 5s3p2d1f pattern {62111/411/11/1}
 Group   4 Type H   : 5s1p contracted to 3s1p pattern {311/1}

Atom   0C    basis set group =>   1
Atom   1C    basis set group =>   1
Atom   2C    basis set group =>   1
Atom   3C    basis set group =>   1
Atom   4C    basis set group =>   1
Atom   5C    basis set group =>   1
Atom   6C    basis set group =>   1
Atom   7C    basis set group =>   1
Atom   8F    basis set group =>   2
Atom   9F    basis set group =>   2
Atom  10F    basis set group =>   2
Atom  11F    basis set group =>   2
Atom  12F    basis set group =>   2
Atom  13F    basis set group =>   2
Atom  14F    basis set group =>   2
Atom  15F    basis set group =>   2
Atom  16F    basis set group =>   2
Atom  17F    basis set group =>   2
Atom  18F    basis set group =>   2
Atom  19F    basis set group =>   2
Atom  20F    basis set group =>   2
Atom  21F    basis set group =>   2
Atom  22O    basis set group =>   3
Atom  23O    basis set group =>   3
Atom  24O    basis set group =>   3
Atom  25H    basis set group =>   4
Atom  26H    basis set group =>   4
---------------------------------
AUXILIARY/J BASIS SET INFORMATION
---------------------------------
There are 4 groups of distinct atoms

 Group   1 Type C   : 12s5p4d2f1g contracted to 6s4p3d1f1g pattern {711111/2111/211/2/1}
 Group   2 Type F   : 12s5p4d2f1g contracted to 6s4p3d1f1g pattern {711111/2111/211/2/1}
 Group   3 Type O   : 12s5p4d2f1g contracted to 6s4p3d1f1g pattern {711111/2111/211/2/1}
 Group   4 Type H   : 5s2p1d contracted to 3s1p1d pattern {311/2/1}

Atom   0C    basis set group =>   1
Atom   1C    basis set group =>   1
Atom   2C    basis set group =>   1
Atom   3C    basis set group =>   1
Atom   4C    basis set group =>   1
Atom   5C    basis set group =>   1
Atom   6C    basis set group =>   1
Atom   7C    basis set group =>   1
Atom   8F    basis set group =>   2
Atom   9F    basis set group =>   2
Atom  10F    basis set group =>   2
Atom  11F    basis set group =>   2
Atom  12F    basis set group =>   2
Atom  13F    basis set group =>   2
Atom  14F    basis set group =>   2
Atom  15F    basis set group =>   2
Atom  16F    basis set group =>   2
Atom  17F    basis set group =>   2
Atom  18F    basis set group =>   2
Atom  19F    basis set group =>   2
Atom  20F    basis set group =>   2
Atom  21F    basis set group =>   2
Atom  22O    basis set group =>   3
Atom  23O    basis set group =>   3
Atom  24O    basis set group =>   3
Atom  25H    basis set group =>   4
Atom  26H    basis set group =>   4


           ************************************************************
           *        Program running with 20 parallel MPI-processes    *
           *              working on a common directory               *
           ************************************************************
------------------------------------------------------------------------------
                             ORCA STARTUP CALCULATIONS
                           -- RI-GTO INTEGRALS CHOSEN --
------------------------------------------------------------------------------
------------------------------------------------------------------------------
                   ___                                                        
                  /   \      - P O W E R E D   B Y -                         
                 /     \                                                     
                 |  |  |   _    _      __       _____    __    __             
                 |  |  |  | |  | |    /  \     |  _  \  |  |  /  |          
                  \  \/   | |  | |   /    \    | | | |  |  | /  /          
                 / \  \   | |__| |  /  /\  \   | |_| |  |  |/  /          
                |  |  |   |  __  | /  /__\  \  |    /   |      \           
                |  |  |   | |  | | |   __   |  |    \   |  |\   \          
                \     /   | |  | | |  |  |  |  | |\  \  |  | \   \       
                 \___/    |_|  |_| |__|  |__|  |_| \__\ |__|  \__/        
                                                                              
                      - O R C A' S   B I G   F R I E N D -                    
                                      &                                       
                       - I N T E G R A L  F E E D E R -                       
                                                                              
 v1 FN, 2020, v2 2021, v3 2022-2024                                           
------------------------------------------------------------------------------


----------------------
SHARK INTEGRAL PACKAGE
----------------------

Number of atoms                             ...     27
Number of basis functions                   ...    787
Number of shells                            ...    283
Maximum angular momentum                    ...      3
Integral batch strategy                     ... SHARK/LIBINT Hybrid
RI-J (if used) integral strategy            ... SPLIT-RIJ (Revised 2003 algorithm where possible)
Printlevel                                  ...      1
Contraction scheme used                     ... SEGMENTED contraction
Prescreening option                         ... SCHWARTZ
   Thresh                                   ... 2.500e-11
   Tcut                                     ... 2.500e-12
   Tpresel                                  ... 2.500e-12 
Coulomb Range Separation                    ... NOT USED
Exchange Range Separation                   ... NOT USED
Multipole approximations                    ... NOT USED
Finite Nucleus Model                        ... NOT USED
CABS basis                                  ... NOT available
Auxiliary Coulomb fitting basis             ... AVAILABLE
   # of basis functions in Aux-J            ...   1247
   # of shells in Aux-J                     ...    385
   Maximum angular momentum in Aux-J        ...      4
Auxiliary J/K fitting basis                 ... NOT available
Auxiliary Correlation fitting basis         ... NOT available
Auxiliary 'external' fitting basis          ... NOT available

Checking pre-screening integrals            ... done (  0.0 sec) Dimension = 283
Check shell pair data                       ... done (  0.0 sec)
Shell pair information
Shell pair cut-off parameter TPreSel        ...   2.5e-12
Total number of shell pairs                 ...     40186
Shell pairs after pre-screening             ...     23524
Total number of primitive shell pairs       ...    131884
Primitive shell pairs kept                  ...     49490
          la=0 lb=0:   4569 shell pairs
          la=1 lb=0:   6476 shell pairs
          la=1 lb=1:   2222 shell pairs
          la=2 lb=0:   3469 shell pairs
          la=2 lb=1:   2521 shell pairs
          la=2 lb=2:    697 shell pairs
          la=3 lb=0:   1580 shell pairs
          la=3 lb=1:   1202 shell pairs
          la=3 lb=2:    634 shell pairs
          la=3 lb=3:    154 shell pairs

Calculating one electron integrals          ... done (  0.0 sec)
Calculating RI/J V-Matrix + Cholesky decomp.... done (  0.1 sec)
Calculating Nuclear repulsion               ... done (  0.0 sec) ENN=   2802.103269355288 Eh

Diagonalization of the overlap matrix:
Smallest eigenvalue                        ... 5.656e-05
Time for diagonalization                   ...    0.114 sec
Threshold for overlap eigenvalues          ... 1.000e-07
Number of eigenvalues below threshold      ... 0
Time for construction of square roots      ...    0.052 sec
Total time needed                          ...    0.174 sec

-------------------
DFT GRID GENERATION
-------------------

General Integration Accuracy     IntAcc      ... 4.388
Radial Grid Type                 RadialGrid  ... OptM3 with GC (2021)
Angular Grid (max. ang.)         AngularGrid ... 4 (Lebedev-302)
Angular grid pruning method      GridPruning ... 4 (adaptive)
Weight generation scheme         WeightScheme... mBecke (2022)
Basis function cutoff            BFCut       ... 1.0000e-11
Integration weight cutoff        WCut        ... 1.0000e-14
Partially contracted basis set               ... off
Rotationally invariant grid construction     ... off
Angular grids for H and He will be reduced by one unit

Total number of grid points                  ...   158079
Total number of batches                      ...     2483
Average number of points per batch           ...       63
Average number of grid points per atom       ...     5855

--------------------
COSX GRID GENERATION
--------------------

GRIDX 1
-------
General Integration Accuracy     IntAcc      ... 3.816
Radial Grid Type                 RadialGrid  ... OptM3 with GC (2021)
Angular Grid (max. ang.)         AngularGrid ... 1 (Lebedev-50)
Angular grid pruning method      GridPruning ... 4 (adaptive)
Weight generation scheme         WeightScheme... mBecke (2022)
Basis function cutoff            BFCut       ... 1.0000e-11
Integration weight cutoff        WCut        ... 1.0000e-14
Partially contracted basis set               ... on
Rotationally invariant grid construction     ... off
Angular grids for H and He will be reduced by one unit

Total number of grid points                  ...    19906
Total number of batches                      ...      167
Average number of points per batch           ...      119
Average number of grid points per atom       ...      737
UseSFitting                                  ... on

GRIDX 2
-------
General Integration Accuracy     IntAcc      ... 4.020
Radial Grid Type                 RadialGrid  ... OptM3 with GC (2021)
Angular Grid (max. ang.)         AngularGrid ... 2 (Lebedev-110)
Angular grid pruning method      GridPruning ... 4 (adaptive)
Weight generation scheme         WeightScheme... mBecke (2022)
Basis function cutoff            BFCut       ... 1.0000e-11
Integration weight cutoff        WCut        ... 1.0000e-14
Partially contracted basis set               ... on
Rotationally invariant grid construction     ... off
Angular grids for H and He will be reduced by one unit

Total number of grid points                  ...    46642
Total number of batches                      ...      379
Average number of points per batch           ...      123
Average number of grid points per atom       ...     1727
UseSFitting                                  ... on

GRIDX 3
-------
General Integration Accuracy     IntAcc      ... 4.338
Radial Grid Type                 RadialGrid  ... OptM3 with GC (2021)
Angular Grid (max. ang.)         AngularGrid ... 3 (Lebedev-194)
Angular grid pruning method      GridPruning ... 4 (adaptive)
Weight generation scheme         WeightScheme... mBecke (2022)
Basis function cutoff            BFCut       ... 1.0000e-11
Integration weight cutoff        WCut        ... 1.0000e-14
Partially contracted basis set               ... on
Rotationally invariant grid construction     ... off
Angular grids for H and He will be reduced by one unit

Total number of grid points                  ...   103267
Total number of batches                      ...      819
Average number of points per batch           ...      126
Average number of grid points per atom       ...     3825
UseSFitting                                  ... on
Initializing property integral containers    ... done (  0.0 sec)

SHARK setup successfully completed in   3.1 seconds

Maximum memory used throughout the entire STARTUP-calculation: 60.3 MB


           ************************************************************
           *        Program running with 20 parallel MPI-processes    *
           *              working on a common directory               *
           ************************************************************
-------------------------------------------------------------------------------
                                 ORCA GUESS
                   Start orbitals & Density for SCF / CASSCF
-------------------------------------------------------------------------------

------------
SCF SETTINGS
------------
Hamiltonian:
 Density Functional     Method          .... DFT(GTOs)
  Functional kind                       .... Exchange
  Functional name                       .... Re-regularized SCAN exchange by Furness et al
  Functional family                     .... MGGA
  Functional refs                              
    [ 0] J. W. Furness, A. D. Kaplan, J. Ning, J. P. Perdew, and J. Sun.,  J. Phys. Chem. Lett. 11, 8208-8215 (2020), doi: 10.1021/acs.jpclett.0c02405
    [ 1] J. W. Furness, A. D. Kaplan, J. Ning, J. P. Perdew, and J. Sun.,  J. Phys. Chem. Lett. 11, 9248-9248 (2020), doi: 10.1021/acs.jpclett.0c03077
  Functional external parameters        .... 6
    Parameter  0 _c1        =  6.670000e-01 : c1 parameter        
    Parameter  1 _c2        =  8.000000e-01 : c2 parameter        
    Parameter  2 _d         =  1.240000e+00 : d parameter         
    Parameter  3 _k1        =  6.500000e-02 : k1 parameter        
    Parameter  4 _eta       =  1.000000e-03 : eta parameter       
    Parameter  5 _dp2       =  3.610000e-01 : dp2 parameter       
  Functional kind                       .... Correlation
  Functional name                       .... Re-regularized SCAN correlation by Furness et al
  Functional family                     .... MGGA
  Functional refs                              
    [ 0] J. W. Furness, A. D. Kaplan, J. Ning, J. P. Perdew, and J. Sun.,  J. Phys. Chem. Lett. 11, 8208-8215 (2020), doi: 10.1021/acs.jpclett.0c02405
    [ 1] J. W. Furness, A. D. Kaplan, J. Ning, J. P. Perdew, and J. Sun.,  J. Phys. Chem. Lett. 11, 9248-9248 (2020), doi: 10.1021/acs.jpclett.0c03077
  Functional external parameters        .... 1
    Parameter  0 _eta       =  1.000000e-03 : Regularization parameter
 Gradients option       PostSCFGGA      .... off
 Hybrid DFT is turned on
   Fraction HF Exchange ScalHFX         ....  0.100000
   Scaling of DF-GGA-X  ScalDFX         ....  0.900000
   Scaling of DF-GGA-C  ScalDFC         ....  1.000000
   Scaling of DF-LDA-C  ScalLDAC        ....  1.000000
   Perturbative correction              ....  0.000000
   NL short-range parameter             .... 11.900000
 RI-approximation to the Coulomb term is turned on
   Number of AuxJ basis functions       .... 1247
   RIJ-COSX (HFX calculated with COS-X)).... on


General Settings:
 Integral files         IntName         .... rf_mecn_1H2O_opt_r2s_con_002
 Hartree-Fock type      HFTyp           .... UHF
 Total Charge           Charge          ....   -1
 Multiplicity           Mult            ....    2
 Number of Electrons    NEL             ....  201
 Basis Dimension        Dim             ....  787
 Nuclear Repulsion      ENuc            ....   2802.1032693553 Eh

Convergence Acceleration:
 AO-DIIS                CNVDIIS         .... on
   Start iteration      DIISMaxIt       ....     0
   Startup error        DIISStart       ....  0.200000
   # of expansion vecs  DIISMaxEq       ....     5
   Bias factor          DIISBfac        ....   1.050
   Max. coefficient     DIISMaxC        ....  10.000
 MO-DIIS                CNVKDIIS        .... off
 Trust-Rad. Augm. Hess. CNVTRAH         .... auto
   Auto Start mean grad. ratio tolernc. ....  1.125000
   Auto Start start iteration           ....    50
   Auto Start num. interpolation iter.  ....    10
   Max. Number of Micro iterations      ....    24
   Max. Number of Macro iterations      .... Maxiter - #DIIS iter
   Number of Davidson start vectors     ....     2
   Converg. threshold    (grad. norm)   ....   1.000e-05
   Grad. Scal. Fac. for Micro threshold ....   0.100
   Minimum threshold for Micro iter.    ....   1.000e-02
   NR start threshold (gradient norm)   ....   1.000e-04
   Initial trust radius                 ....   0.400
   Minimum AH scaling param. (alpha)    ....   1.000
   Maximum AH scaling param. (alpha)    .... 1000.000
   Quad. conv. algorithm                .... NR
   White noise on init. David. guess    .... on
   Maximum white noise                  ....   0.010
   Pseudo random numbers                .... off
   Inactive MOs                         .... canonical
   Orbital update algorithm             .... Taylor
   Preconditioner                       .... Diag
   Full preconditioner red. dimension   ....   250
 SOSCF                  CNVSOSCF        .... on
   Start iteration      SOSCFMaxIt      ....   150
   Startup grad/error   SOSCFStart      ....  0.001000
   Hessian update       SOSCFHessUp     .... L-BFGS
 Level Shifting         CNVShift        .... on
   Level shift para.    LevelShift      ....    0.2500
   Turn off err/grad.   ShiftErr        ....    0.0000
 Zerner damping         CNVZerner       .... off
 Static damping         CNVDamp         .... on
   Fraction old density DampFac         ....    0.8500
   Max. Damping (<1)    DampMax         ....    0.9800
   Min. Damping (>=0)   DampMin         ....    0.0000
   Turn off err/grad.   DampErr         ....    0.0300

SCF Procedure:
 Maximum # iterations   MaxIter         ....  1500
 SCF integral mode      SCFMode         .... Direct
   Integral package                     .... SHARK and LIBINT hybrid scheme
 Reset frequency        DirectResetFreq ....    20
 Integral Threshold     Thresh          ....  2.500e-11 Eh
 Primitive CutOff       TCut            ....  2.500e-12 Eh

Convergence Tolerance:
 Convergence Check Mode ConvCheckMode   .... Total+1el-Energy
 Convergence forced     ConvForced      .... 0
 Energy Change          TolE            ....  1.000e-08 Eh
 1-El. energy change                    ....  1.000e-05 Eh
 Orbital Gradient       TolG            ....  1.000e-05
 Orbital Rotation angle TolX            ....  1.000e-05
 DIIS Error             TolErr          ....  5.000e-07

------------------------------
INITIAL GUESS: MODEL POTENTIAL
------------------------------
Loading Hartree-Fock densities                     ... done
Calculating cut-offs                               ... done
Initializing the effective Hamiltonian             ... done
Setting up the integral package (SHARK)            ... done
Starting the Coulomb interaction                   ... done (   0.2 sec)
Making the grid                                    ... done (   0.4 sec)
Mapping shells                                     ... done
Starting the XC term evaluation                    ... done (   0.1 sec)
  promolecular density results
     # of electrons  =    200.000154228
     EX              =   -205.989439369
     EC              =     -7.003352944
     EX+EC           =   -212.992792313
Transforming the Hamiltonian                       ... done (   0.1 sec)
Diagonalizing the Hamiltonian                      ... done (   0.1 sec)
Back transforming the eigenvectors                 ... done (   0.0 sec)
Now organizing SCF variables                       ... done
                      ------------------
                      INITIAL GUESS DONE (   1.0 sec)
                      ------------------
             **** ENERGY FILE WAS UPDATED (rf_mecn_1H2O_opt_r2s_con_002.en.tmp) ****
Finished Guess after   2.0 sec
Maximum memory used throughout the entire GUESS-calculation: 49.0 MB


           ************************************************************
           *        Program running with 20 parallel MPI-processes    *
           *              working on a common directory               *
           ************************************************************

-------------------------------------------------------------------------------------------
                                      ORCA LEAN-SCF
                              memory conserving SCF solver
-------------------------------------------------------------------------------------------

--------------------
CPCM SOLVATION MODEL
--------------------
CPCM parameters:
  Epsilon                                         ...      35.6880
  Refrac                                          ...       1.3442
  Rsolv                                           ...       1.3000
  Surface type                                    ... GAUSSIAN VDW
  Discretization scheme                           ... Constant charge density
    Threshold for H atoms                         ...       5.0000 (charges/Ang^2)
    Threshold for non-H atoms                     ...       5.0000 (charges/Ang^2)
  Epsilon function type                           ...         CPCM
Solvent:                                          ... ACETONITRILE
SMD-CDS solvent descriptors:
  Soln                                            ...       1.3442
  Soln25                                          ...       1.3416
  Sola                                            ...       0.0700
  Solb                                            ...       0.3200
  Solg                                            ...      41.2500
  Solc                                            ...       0.0000
  Solh                                            ...       0.0000
Radii:
  Scheme                                          ... Element-dependent radii
  Radius for C  used is    3.4960 Bohr (=   1.8500 Ang.)
  Radius for F  used is    3.2692 Bohr (=   1.7300 Ang.)
  Radius for O  used is    4.0969 Bohr (=   2.1680 Ang.)
  Radius for H  used is    2.2677 Bohr (=   1.2000 Ang.)
Calculating surface                               ...        done! (  0.0s)
Cavity surface points                             ...         2361
Cavity Volume                                     ...    2314.7460
Cavity Surface-area                               ...    1233.7898
Calculating surface distance matrix               ...        done! (  0.1s)
Performing Cholesky decomposition & store         ...        done! (  0.1s)
Overall time for CPCM initialization              ...                 0.2s

----------------------------------------D-I-I-S--------------------------------------------
Iteration    Energy (Eh)           Delta-E    RMSDP     MaxDP     DIISErr   Damp  Time(sec)
-------------------------------------------------------------------------------------------
               ***  Starting incremental Fock matrix formation  ***
    1    -1929.0311327128324592     0.00e+00  2.57e-04  4.19e-02  1.62e-01  0.850   7.2
Warning: op=0 Small HOMO/LUMO gap (   0.082) - skipping pre-diagonalization
         Will do a full diagonalization
    2    -1929.1797338337605652    -1.49e-01  3.47e-04  8.32e-02  1.15e-01  0.850   4.9
                               ***Turning on AO-DIIS***
    3    -1929.2636418364868405    -8.39e-02  1.74e-04  3.76e-02  7.32e-02  0.850   4.3
    4    -1929.3149948963832685    -5.14e-02  9.37e-05  1.44e-02  5.55e-02  0.850   4.2
    5    -1929.3517720252652907    -3.68e-02  6.05e-05  4.19e-03  4.54e-02  0.850   4.0
    6    -1929.3808981184261029    -2.91e-02  4.74e-05  3.91e-03  3.85e-02  0.850   4.0
    7    -1929.4050493160953010    -2.42e-02  4.14e-05  3.52e-03  3.30e-02  0.850   4.0
    8    -1929.4253768029161620    -2.03e-02  3.62e-05  3.07e-03  2.81e-02  0.850   3.8
    9    -1929.4423221640440715    -1.69e-02  2.06e-04  1.74e-02  2.35e-02  0.000   3.9
   10    -1929.5312281786787025    -8.89e-02  1.61e-05  2.86e-03  3.36e-03  0.000   4.2
                              *** Initializing SOSCF ***
---------------------------------------S-O-S-C-F--------------------------------------
Iteration    Energy (Eh)           Delta-E    RMSDP     MaxDP     MaxGrad    Time(sec)
--------------------------------------------------------------------------------------
   11    -1929.5313483700533652    -1.20e-04  9.66e-06  1.74e-03  9.03e-04     4.1
               *** Restarting incremental Fock matrix formation ***
   12    -1929.5313366313980623     1.17e-05  1.00e-05  1.02e-03  5.64e-04     6.9
   13    -1929.5313318626290311     4.77e-06  7.48e-06  9.14e-04  1.11e-03     4.6
   14    -1929.5313485815700005    -1.67e-05  2.45e-06  2.64e-04  1.18e-04     4.4
   15    -1929.5313482239557743     3.58e-07  1.30e-06  2.41e-04  9.02e-05     4.3
   16    -1929.5313491517167677    -9.28e-07  4.62e-07  3.32e-05  1.67e-05     3.9
   17    -1929.5313491626470750    -1.09e-08  2.06e-07  2.83e-05  1.97e-05     3.6
   18    -1929.5313491848469312    -2.22e-08  1.40e-07  1.92e-05  3.80e-06     3.2
   19    -1929.5313491858173620    -9.70e-10  1.16e-07  2.20e-05  3.70e-06     3.2
                 **** Energy Check signals convergence ****

               *****************************************************
               *                     SUCCESS                       *
               *           SCF CONVERGED AFTER  19 CYCLES          *
               *****************************************************

Recomputing exchange energy using gridx3       ... done (    7.752 sec)
Old exchange energy                            :    -20.815284217 Eh
New exchange energy                            :    -20.815278822 Eh
Exchange energy change after final integration :      0.000005395 Eh
Total energy after final integration           :  -1929.531343791 Eh

SMD CDS free energy correction energy :                 2.97435     Kcal/mol
Total Energy after SMD CDS correction =             -1929.526603863 Eh
             **** ENERGY FILE WAS UPDATED (rf_mecn_1H2O_opt_r2s_con_002.en.tmp) ****

----------------
TOTAL SCF ENERGY
----------------

Total Energy       :      -1929.52660386329967 Eh          -52505.08820 eV

Components:
Nuclear Repulsion  :       2802.10326935528838 Eh           76249.10639 eV
Electronic Energy  :      -4731.55531910982154 Eh         -128752.16587 eV
One Electron Energy:      -8284.21388689845298 Eh         -225424.92024 eV
Two Electron Energy:       3552.65856778863144 Eh           96672.75438 eV
CPCM Dielectric    :         -0.07929943128437 Eh              -2.15785 eV
SMD CDS (Gcds)     :          0.00473992756287 Eh               0.12898 eV

Virial components:
Potential Energy   :      -3852.73941525593455 Eh         -104838.36937 eV
Kinetic Energy     :       1923.21281139263510 Eh           52333.28117 eV
Virial Ratio       :          2.00328294010588

DFT components:
N(Alpha)           :      101.000001379879 electrons
N(Beta)            :       99.999996833213 electrons
N(Total)           :      200.999998213092 electrons
E(X)               :     -188.324797645191 Eh       
E(C)               :       -6.972839207861 Eh       
E(XC)              :     -195.297636853053 Eh       

CPCM Solvation Model Properties:
Surface-charge          :          0.99037544577774
Corrected charge        :          1.00000000000000
Outlying charge corr.   :          0.00000480380326 Eh               0.00013 eV
Free-energy (cav+disp)  :          0.00473992756287 Eh               0.12898 eV

---------------
SCF CONVERGENCE
---------------

  Last Energy change         ...    9.7043e-10  Tolerance :   1.0000e-08
  Last MAX-Density change    ...    2.1970e-05  Tolerance :   1.0000e-07
  Last RMS-Density change    ...    1.1597e-07  Tolerance :   5.0000e-09
  Last DIIS Error            ...    9.0260e-04  Tolerance :   5.0000e-07
  Last Orbital Gradient      ...    3.7024e-06  Tolerance :   1.0000e-05
  Last Orbital Rotation      ...    5.9308e-06  Tolerance :   1.0000e-05


----------------------
UHF SPIN CONTAMINATION
----------------------

Warning: in a DFT calculation there is little theoretical justification to 
         calculate <S**2> as in Hartree-Fock theory. We will do it anyways
         but you should keep in mind that the values have only limited relevance

Expectation value of <S**2>     :     0.755093
Ideal value S*(S+1) for S=0.5   :     0.750000
Deviation                       :     0.005093

----------------
ORBITAL ENERGIES
----------------
                 SPIN UP ORBITALS
  NO   OCC          E(Eh)            E(eV) 
   0   1.0000     -24.730512      -672.9514 
   1   1.0000     -24.729224      -672.9164 
   2   1.0000     -24.729196      -672.9156 
   3   1.0000     -24.728211      -672.8888 
   4   1.0000     -24.727616      -672.8726 
   5   1.0000     -24.727558      -672.8711 
   6   1.0000     -24.727520      -672.8700 
   7   1.0000     -24.725082      -672.8037 
   8   1.0000     -24.723920      -672.7721 
   9   1.0000     -24.721966      -672.7189 
  10   1.0000     -24.708944      -672.3645 
  11   1.0000     -24.704900      -672.2545 
  12   1.0000     -24.687876      -671.7913 
  13   1.0000     -24.687529      -671.7818 
  14   1.0000     -19.083116      -519.2780 
  15   1.0000     -19.061161      -518.6806 
  16   1.0000     -19.057935      -518.5928 
  17   1.0000     -10.436033      -283.9789 
  18   1.0000     -10.379484      -282.4401 
  19   1.0000     -10.377903      -282.3971 
  20   1.0000     -10.376874      -282.3691 
  21   1.0000     -10.355119      -281.7771 
  22   1.0000     -10.320579      -280.8372 
  23   1.0000     -10.306587      -280.4565 
  24   1.0000     -10.243876      -278.7500 
  25   1.0000      -1.361284       -37.0424 
  26   1.0000      -1.333405       -36.2838 
  27   1.0000      -1.316386       -35.8207 
  28   1.0000      -1.312135       -35.7050 
  29   1.0000      -1.301003       -35.4021 
  30   1.0000      -1.280894       -34.8549 
  31   1.0000      -1.272159       -34.6172 
  32   1.0000      -1.270371       -34.5686 
  33   1.0000      -1.264674       -34.4135 
  34   1.0000      -1.262680       -34.3593 
  35   1.0000      -1.255843       -34.1732 
  36   1.0000      -1.252452       -34.0809 
  37   1.0000      -1.239771       -33.7359 
  38   1.0000      -1.212769       -33.0011 
  39   1.0000      -1.039979       -28.2993 
  40   1.0000      -0.985064       -26.8049 
  41   1.0000      -0.958429       -26.0802 
  42   1.0000      -0.840353       -22.8672 
  43   1.0000      -0.818833       -22.2816 
  44   1.0000      -0.784218       -21.3397 
  45   1.0000      -0.748307       -20.3625 
  46   1.0000      -0.703413       -19.1408 
  47   1.0000      -0.677149       -18.4262 
  48   1.0000      -0.653278       -17.7766 
  49   1.0000      -0.636130       -17.3100 
  50   1.0000      -0.633753       -17.2453 
  51   1.0000      -0.626960       -17.0604 
  52   1.0000      -0.611560       -16.6414 
  53   1.0000      -0.607994       -16.5444 
  54   1.0000      -0.605451       -16.4752 
  55   1.0000      -0.594311       -16.1720 
  56   1.0000      -0.589450       -16.0397 
  57   1.0000      -0.583369       -15.8743 
  58   1.0000      -0.579897       -15.7798 
  59   1.0000      -0.570209       -15.5162 
  60   1.0000      -0.561338       -15.2748 
  61   1.0000      -0.547743       -14.9049 
  62   1.0000      -0.542741       -14.7687 
  63   1.0000      -0.507193       -13.8014 
  64   1.0000      -0.501123       -13.6362 
  65   1.0000      -0.496689       -13.5156 
  66   1.0000      -0.494195       -13.4477 
  67   1.0000      -0.490806       -13.3555 
  68   1.0000      -0.485271       -13.2049 
  69   1.0000      -0.483969       -13.1695 
  70   1.0000      -0.475795       -12.9470 
  71   1.0000      -0.472060       -12.8454 
  72   1.0000      -0.463962       -12.6250 
  73   1.0000      -0.462481       -12.5848 
  74   1.0000      -0.457090       -12.4380 
  75   1.0000      -0.453329       -12.3357 
  76   1.0000      -0.448245       -12.1974 
  77   1.0000      -0.446652       -12.1540 
  78   1.0000      -0.444624       -12.0988 
  79   1.0000      -0.438803       -11.9404 
  80   1.0000      -0.436156       -11.8684 
  81   1.0000      -0.434615       -11.8265 
  82   1.0000      -0.432361       -11.7651 
  83   1.0000      -0.427132       -11.6229 
  84   1.0000      -0.425034       -11.5658 
  85   1.0000      -0.423712       -11.5298 
  86   1.0000      -0.419680       -11.4201 
  87   1.0000      -0.411993       -11.2109 
  88   1.0000      -0.406414       -11.0591 
  89   1.0000      -0.403526       -10.9805 
  90   1.0000      -0.399087       -10.8597 
  91   1.0000      -0.385387       -10.4869 
  92   1.0000      -0.383014       -10.4223 
  93   1.0000      -0.355482        -9.6732 
  94   1.0000      -0.351797        -9.5729 
  95   1.0000      -0.324982        -8.8432 
  96   1.0000      -0.283987        -7.7277 
  97   1.0000      -0.278641        -7.5822 
  98   1.0000      -0.253260        -6.8915 
  99   1.0000      -0.239206        -6.5091 
 100   1.0000      -0.228245        -6.2108 
 101   0.0000      -0.002716        -0.0739 
 102   0.0000       0.017548         0.4775 
 103   0.0000       0.023189         0.6310 
 104   0.0000       0.051013         1.3881 
 105   0.0000       0.073496         1.9999 
 106   0.0000       0.082982         2.2581 
 107   0.0000       0.099344         2.7033 
 108   0.0000       0.109924         2.9912 
 109   0.0000       0.115635         3.1466 
 110   0.0000       0.128170         3.4877 
 111   0.0000       0.140117         3.8128 

                 SPIN DOWN ORBITALS
  NO   OCC          E(Eh)            E(eV) 
   0   1.0000     -24.730512      -672.9514 
   1   1.0000     -24.729224      -672.9164 
   2   1.0000     -24.729196      -672.9156 
   3   1.0000     -24.728188      -672.8882 
   4   1.0000     -24.727587      -672.8719 
   5   1.0000     -24.727555      -672.8710 
   6   1.0000     -24.727518      -672.8700 
   7   1.0000     -24.722720      -672.7394 
   8   1.0000     -24.721974      -672.7191 
   9   1.0000     -24.720292      -672.6733 
  10   1.0000     -24.707206      -672.3173 
  11   1.0000     -24.704878      -672.2539 
  12   1.0000     -24.687875      -671.7912 
  13   1.0000     -24.687348      -671.7769 
  14   1.0000     -19.083116      -519.2780 
  15   1.0000     -19.061124      -518.6795 
  16   1.0000     -19.057951      -518.5932 
  17   1.0000     -10.436033      -283.9789 
  18   1.0000     -10.379493      -282.4404 
  19   1.0000     -10.377823      -282.3949 
  20   1.0000     -10.376833      -282.3680 
  21   1.0000     -10.355080      -281.7760 
  22   1.0000     -10.320630      -280.8386 
  23   1.0000     -10.289086      -279.9803 
  24   1.0000     -10.243882      -278.7502 
  25   1.0000      -1.361277       -37.0422 
  26   1.0000      -1.332902       -36.2701 
  27   1.0000      -1.315627       -35.8000 
  28   1.0000      -1.311512       -35.6881 
  29   1.0000      -1.299384       -35.3580 
  30   1.0000      -1.274913       -34.6921 
  31   1.0000      -1.271901       -34.6102 
  32   1.0000      -1.268960       -34.5302 
  33   1.0000      -1.264574       -34.4108 
  34   1.0000      -1.261964       -34.3398 
  35   1.0000      -1.255500       -34.1639 
  36   1.0000      -1.251495       -34.0549 
  37   1.0000      -1.238193       -33.6930 
  38   1.0000      -1.212551       -32.9952 
  39   1.0000      -1.039964       -28.2989 
  40   1.0000      -0.985064       -26.8049 
  41   1.0000      -0.958411       -26.0797 
  42   1.0000      -0.837552       -22.7909 
  43   1.0000      -0.807392       -21.9702 
  44   1.0000      -0.782810       -21.3013 
  45   1.0000      -0.742382       -20.2013 
  46   1.0000      -0.700373       -19.0581 
  47   1.0000      -0.676185       -18.3999 
  48   1.0000      -0.649188       -17.6653 
  49   1.0000      -0.634415       -17.2633 
  50   1.0000      -0.632878       -17.2215 
  51   1.0000      -0.626701       -17.0534 
  52   1.0000      -0.609808       -16.5937 
  53   1.0000      -0.606649       -16.5078 
  54   1.0000      -0.604156       -16.4399 
  55   1.0000      -0.593396       -16.1471 
  56   1.0000      -0.587278       -15.9807 
  57   1.0000      -0.581057       -15.8114 
  58   1.0000      -0.578182       -15.7331 
  59   1.0000      -0.569576       -15.4990 
  60   1.0000      -0.557320       -15.1655 
  61   1.0000      -0.544579       -14.8187 
  62   1.0000      -0.541616       -14.7381 
  63   1.0000      -0.500926       -13.6309 
  64   1.0000      -0.496646       -13.5144 
  65   1.0000      -0.494812       -13.4645 
  66   1.0000      -0.490940       -13.3592 
  67   1.0000      -0.485005       -13.1977 
  68   1.0000      -0.483610       -13.1597 
  69   1.0000      -0.482368       -13.1259 
  70   1.0000      -0.474598       -12.9145 
  71   1.0000      -0.469083       -12.7644 
  72   1.0000      -0.463381       -12.6092 
  73   1.0000      -0.458072       -12.4648 
  74   1.0000      -0.456639       -12.4258 
  75   1.0000      -0.452380       -12.3099 
  76   1.0000      -0.447017       -12.1639 
  77   1.0000      -0.444181       -12.0868 
  78   1.0000      -0.442501       -12.0411 
  79   1.0000      -0.436261       -11.8713 
  80   1.0000      -0.434694       -11.8286 
  81   1.0000      -0.433095       -11.7851 
  82   1.0000      -0.430846       -11.7239 
  83   1.0000      -0.426083       -11.5943 
  84   1.0000      -0.424784       -11.5589 
  85   1.0000      -0.422846       -11.5062 
  86   1.0000      -0.418754       -11.3949 
  87   1.0000      -0.411181       -11.1888 
  88   1.0000      -0.405710       -11.0399 
  89   1.0000      -0.401549       -10.9267 
  90   1.0000      -0.398815       -10.8523 
  91   1.0000      -0.384063       -10.4509 
  92   1.0000      -0.381891       -10.3918 
  93   1.0000      -0.353691        -9.6244 
  94   1.0000      -0.351539        -9.5659 
  95   1.0000      -0.320782        -8.7289 
  96   1.0000      -0.278659        -7.5827 
  97   1.0000      -0.253255        -6.8914 
  98   1.0000      -0.239266        -6.5107 
  99   1.0000      -0.228171        -6.2088 
 100   0.0000      -0.121757        -3.3132 
 101   0.0000       0.000342         0.0093 
 102   0.0000       0.020433         0.5560 
 103   0.0000       0.026243         0.7141 
 104   0.0000       0.055684         1.5152 
 105   0.0000       0.075792         2.0624 
 106   0.0000       0.089269         2.4291 
 107   0.0000       0.101222         2.7544 
 108   0.0000       0.114922         3.1272 
 109   0.0000       0.117275         3.1912 
 110   0.0000       0.129601         3.5266 
*Only the first 10 virtual orbitals were printed.

                    ********************************
                    * MULLIKEN POPULATION ANALYSIS *
                    ********************************

--------------------------------------------
MULLIKEN ATOMIC CHARGES AND SPIN POPULATIONS
--------------------------------------------
   0 C :    0.469424    0.000145
   1 C :    0.329287    0.000446
   2 C :    0.304253    0.000958
   3 C :    0.397957   -0.004934
   4 C :    0.059316    0.865583
   5 C :    0.382145    0.000737
   6 C :    0.314504   -0.004149
   7 C :    0.237830   -0.000326
   8 F :   -0.157245    0.000009
   9 F :   -0.155385    0.000011
  10 F :   -0.157470    0.000048
  11 F :   -0.164547   -0.000042
  12 F :   -0.162005    0.000008
  13 F :   -0.169174    0.000479
  14 F :   -0.172870    0.000187
  15 F :   -0.172684    0.000023
  16 F :   -0.166953    0.023593
  17 F :   -0.159986    0.082875
  18 F :   -0.193319   -0.000302
  19 F :   -0.177851    0.032064
  20 F :   -0.214567    0.000149
  21 F :   -0.208604    0.001778
  22 O :   -0.491314   -0.000435
  23 O :   -0.542660    0.000990
  24 O :   -0.742638   -0.000025
  25 H :    0.344549   -0.000003
  26 H :    0.370009    0.000134
Sum of atomic charges         :   -1.0000000
Sum of atomic spin populations:    1.0000000

-----------------------------------------------------
MULLIKEN REDUCED ORBITAL CHARGES AND SPIN POPULATIONS
-----------------------------------------------------
CHARGE
  0 C s       :     3.020308  s :     3.020308
      pz      :     0.668889  p :     2.110690
      px      :     0.664338
      py      :     0.777464
      dz2     :     0.065888  d :     0.358612
      dxz     :     0.080633
      dyz     :     0.075711
      dx2y2   :     0.070237
      dxy     :     0.066142
      f0      :     0.006327  f :     0.040966
      f+1     :     0.008957
      f-1     :     0.004952
      f+2     :     0.003127
      f-2     :     0.006044
      f+3     :     0.004581
      f-3     :     0.006978

  1 C s       :     3.099252  s :     3.099252
      pz      :     0.631238  p :     2.253103
      px      :     0.719885
      py      :     0.901981
      dz2     :     0.072434  d :     0.289947
      dxz     :     0.063092
      dyz     :     0.057844
      dx2y2   :     0.038710
      dxy     :     0.057867
      f0      :     0.005133  f :     0.028411
      f+1     :     0.006116
      f-1     :     0.002777
      f+2     :     0.004670
      f-2     :     0.004271
      f+3     :     0.002804
      f-3     :     0.002640

  2 C s       :     3.137134  s :     3.137134
      pz      :     0.584703  p :     2.237123
      px      :     0.719340
      py      :     0.933079
      dz2     :     0.079135  d :     0.293249
      dxz     :     0.055325
      dyz     :     0.066306
      dx2y2   :     0.033701
      dxy     :     0.058782
      f0      :     0.006275  f :     0.028240
      f+1     :     0.004339
      f-1     :     0.003294
      f+2     :     0.004920
      f-2     :     0.005179
      f+3     :     0.002182
      f-3     :     0.002051

  3 C s       :     3.094560  s :     3.094560
      pz      :     0.621312  p :     2.180461
      px      :     0.683758
      py      :     0.875391
      dz2     :     0.076176  d :     0.298705
      dxz     :     0.059366
      dyz     :     0.057348
      dx2y2   :     0.044553
      dxy     :     0.061262
      f0      :     0.005218  f :     0.028317
      f+1     :     0.005906
      f-1     :     0.002852
      f+2     :     0.004739
      f-2     :     0.004444
      f+3     :     0.002574
      f-3     :     0.002584

  4 C s       :     3.346028  s :     3.346028
      pz      :     0.632264  p :     2.432215
      px      :     0.897352
      py      :     0.902598
      dz2     :     0.030448  d :     0.146644
      dxz     :     0.036859
      dyz     :     0.044365
      dx2y2   :     0.015580
      dxy     :     0.019392
      f0      :     0.003385  f :     0.015797
      f+1     :     0.003781
      f-1     :     0.003610
      f+2     :     0.001405
      f-2     :     0.001474
      f+3     :     0.000912
      f-3     :     0.001229

  5 C s       :     3.103637  s :     3.103637
      pz      :     0.670893  p :     2.199306
      px      :     0.637840
      py      :     0.890573
      dz2     :     0.055700  d :     0.286820
      dxz     :     0.072613
      dyz     :     0.049953
      dx2y2   :     0.044592
      dxy     :     0.063962
      f0      :     0.005545  f :     0.028093
      f+1     :     0.005374
      f-1     :     0.003715
      f+2     :     0.004116
      f-2     :     0.001923
      f+3     :     0.002728
      f-3     :     0.004692

  6 C s       :     3.135595  s :     3.135595
      pz      :     0.673935  p :     2.269439
      px      :     0.616943
      py      :     0.978561
      dz2     :     0.043317  d :     0.254190
      dxz     :     0.061322
      dyz     :     0.048113
      dx2y2   :     0.046242
      dxy     :     0.055196
      f0      :     0.005603  f :     0.026272
      f+1     :     0.003304
      f-1     :     0.003430
      f+2     :     0.004128
      f-2     :     0.002389
      f+3     :     0.002974
      f-3     :     0.004444

  7 C s       :     3.039207  s :     3.039207
      pz      :     0.811495  p :     2.449204
      px      :     0.745400
      py      :     0.892309
      dz2     :     0.011446  d :     0.248622
      dxz     :     0.071518
      dyz     :     0.016291
      dx2y2   :     0.076266
      dxy     :     0.073102
      f0      :     0.002677  f :     0.025137
      f+1     :     0.002304
      f-1     :     0.001176
      f+2     :     0.002325
      f-2     :     0.002810
      f+3     :     0.006707
      f-3     :     0.007136

  8 F s       :     3.923947  s :     3.923947
      pz      :     1.800719  p :     5.215034
      px      :     1.547777
      py      :     1.866538
      dz2     :     0.002385  d :     0.017487
      dxz     :     0.005654
      dyz     :     0.001086
      dx2y2   :     0.004652
      dxy     :     0.003709
      f0      :     0.000087  f :     0.000777
      f+1     :     0.000138
      f-1     :     0.000014
      f+2     :     0.000182
      f-2     :     0.000097
      f+3     :     0.000129
      f-3     :     0.000130

  9 F s       :     3.922530  s :     3.922530
      pz      :     1.466205  p :     5.214418
      px      :     1.872597
      py      :     1.875616
      dz2     :     0.008449  d :     0.017646
      dxz     :     0.003984
      dyz     :     0.004397
      dx2y2   :     0.000338
      dxy     :     0.000478
      f0      :     0.000322  f :     0.000792
      f+1     :     0.000188
      f-1     :     0.000206
      f+2     :     0.000028
      f-2     :     0.000042
      f+3     :     0.000003
      f-3     :     0.000002

 10 F s       :     3.922705  s :     3.922705
      pz      :     1.890551  p :     5.216617
      px      :     1.736523
      py      :     1.589543
      dz2     :     0.002505  d :     0.017370
      dxz     :     0.001417
      dyz     :     0.002438
      dx2y2   :     0.004196
      dxy     :     0.006814
      f0      :     0.000066  f :     0.000779
      f+1     :     0.000065
      f-1     :     0.000106
      f+2     :     0.000016
      f-2     :     0.000104
      f+3     :     0.000240
      f-3     :     0.000182

 11 F s       :     3.927665  s :     3.927665
      pz      :     1.744816  p :     5.218765
      px      :     1.608618
      py      :     1.865331
      dz2     :     0.002535  d :     0.017385
      dxz     :     0.006053
      dyz     :     0.001880
      dx2y2   :     0.003449
      dxy     :     0.003467
      f0      :     0.000077  f :     0.000732
      f+1     :     0.000152
      f-1     :     0.000027
      f+2     :     0.000167
      f-2     :     0.000139
      f+3     :     0.000076
      f-3     :     0.000095

 12 F s       :     3.925663  s :     3.925663
      pz      :     1.538665  p :     5.218112
      px      :     1.829574
      py      :     1.849873
      dz2     :     0.006179  d :     0.017485
      dxz     :     0.004534
      dyz     :     0.004613
      dx2y2   :     0.000934
      dxy     :     0.001225
      f0      :     0.000183  f :     0.000745
      f+1     :     0.000187
      f-1     :     0.000182
      f+2     :     0.000070
      f-2     :     0.000104
      f+3     :     0.000011
      f-3     :     0.000008

 13 F s       :     3.928461  s :     3.928461
      pz      :     1.626928  p :     5.222497
      px      :     1.717973
      py      :     1.877596
      dz2     :     0.004101  d :     0.017481
      dxz     :     0.006311
      dyz     :     0.002996
      dx2y2   :     0.001908
      dxy     :     0.002164
      f0      :     0.000103  f :     0.000736
      f+1     :     0.000229
      f-1     :     0.000068
      f+2     :     0.000134
      f-2     :     0.000138
      f+3     :     0.000028
      f-3     :     0.000035

 14 F s       :     3.928997  s :     3.928997
      pz      :     1.588649  p :     5.225813
      px      :     1.742618
      py      :     1.894547
      dz2     :     0.004845  d :     0.017333
      dxz     :     0.006293
      dyz     :     0.002967
      dx2y2   :     0.001553
[...]
      f-3     :     0.000000

 18 F s       :    -0.000077  s :    -0.000077
      pz      :     0.000476  p :     0.003715
      px      :     0.002276
      py      :     0.000964
      dz2     :    -0.000055  d :    -0.000204
      dxz     :    -0.000070
      dyz     :    -0.000096
      dx2y2   :     0.000003
      dxy     :     0.000014
      f0      :    -0.000002  f :    -0.000012
      f+1     :    -0.000005
      f-1     :    -0.000006
      f+2     :    -0.000000
      f-2     :     0.000000
      f+3     :     0.000000
      f-3     :     0.000000

 19 F s       :     0.002084  s :     0.002084
      pz      :     0.001030  p :     0.026065
      px      :     0.005226
      py      :     0.019808
      dz2     :     0.000110  d :    -0.000119
      dxz     :    -0.000029
      dyz     :     0.000008
      dx2y2   :    -0.000098
      dxy     :    -0.000110
      f0      :    -0.000000  f :    -0.000007
      f+1     :     0.000002
      f-1     :     0.000001
      f+2     :    -0.000001
      f-2     :    -0.000002
      f+3     :    -0.000009
      f-3     :     0.000000

 20 F s       :     0.000106  s :     0.000106
      pz      :    -0.000044  p :     0.002769
      px      :     0.002094
      py      :     0.000718
      dz2     :     0.000007  d :     0.000221
      dxz     :     0.000106
      dyz     :     0.000073
      dx2y2   :     0.000034
      dxy     :     0.000001
      f0      :    -0.000000  f :     0.000011
      f+1     :     0.000005
      f-1     :     0.000004
      f+2     :     0.000002
      f-2     :    -0.000000
      f+3     :     0.000000
      f-3     :     0.000000

 21 F s       :     0.000346  s :     0.000346
      pz      :    -0.000057  p :     0.001064
      px      :     0.000643
      py      :     0.000478
      dz2     :     0.000042  d :     0.000211
      dxz     :     0.000000
      dyz     :     0.000004
      dx2y2   :     0.000115
      dxy     :     0.000050
      f0      :     0.000000  f :     0.000011
      f+1     :     0.000000
      f-1     :     0.000000
      f+2     :     0.000000
      f-2     :     0.000000
      f+3     :     0.000007
      f-3     :     0.000003

 22 O s       :     0.000085  s :     0.000085
      pz      :     0.003056  p :     0.004830
      px      :     0.000126
      py      :     0.001648
      dz2     :     0.000015  d :     0.000042
      dxz     :    -0.000001
      dyz     :     0.000018
      dx2y2   :    -0.000001
      dxy     :     0.000010
      f0      :     0.000000  f :     0.000003
      f+1     :     0.000001
      f-1     :     0.000000
      f+2     :    -0.000001
      f-2     :     0.000002
      f+3     :    -0.000000
      f-3     :     0.000001

 23 O s       :     0.000010  s :     0.000010
      pz      :     0.000566  p :     0.001004
      px      :     0.000819
      py      :    -0.000381
      dz2     :    -0.000001  d :    -0.000006
      dxz     :    -0.000002
      dyz     :     0.000003
      dx2y2   :    -0.000010
      dxy     :     0.000003
      f0      :     0.000000  f :    -0.000000
      f+1     :    -0.000000
      f-1     :    -0.000000
      f+2     :     0.000000
      f-2     :     0.000000
      f+3     :     0.000000
      f-3     :    -0.000001

 24 O s       :     0.000008  s :     0.000008
      pz      :     0.000002  p :     0.000031
      px      :    -0.000003
      py      :     0.000032
      dz2     :     0.000000  d :     0.000002
      dxz     :     0.000000
      dyz     :     0.000001
      dx2y2   :     0.000000
      dxy     :     0.000000
      f0      :     0.000000  f :     0.000000
      f+1     :    -0.000000
      f-1     :    -0.000000
      f+2     :    -0.000000
      f-2     :     0.000000
      f+3     :     0.000000
      f-3     :     0.000000

 25 H s       :     0.000007  s :     0.000007
      pz      :    -0.000001  p :     0.000000
      px      :    -0.000000
      py      :     0.000001

 26 H s       :     0.000016  s :     0.000016
      pz      :    -0.000002  p :    -0.000005
      px      :    -0.000003
      py      :    -0.000000



                      *****************************
                      * MAYER POPULATION ANALYSIS *
                      *****************************

  NA   - Mulliken gross atomic population
  ZA   - Total nuclear charge
  QA   - Mulliken gross atomic charge
  VA   - Mayer's total valence
  BVA  - Mayer's bonded valence
  FA   - Mayer's free valence

  ATOM       NA         ZA         QA         VA         BVA        FA
  0 C      5.5271     6.0000     0.4729     4.4650     4.4650     0.0000
  1 C      5.6668     6.0000     0.3332     4.2008     4.2008     0.0001
  2 C      5.7263     6.0000     0.2737     4.1590     4.1577     0.0012
  3 C      5.5909     6.0000     0.4091     4.2315     4.2286     0.0029
  4 C      5.9125     6.0000     0.0875     3.9305     3.3229     0.6077
  5 C      5.6564     6.0000     0.3436     4.1557     4.1533     0.0024
  6 C      5.6597     6.0000     0.3403     3.8898     3.8896     0.0003
  7 C      5.7379     6.0000     0.2621     4.4875     4.4875     0.0000
  8 F      9.1568     9.0000    -0.1568     1.1637     1.1637     0.0000
  9 F      9.1548     9.0000    -0.1548     1.1648     1.1648     0.0000
 10 F      9.1548     9.0000    -0.1548     1.1621     1.1621     0.0000
 11 F      9.1644     9.0000    -0.1644     1.1565     1.1565     0.0000
 12 F      9.1623     9.0000    -0.1623     1.1558     1.1558     0.0000
 13 F      9.1726     9.0000    -0.1726     1.1472     1.1472     0.0000
 14 F      9.1728     9.0000    -0.1728     1.1513     1.1513     0.0000
 15 F      9.1693     9.0000    -0.1693     1.1415     1.1414     0.0001
 16 F      9.1749     9.0000    -0.1749     1.1362     1.1360     0.0002
 17 F      9.1526     9.0000    -0.1526     1.1802     1.1701     0.0100
 18 F      9.1922     9.0000    -0.1922     1.1086     1.1086     0.0000
 19 F      9.1842     9.0000    -0.1842     1.1121     1.1112     0.0008
 20 F      9.2092     9.0000    -0.2092     1.0713     1.0713     0.0000
 21 F      9.2078     9.0000    -0.2078     1.0838     1.0838     0.0000
 22 O      8.4901     8.0000    -0.4901     1.9986     1.9985     0.0000
 23 O      8.5534     8.0000    -0.5534     1.8780     1.8779     0.0000
 24 O      8.7478     8.0000    -0.7478     1.7188     1.7188     0.0000
 25 H      0.6644     1.0000     0.3356     0.9057     0.9057     0.0000
 26 H      0.6382     1.0000     0.3618     0.9340     0.9340     0.0000

  Mayer bond orders larger than 0.100000
B(  0-C ,  1-C ) :   0.9497 B(  0-C ,  8-F ) :   1.1298 B(  0-C ,  9-F ) :   1.1416 
B(  0-C , 10-F ) :   1.1318 B(  1-C ,  2-C ) :   0.9198 B(  1-C , 11-F ) :   1.0865 
B(  1-C , 12-F ) :   1.0952 B(  2-C ,  3-C ) :   0.9242 B(  2-C , 13-F ) :   1.0652 
B(  2-C , 14-F ) :   1.0760 B(  3-C ,  4-C ) :   1.0060 B(  3-C , 15-F ) :   1.0918 
B(  3-C , 16-F ) :   1.0625 B(  4-C ,  5-C ) :   1.0209 B(  4-C , 17-F ) :   1.1062 
B(  5-C ,  6-C ) :   0.9094 B(  5-C , 18-F ) :   1.0492 B(  5-C , 19-F ) :   1.0665 
B(  6-C ,  7-C ) :   0.8567 B(  6-C , 20-F ) :   1.0233 B(  6-C , 21-F ) :   1.0348 
B(  7-C , 22-O ) :   1.8895 B(  7-C , 23-O ) :   1.6632 B( 23-O , 26-H ) :   0.1060 
B( 24-O , 25-H ) :   0.8993 B( 24-O , 26-H ) :   0.8125 

-------
TIMINGS
-------

Total SCF time: 0 days 0 hours 0 min 44 sec 

Total time                  ....      44.576 sec
Sum of individual times     ....      43.405 sec  ( 97.4%)

SCF preparation             ....       1.428 sec  (  3.2%)
Fock matrix formation       ....      36.850 sec  ( 82.7%)
  Startup                   ....       0.235 sec  (  0.6% of F)
  Split-RI-J                ....       2.336 sec  (  6.3% of F)
  Chain of spheres X        ....      23.790 sec  ( 64.6% of F)
  XC integration            ....       7.868 sec  ( 21.4% of F)
    XC Preparation          ....       0.000 sec  (  0.0% of XC)
    Basis function eval.    ....       0.521 sec  (  6.6% of XC)
    Density eval.           ....       2.507 sec  ( 31.9% of XC)
    XC-Functional eval.     ....       0.168 sec  (  2.1% of XC)
    XC-Potential eval.      ....       2.273 sec  ( 28.9% of XC)
  CPCM terms                ....       2.121 sec  (  5.8% of F)
Diagonalization             ....       0.000 sec  (  0.0%)
Density matrix formation    ....       0.473 sec  (  1.1%)
Total Energy calculation    ....       0.310 sec  (  0.7%)
Population analysis         ....       0.475 sec  (  1.1%)
Orbital Transformation      ....       0.471 sec  (  1.1%)
Orbital Orthonormalization  ....       0.000 sec  (  0.0%)
DIIS solution               ....       0.628 sec  (  1.4%)
SOSCF solution              ....       2.770 sec  (  6.2%)
Finished LeanSCF after  45.0 sec

Maximum memory used throughout the entire LEANSCF-calculation: 117.1 MB


-------------------------------------------------------------------------------
                          DFT DISPERSION CORRECTION                            
                                                                               
                              DFTD3 V3.1  Rev 1                                
                          USING Becke-Johnson damping                          
-------------------------------------------------------------------------------
The R2SCANh functional is recognized
Active option DFTDOPT                   ...         4   

molecular C6(AA) [au] = 7393.205103 


            DFT-D V3
 parameters
 s6 scaling factor         :     1.0000 
 a1 scaling factor         :     0.4709 
 s8 scaling factor         :     1.1236 
 a2 scaling factor         :     5.9157 
 ad hoc parameters k1-k3   :    16.0000     1.3333    -4.0000 

 Edisp/kcal,au: -5.703197462432  -0.009088622706 
 E6   /kcal   :  -4.171585319 
 E8   /kcal   :  -1.531612143 
 % E8         :  26.855323760 

-------------------------   ----------------
Dispersion correction           -0.009088623
-------------------------   ----------------


-------------------------   --------------------
FINAL SINGLE POINT ENERGY     -1929.551778622582
-------------------------   --------------------

                                *** OPTIMIZATION RUN DONE ***



           ************************************************************
           *        Program running with 20 parallel MPI-processes    *
           *              working on a common directory               *
           ************************************************************

------------------------------------------------------------------------------
                              ORCA PROPERTY CALCULATIONS
------------------------------------------------------------------------------

GBWName                                 ... rf_mecn_1H2O_opt_r2s_con_002.gbw
Number of atoms                         ...     27
Number of basis functions               ...    787
Max core memory                         ...   8000 MB

Electric properties:
Dipole moment                           ... YES
Quadrupole moment                       ...  NO
Static polarizability (Dipole/Dipole)   ...  NO
Static polarizability (Dipole/Quad.)    ...  NO
Static polarizability (Quad./Quad.)     ...  NO
Static polarizability (Velocity)        ...  NO

Atomic electric properties:
Dipole moment                           ...  NO
Quadrupole moment                       ...  NO
Static polarizability                   ...  NO

Choice of electric origin               ... Center of mass
Position of electric origin             ...    12.150573    44.826869     3.386018

General magnetic properties:
Magnetizability                         ...  NO

EPR properties:
g-Tensor (aka g-matrix)                 ...  NO
Zero-Field splitting spin-orbit         ...  NO
Zero-field splitting spin-spin          ...  NO
Hyperfine couplings                     ...  NO (   0 nuclei)
Quadrupole couplings                    ...  NO (   0 nuclei)
Contact density                         ...  NO (   0 nuclei)

NMR properties:
Chemical shifts                         ...  NO (   0 nuclei)
Spin-rotation constants                 ...  NO (   0 nuclei)
Spin-spin couplings                     ...  NO (   0 nuclei,    0 pairs)

Choice of magnetic origin               ... GIAO
Position of magnetic origin             ...     0.000000     0.000000     0.000000

Properties with geometric perturbations:
SCF Hessian                             ...  NO
IR spectrum                             ...  NO
VCD spectrum                            ...  NO
X-ray spectroscopy properties:
SCF XES/XAS/RIXS spectra                ...  NO


-------------
DIPOLE MOMENT
-------------

Method             : SCF
Type of density    : Electron Density
Multiplicity       :   2
Irrep              :   0
Energy             : -1929.5426899998765293 Eh
Relativity type    : 
Basis              : AO
                                X                 Y                 Z
Electronic contribution:      3.957876074      29.947558003       3.654741475
Nuclear contribution   :     -3.937691103     -22.738993309      -3.846727299
                        -----------------------------------------
Total Dipole Moment    :      0.020184971       7.208564694      -0.191985823
                        -----------------------------------------
Magnitude (a.u.)       :      7.211149072
Magnitude (Debye)      :     18.329284288



--------------------
Rotational spectrum 
--------------------
 
Rotational constants in cm-1:             0.016166             0.004021             0.003745 
Rotational constants in MHz :           484.635487           120.561257           112.258688 

Dipole components along the rotational axes: 
x,y,z [a.u.] :     6.886197    -1.916237    -0.953414 
x,y,z [Debye]:    17.503322    -4.870686    -2.423385 

 

Dipole moment calculation done in   0.2 sec 

Maximum memory used throughout the entire PROP-calculation: 60.6 MB

--------------------------------
SUGGESTED CITATIONS FOR THIS RUN
--------------------------------

Below you find a list of papers that are relevant to this ORCA run
We neither can nor want to force you to cite these papers, but we appreciate if you do
You receive ORCA, which is the product of decades of hard work by many enthusiastic individuals, for free
The only thing we kindly ask in return is that you cite our papers,
We deeply appreciate it, if you show your appreciation for ORCA by not just citing the generic ORCA reference.

Please note that relegating all ORCA citations to the supporting information does *not* help us.
SI sections are not indexed - citations you put there will not count into any citation statistics
But we need these citations in order to attract the funding resources that allow us to do what we are doing

Therefore, if you are a happy ORCA user, please consider citing a few of the papers listed below in the main body of your paper

In addition to the list printed below, the program has created the file rf_mecn_1H2O_opt_r2s_con_002.bibtex that contains the list in bibtex format
You can import this file easily into all common literature databanks and citation aid programs


List of essential papers. We consider these as the minimum necessary citations

  1. Neese,F.
     Software update: the ORCA program system, version 5.0
     WIRES Comput. Molec. Sci., 2022 12(1)e1606
     doi.org/10.1002/wcms.1606

List of papers to cite with high priority. The work reported in these papers was absolutely
necessary for this run to complete.
Our perspective: the developers of density functionals and basis sets usually get cited in chemistry papers
Good! But without the algorithms to do something with them, the functionals or basis sets would not do anything.
Hence, in our opinion, the algorithm design and method developments papers are equally worthy of getting cited

  1. Neese,F.
     An improvement of the resolution of the identity approximation for the formation of the Coulomb matrix
     J. Comp. Chem., 2003 24(14)1740-1747
     doi.org/10.1002/jcc.10318
  2. Neese,F.; Wennmohs,F.; Hansen,A.; Becker,U.
     Efficient, approximate and parallel Hartree-Fock and hybrid DFT calculations. A 'chain-of-spheres' algorithm for the Hartree-Fock exchange
     Chem. Phys., 2009 356(1-3)98-109
     doi.org/10.1016/j.chemphys.2008.10.036
  3. Garcia-Rates,M.; Neese,F.
     Effect of the Solute Cavity on the Solvation Energy and its Derivatives within the Framework of the Gaussian Charge Scheme
     J. Comput. Chem., 2020 41 922-939
     doi.org/10.1002/jcc.26139
  4. Helmich-Paris,B.; de Souza,B.; Neese,F.; Izsák,R.
     An improved chain of spheres for exchange algorithm
     J. Chem. Phys., 2021 155 104109
     doi.org/doi: 10.1063/5.0058766.
  5. Neese,F.
     The SHARK Integral Generation and Digestion System
     J. Comp. Chem., 2022  1-16
     doi.org/10.1002/jcc.26942
  6. Lehtola,S.; Steigemann,C.; Oliveira,M.; Marques,M.
     Recent developments in Libxc - A comprehensive library of functionals for density functional theory
     Software X, 2018 7 
     doi.org/10.1016/j.softx.2017.11.002
  7. Grimme,S.; Antony,J.; Ehrlich,S.; Krieg,H.
     A consistent and accurate ab initio parametrization of density functional dispersion correction (DFT-D) for the 94 elements H-Pu
     J. Chem. Phys., 2010 132 154104
     doi.org/10.1063/1.3382344
  8. Grimme,S.; Ehrlich,S.; Goerigk,L.
     Effect of the damping function in dispersion corrected density functional theory
     J. Comput. Chem., 2011 32(7)1456-1465
     doi.org/10.1002/jcc.21759
  9. Bursch,M.; Neugebauer,H.; Ehlert,S.; Grimme,S.
     Dispersion corrected r2SCAN based global hybrid functionals: r2SCANh, r2SCAN0, and r2SCAN50
     J. Phys. Chem., 2022 156(13)134105
     doi.org/10.1063/5.0086040

List of suggested additional citations. These are papers that are important in the 'surrounding' of 
of this run, or papers that preceded the highly important papers. If you like your results we are grateful for a citation.

  1. Izsak,R.; Neese,F.
     An overlap fitted chain of spheres exchange method
     J. Chem. Phys., 2011 135 144105
     doi.org/10.1063/1.3646921
  2. Izsak,R.; Hansen,A.; Neese,F.
     The resolution of identity and chain of spheres approximations for the LPNO-CCSD singles Fock term
     Molec. Phys., 2012 110 2413-2417
     doi.org/10.1080/00268976.2012.687466
  3. Neese,F.
     The ORCA program system
     WIRES Comput. Molec. Sci., 2012 2(1)73-78
     doi.org/10.1002/wcms.81
  4. Izsak,R.; Neese,F.; Klopper,W.
     Robust fitting techniques in the chain of spheres approximation to the Fock exchange: The role of the complementary space
     J. Chem. Phys., 2013 139 
     doi.org/10.1063/1.4819264
  5. Neese,F.
     Software update: the ORCA program system, version 4.0
     WIRES Comput. Molec. Sci., 2018 8(1)1-6
     doi.org/10.1002/wcms.1327
  6. Neese,F.; Wennmohs,F.; Becker,U.; Riplinger,C.
     The ORCA quantum chemistry program package
     J. Chem. Phys., 2020 152 Art. No. L224108
     doi.org/10.1063/5.0004608
  7. Wittmann,L.; Neugebauer,H.; Grimme,S.; Bursch,M.
     Dispersion-corrected r2SCAN based double-hybrid functionals
     J. Chem. Phys., 2023 159(22)224103
     doi.org/10.1063/5.0174988

List of optional additional citations

  1. Neese,F.
     Approximate second-order SCF convergence for spin unrestricted wavefunctions
     Chem. Phys. Lett., 2000 325(1-3)93-98
     doi.org/10.1016/s0009-2614(00)00662-x

Timings for individual modules:

Sum of individual times          ...     3071.667 sec (=  51.194 min)
Startup calculation              ...      131.356 sec (=   2.189 min)   4.3 %
SCF iterations                   ...     2250.161 sec (=  37.503 min)  73.3 %
Property calculations            ...        1.280 sec (=   0.021 min)   0.0 %
SCF Gradient evaluation          ...      688.160 sec (=  11.469 min)  22.4 %
Geometry relaxation              ...        0.709 sec (=   0.012 min)   0.0 %
                             ****ORCA TERMINATED NORMALLY****
TOTAL RUN TIME: 0 days 0 hours 51 minutes 34 seconds 162 msec
