
                                 *****************
                                 * O   R   C   A *
                                 *****************

                                            #,                                       
                                            ###                                      
                                            ####                                     
                                            #####                                    
                                            ######                                   
                                           ########,                                 
                                     ,,################,,,,,                         
                               ,,#################################,,                 
                          ,,##########################################,,             
                       ,#########################################, ''#####,          
                    ,#############################################,,   '####,        
                  ,##################################################,,,,####,       
                ,###########''''           ''''###############################       
              ,#####''   ,,,,##########,,,,          '''####'''          '####       
            ,##' ,,,,###########################,,,                        '##       
           ' ,,###''''                  '''############,,,                           
         ,,##''                                '''############,,,,        ,,,,,,###''
      ,#''                                            '''#######################'''  
     '                                                          ''''####''''         
             ,#######,   #######,   ,#######,      ##                                
            ,#'     '#,  ##    ##  ,#'     '#,    #''#        ,####,   ,####,        
            ##       ##  ##   ,#'  ##            #'  '#       #'       #'  '#        
            ##       ##  #######   ##           ,######,      #####,   #    #        
            '#,     ,#'  ##    ##  '#,     ,#' ,#      #,     #,   #   #,  ,#        
             '#######'   ##     ##  '#######'  #'      '#     '####' # '####'        



                #########################################################
                #                        -***-                          #
                #          Department of theory and spectroscopy        #
                #                                                       #
                #                      Frank Neese                      #
                #                                                       #
                #     Directorship, Architecture, Infrastructure        #
                #                    SHARK, DRIVERS                     #
                #        Core code/Algorithms in most modules           #
                #                                                       #
                #        Max Planck Institute fuer Kohlenforschung      #
                #                Kaiser Wilhelm Platz 1                 #
                #                 D-45470 Muelheim/Ruhr                 #
                #                      Germany                          #
                #                                                       #
                #                  All rights reserved                  #
                #                        -***-                          #
                #########################################################


                         Program Version 6.0.1  -  RELEASE   -


 With contributions from (in alphabetic order):
[Max-Planck-Institut fuer Kohlenforschung]                               
  Daniel Aravena         : Magnetic Suceptibility                        
  Michael Atanasov       : Ab Initio Ligand Field Theory (pilot matlab implementation)
  Alexander A. Auer      : GIAO ZORA, VPT2 properties, NMR spectrum      
  Ute Becker             : All parallelization in ORCA, NUMFREQ, NUMCALC 
  Giovanni Bistoni       : ED, misc. LED, open-shell LED, HFLD           
  Martin Brehm           : Molecular dynamics                            
  Dmytro Bykov           : pre 5.0 version of the SCF Hessian            
  Marcos Casanova-Páez   : Triplet and SCS-CIS(D). UHF-(DLPNO)-IP/EA/STEOM-CCSD. UHF-CVS-IP/STEOM-CCSD   
  Vijay G. Chilkuri      : MRCI spin determinant printing, contributions to CSF-ICE 
  Pauline Colinet        : FMM embedding                                 
  Dipayan Datta          : RHF DLPNO-CCSD density                        
  Achintya Kumar Dutta   : EOM-CC, STEOM-CC                              
  Nicolas Foglia         : Exact transition moments, OPA infrastructure, MCD improvements    
  Dmitry Ganyushin       : Spin-Orbit,Spin-Spin,Magnetic field MRCI      
  Miquel Garcia-Rates    : C-PCM and meta-GGA Hessian, CCSD/C-PCM, Gaussian charge scheme 
  Tiago L. C. Gouveia    : GS-ROHF, GS-ROCIS                             
  Yang Guo               : DLPNO-NEVPT2, F12-NEVPT2, CIM, IAO-localization        
  Andreas Hansen         : Spin unrestricted coupled pair/coupled cluster methods 
  Ingolf Harden          : AUTO-CI MPn and infrastructure                
  Benjamin Helmich-Paris : MC-RPA, TRAH-(SCF,CASSCF), AVAS, COSX integrals, SCF dyn. polar. 
  Lee Huntington         : MR-EOM, pCC                                   
  Robert Izsak           : Overlap fitted RIJCOSX, COSX-SCS-MP3, EOM     
  Riya Kayal             : Wick's Theorem for AUTO-CI, AUTO-CI UHF-CCSDT 
  Emily Kempfer          : AUTO-CI, RHF CISDT and CCSDT                  
  Christian Kollmar      : KDIIS, OOCD, Brueckner-CCSD(T), CCSD density, CASPT2, CASPT2-K, improved NEVPT2 
  Axel Koslowski         : Symmetry handling                             
  Simone Kossmann        : meta-GGA functionals, TD-DFT gradient, OOMP2, (MP2 Hessian; deprecated post 5.0) 
  Lucas Lang             : DCDCAS                                        
  Marvin Lechner         : AUTO-CI (C++ implementation), FIC-MRCC        
  Spencer Leger          : CASSCF response                               
  Dagmar Lenk            : GEPOL surface, SMD, ORCA-2-JSON               
  Dimitrios Liakos       : Extrapolation schemes; Compound Job, initial MDCI parallelization 
  Dimitrios Manganas     : Further ROCIS development; embedding schemes. LFT, Crystal Embedding 
  Dimitrios Pantazis     : SARC Basis sets                               
  Anastasios Papadopoulos: AUTO-CI, single reference methods and gradients 
  Taras Petrenko         : pre 6.0 DFT Hessian and TD-DFT gradient, (ASA, deprecated), ECA, 1-Electron XAS/XES, NRVS 
  Peter Pinski           : DLPNO-MP2, DLPNO-MP2 Gradient                 
  Christoph Reimann      : Effective Core Potentials                     
  Marius Retegan         : Local ZFS, SOC                                
  Christoph Riplinger    : Optimizer, TS searches, QM/MM, DLPNO-CCSD(T), (RO)-DLPNO pert. Triples 
  Michael Roemelt        : Original ROCIS implementation                 
  Masaaki Saitow         : Open-shell DLPNO-CCSD energy and density      
  Barbara Sandhoefer     : DKH picture change effects                    
  Kantharuban Sivalingam : CASSCF convergence/infrastructure, NEVPT2 and variants, FIC-MRCI 
  Bernardo de Souza      : ESD, SOC TD-DFT                               
  Georgi L. Stoychev     : AutoAux, RI-MP2 NMR, DLPNO-MP2 response, X2C  
  Van Anh Tran           : RI-MP2 g-tensors                              
  Willem Van den Heuvel  : Paramagnetic NMR                              
  Zikuan Wang            : NOTCH, Electric field optimization            
  Frank Wennmohs         : Technical directorship and infrastructure     
  Hang Xu                : AUTO-CI-Response properties                   
                                                                         
[FACCTs GmbH]                                                            
  Markus Bursch, Miquel Garcia-Rates, Christoph Riplinger, Bernardo de Souza, Georgi L. Stoychev 
                                                                 
  APM, Basis sets (HGBS, AHGBS, def-TZVP (Ac-Lr), def2-XVPD (La-Lu)), CI-OPT, improved COSX, DLPNO-Multilevel,           
  DOCKER, DRACO, updates on ESD, GOAT, IRC, LR-CPCM, MBIS, meta-GGA TD-DFT gradient, ML-optimized integration grids, 
  MM, NACMEs, nearIR, NEB, NEB-TS, NL-DFT gradient (VV10), 2- and 3-layer-ONIOM, interface openCOSMO-RS, QMMM,   
  Crystal-QMMM, SF, symmetry and pop. for TD-DFT, r2SCAN hybrids, SOLVATOR                                   
                                                                         
[Other institutions]                                                     
  V. Asgeirsson          : NEB                                           
  Christoph Bannwarth    : sTDA-DFT, sTD-DFT, PBEh-3c, B97-3c, D3        
  Sebastian Ehlert       : rSCAN, r2SCAN, r2SCAN-3c, D4, dhf basis sets  
  Marvin Friede          : D4 for Fr, Ra, Ac-Lr                          
  Lars Goerigk           : TD-DFT with DH, B97 family of functionals     
  Stefan Grimme          : VdW corrections, initial TS optimization, DFT functionals, gCP, sTDA/sTD-DF 
  Waldemar Hujo          : DFT-NL                                        
  H. Jonsson             : NEB                                           
  Holger Kruse           : gCP                                           
  Marcel Mueller         : wB97X-3c, vDZP basis set                      
  Hagen Neugebauer       : wr2SCAN                                       
  Tobias Risthaus        : range-separated hybrid DFT                    
  Lukas Wittmann         : regularized MP2, r2SCAN double-hybrids, wr2SCAN        
                                                                         
We gratefully acknowledge several colleagues who have allowed us to      
interface, adapt or use parts of their codes:                            
  Ed Valeev, F. Pavosevic, A. Kumar             : LibInt (2-el integral package), F12 methods 
  Garnet Chan, S. Sharma, J. Yang, R. Olivares  : DMRG                   
  Ulf Ekstrom                                   : XCFun DFT Library      
  Mihaly Kallay                                 : mrcc  (arbitrary order and MRCC methods)
  Frank Weinhold                                : gennbo (NPA and NBO analysis)           
  Simon Mueller                                 : openCOSMO-RS                            
  Christopher J. Cramer and Donald G. Truhlar   : smd solvation model                     
  S Lehtola, MJT Oliveira, MAL Marques          : LibXC Library                           
  Liviu Ungur et al                             : ANISO software                          


 Your calculation uses the libint2 library for the computation of 2-el integrals
 For citations please refer to: http://libint.valeyev.net

 Your ORCA version has been built with support for libXC version: 6.2.2
 For citations please refer to: https://libxc.gitlab.io

 This ORCA versions uses:
   CBLAS   interface :  Fast vector & matrix operations
   LAPACKE interface :  Fast linear algebra routines
   SCALAPACK package :  Parallel linear algebra routines
   Shared memory     :  Shared parallel matrices
   BLAS/LAPACK       :  OpenBLAS 0.3.27  USE64BITINT DYNAMIC_ARCH NO_AFFINITY SkylakeX SINGLE_THREADED
        Core in use  :  SkylakeX
   Copyright (c) 2011-2014, The OpenBLAS Project


NOTE: MaxCore=8000 MB was set to SCF,MP2,MDCI,CIPSI,MRCI and CIS
      => If you want to overwrite this, your respective input block should be placed after the MaxCore statement
Your calculation utilizes the atom-pairwise dispersion correction
with the Becke-Johnson damping scheme (D3BJ)


Your calculation utilizes the SMD solvation module
Please cite in your paper:
A.V. Marenich, C.J. Cramer, D.G. Truhlar J. Phys. Chem. B, 113, (2009), 6378 

Warning: RI is on but no J-basis has been assigned. Assigning Def2/J (nothing to worry about!)
================================================================================

----- Orbital basis set information -----
Your calculation utilizes the basis: def2-TZVP
   F. Weigend and R. Ahlrichs, Phys. Chem. Chem. Phys. 7, 3297 (2005).

----- AuxJ basis set information -----
Your calculation utilizes the auxiliary basis: def2/J
   F. Weigend, Phys. Chem. Chem. Phys. 8, 1057 (2006).

================================================================================
                                        WARNINGS
                       Please study these warnings very carefully!
================================================================================



WARNING: SCAN, rSCAN, or r2SCAN functional requested.
  ===> : libXC variant has now been activated.



WARNING: your system is open-shell and RHF/RKS was chosen
  ===> : WILL SWITCH to UHF/UKS


WARNING: Geometry Optimization
  ===> : Switching off AutoStart
         For restart on a previous wavefunction, please use MOREAD

================================================================================
                                       INPUT FILE
================================================================================
NAME = rf_mecn_opt_r2s_C7_P_B.inp
|  1> !r2scanh def2-TZVP opt d3 TightSCF SlowConv defgrid2
|  2>  
|  3> %pal
|  4> nprocs 20
|  5> end
|  6>  
|  7> %scf
|  8> MaxIter 1500
|  9> end
| 10>  
| 11> %maxcore 8000
| 12>  
| 13> !CPCM
| 14> %cpcm smd true
| 15> SMDsolvent "ACETONITRILE"
| 16> end
| 17>  
| 18> * xyz 0 2
| 19> 6        4.790427000     -0.033865800     -0.529943200
| 20> 8        5.449345000     -1.206924000     -0.894594600
| 21> 8        4.978223000      1.323071000     -0.737377200
| 22> 6        3.506687600     -0.338741600      0.376153800
| 23> 6        2.222300000      0.400524800     -0.110681600
| 24> 6        0.900506800     -0.386389800      0.175703000
| 25> 6       -0.395261200      0.487294000      0.065549000
| 26> 6       -1.705693600     -0.364773800     -0.068373600
| 27> 6       -3.005136200      0.445344800      0.258164000
| 28> 6       -4.319880200     -0.214526000     -0.270540800
| 29> 9        3.211587400     -1.692050400      0.412735200
| 30> 9        3.741061800      0.055285800      1.689948800
| 31> 9        2.125696800      1.616867800      0.483236600
| 32> 9        2.314152400      0.589704000     -1.455769200
| 33> 9        0.794028800     -1.413561400     -0.700839000
| 34> 9        0.958350600     -0.884509000      1.435093400
| 35> 9       -0.498373400      1.260265600      1.173340200
| 36> 9       -0.299075000      1.289512600     -1.020910800
| 37> 9       -1.641790400     -1.418189000      0.779523800
| 38> 9       -1.792381400     -0.831391600     -1.336863600
| 39> 9       -3.119771000      0.573779800      1.598579800
| 40> 9       -4.383115600     -1.504377600      0.089127600
| 41> 9       -5.365669800      0.430528600      0.260394200
| 42> 9       -4.396020400     -0.128550600     -1.602941800
| 43> 1        5.903122371     -2.014774547     -1.145719253
| 44> *
| 45> 
| 46>                          ****END OF INPUT****
================================================================================

                       *****************************
                       * Geometry Optimization Run *
                       *****************************

Geometry optimization settings:
Update method            Update   .... BFGS
Choice of coordinates    CoordSys .... (2022) Redundant Internals
Initial Hessian          InHess   .... Almloef's Model
Max. no of cycles        MaxIter  .... 75

Convergence Tolerances:
Energy Change            TolE     ....  5.0000e-06 Eh
Max. Gradient            TolMAXG  ....  3.0000e-04 Eh/bohr
RMS Gradient             TolRMSG  ....  1.0000e-04 Eh/bohr
Max. Displacement        TolMAXD  ....  4.0000e-03 bohr
RMS Displacement         TolRMSD  ....  2.0000e-03 bohr
Strict Convergence                .... False

------------------------------------------------------------------------------
                        ORCA OPTIMIZATION COORDINATE SETUP
------------------------------------------------------------------------------

The optimization will be done in redundant internal coordinates (2022)
Making redundant internal coordinates   ...  (2022 redundants) done
Evaluating the initial hessian          ...  (Almloef) done
Evaluating the coordinates              ...  done
Calculating the B-matrix                .... done
Calculating the G-matrix                .... done
Diagonalizing the G-matrix              .... done
Small eigenvalue found = 4.821e-03
Small eigenvalue found = 1.275e-02
The first mode is                       ....   39
The number of degrees of freedom        ....   69

    -----------------------------------------------------------------
                    Redundant Internal Coordinates


    -----------------------------------------------------------------
         Definition                    Initial Value    Approx d2E/dq
    -----------------------------------------------------------------
      1. B(O   1,C   0)                  1.3940         0.551454   
      2. B(O   2,C   0)                  1.3855         0.568952   
      3. B(C   3,C   0)                  1.6006         0.288221   
      4. B(C   4,C   3)                  1.5599         0.334759   
      5. B(C   5,C   4)                  1.5647         0.328824   
      6. B(C   6,C   5)                  1.5667         0.326486   
      7. B(C   7,C   6)                  1.5688         0.323927   
      8. B(C   8,C   7)                  1.5657         0.327637   
      9. B(C   9,C   8)                  1.5632         0.330714   
     10. B(F  10,C   3)                  1.3856         0.528443   
     11. B(F  11,C   3)                  1.3915         0.517117   
     12. B(F  12,C   4)                  1.3570         0.586881   
     13. B(F  13,C   4)                  1.3614         0.577499   
     14. B(F  14,C   5)                  1.3545         0.592326   
     15. B(F  15,C   5)                  1.3556         0.590092   
     16. B(F  16,C   6)                  1.3547         0.591865   
     17. B(F  17,C   6)                  1.3540         0.593567   
     18. B(F  18,C   7)                  1.3538         0.593973   
     19. B(F  19,C   7)                  1.3544         0.592672   
     20. B(F  20,C   8)                  1.3514         0.599114   
     21. B(F  21,C   9)                  1.3406         0.623533   
     22. B(F  22,C   9)                  1.3385         0.628179   
     23. B(F  23,C   9)                  1.3373         0.630929   
     24. B(H  24,O   1)                  0.9600         0.519956   
     25. A(O   1,C   0,O   2)          136.1318         0.413163   
     26. A(O   2,C   0,C   3)          112.3347         0.371210   
     27. A(O   1,C   0,C   3)          111.5249         0.369222   
     28. L(C   0,O   1,H  24,C   3, 1) 180.0000         0.362759   
     29. L(C   0,O   1,H  24,C   3, 2) 180.0000         0.362759   
     30. A(C   4,C   3,F  11)          107.4072         0.373095   
     31. A(C   0,C   3,F  11)          110.2099         0.363632   
     32. A(F  10,C   3,F  11)          106.7094         0.399684   
     33. A(C   4,C   3,F  10)          107.2033         0.374492   
     34. A(C   0,C   3,F  10)          111.8265         0.364982   
     35. A(C   0,C   3,C   4)          113.1687         0.341363   
     36. A(C   3,C   4,F  12)          110.2926         0.381351   
     37. A(F  12,C   4,F  13)          108.2194         0.415201   
     38. A(C   3,C   4,C   5)          113.5839         0.349005   
     39. A(C   5,C   4,F  13)          107.9208         0.379109   
     40. A(C   3,C   4,F  13)          108.5818         0.380286   
     41. A(C   5,C   4,F  12)          108.0911         0.380169   
     42. A(F  14,C   5,F  15)          109.0206         0.417483   
     43. A(C   4,C   5,C   6)          113.9128         0.347536   
     44. A(C   6,C   5,F  15)          107.7906         0.380059   
     45. A(C   4,C   5,F  15)          108.5900         0.380529   
     46. A(C   6,C   5,F  14)          108.2026         0.380308   
     47. A(C   4,C   5,F  14)          109.2282         0.380779   
     48. A(C   5,C   6,C   7)          113.2023         0.346660   
     49. A(F  16,C   6,F  17)          108.8752         0.417862   
     50. A(C   7,C   6,F  17)          108.2186         0.379927   
     51. A(C   5,C   6,F  17)          109.1523         0.380446   
     52. A(C   7,C   6,F  16)          108.4284         0.379738   
     53. A(C   5,C   6,F  16)          108.8835         0.380256   
     54. A(C   8,C   7,F  18)          108.1296         0.380723   
     55. A(C   6,C   7,F  18)          109.2524         0.379972   
     56. A(F  18,C   7,F  19)          108.7561         0.418014   
     57. A(C   6,C   7,C   8)          113.2298         0.346865   
     58. A(C   8,C   7,F  19)          108.6915         0.380579   
     59. A(C   6,C   7,F  19)          108.6955         0.379828   
     60. A(C   9,C   8,F  20)          107.7127         0.381912   
     61. A(C   7,C   8,C   9)          114.1471         0.348078   
     62. A(C   7,C   8,F  20)          109.0521         0.381293   
     63. A(F  22,C   9,F  23)          108.6464         0.426961   
     64. A(F  21,C   9,F  23)          109.0552         0.426394   
     65. A(C   8,C   9,F  23)          110.9604         0.385362   
     66. A(F  21,C   9,F  22)          108.6877         0.426061   
     67. A(C   8,C   9,F  22)          108.6349         0.385069   
     68. A(C   8,C   9,F  21)          110.7995         0.384572   
     69. D(F  11,C   3,C   0,O   1)    108.6317         0.006601   
     70. D(F  10,C   3,C   0,O   2)    171.0025         0.006601   
     71. D(F  11,C   3,C   0,O   2)    -70.4768         0.006601   
     72. D(C   4,C   3,C   0,O   1)   -131.0839         0.006601   
     73. D(C   4,C   3,C   0,O   2)     49.8076         0.006601   
     74. D(F  10,C   3,C   0,O   1)     -9.8890         0.006601   
     75. D(C   5,C   4,C   3,C   0)    148.6429         0.009100   
     76. D(F  12,C   4,C   3,C   0)    -89.8453         0.009100   
     77. D(F  12,C   4,C   3,F  11)     32.0233         0.009100   
     78. D(F  12,C   4,C   3,F  10)    146.3851         0.009100   
     79. D(C   5,C   4,C   3,F  10)     24.8733         0.009100   
     80. D(C   5,C   4,C   3,F  11)    -89.4885         0.009100   
     81. D(C   6,C   5,C   4,F  12)     41.2001         0.008811   
     82. D(C   6,C   5,C   4,F  13)    -75.6292         0.008811   
     83. D(C   6,C   5,C   4,C   3)    163.9326         0.008811   
     84. D(F  14,C   5,C   4,F  13)     45.4721         0.008811   
     85. D(F  14,C   5,C   4,F  12)    162.3014         0.008811   
     86. D(F  14,C   5,C   4,C   3)    -74.9661         0.008811   
     87. D(F  16,C   6,C   5,F  15)     44.2190         0.008700   
     88. D(F  16,C   6,C   5,F  14)    161.9826         0.008700   
     89. D(F  16,C   6,C   5,C   4)    -76.3465         0.008700   
     90. D(C   7,C   6,C   5,F  15)    -76.4529         0.008700   
     91. D(C   7,C   6,C   5,F  14)     41.3107         0.008700   
     92. D(C   7,C   6,C   5,C   4)    162.9815         0.008700   
     93. D(F  18,C   7,C   6,F  17)    162.9167         0.008578   
     94. D(F  18,C   7,C   6,F  16)    -79.1358         0.008578   
     95. D(F  18,C   7,C   6,C   5)     41.7939         0.008578   
     96. D(C   8,C   7,C   6,F  17)    -76.5134         0.008578   
     97. D(C   8,C   7,C   6,F  16)     41.4341         0.008578   
     98. D(C   8,C   7,C   6,C   5)    162.3638         0.008578   
     99. D(C   9,C   8,C   7,C   6)    162.4166         0.008223   
    100. D(F  20,C   8,C   7,F  18)     44.1231         0.008223   
    101. D(F  20,C   8,C   7,C   6)    -77.0818         0.008223   
    102. D(C   9,C   8,C   7,F  19)     41.5227         0.008223   
    103. D(C   9,C   8,C   7,F  18)    -76.3785         0.008223   
    104. D(F  23,C   9,C   8,C   7)    -71.2711         0.008360   
    105. D(F  22,C   9,C   8,F  20)     48.1091         0.008360   
    106. D(F  22,C   9,C   8,C   7)    169.3552         0.008360   
    107. D(F  21,C   9,C   8,F  20)    -71.2185         0.008360   
    108. D(F  21,C   9,C   8,C   7)     50.0276         0.008360   
    -----------------------------------------------------------------

Number of atoms                         .... 25
Number of degrees of freedom            .... 108


         *************************************************************
         *                GEOMETRY OPTIMIZATION CYCLE   1            *
         *************************************************************
---------------------------------
CARTESIAN COORDINATES (ANGSTROEM)
---------------------------------
  C      4.790427   -0.033866   -0.529943
  O      5.449345   -1.206924   -0.894595
  O      4.978223    1.323071   -0.737377
  C      3.506688   -0.338742    0.376154
  C      2.222300    0.400525   -0.110682
  C      0.900507   -0.386390    0.175703
  C     -0.395261    0.487294    0.065549
  C     -1.705694   -0.364774   -0.068374
  C     -3.005136    0.445345    0.258164
  C     -4.319880   -0.214526   -0.270541
  F      3.211587   -1.692050    0.412735
  F      3.741062    0.055286    1.689949
  F      2.125697    1.616868    0.483237
  F      2.314152    0.589704   -1.455769
  F      0.794029   -1.413561   -0.700839
  F      0.958351   -0.884509    1.435093
  F     -0.498373    1.260266    1.173340
  F     -0.299075    1.289513   -1.020911
  F     -1.641790   -1.418189    0.779524
  F     -1.792381   -0.831392   -1.336864
  F     -3.119771    0.573780    1.598580
  F     -4.383116   -1.504378    0.089128
  F     -5.365670    0.430529    0.260394
  F     -4.396020   -0.128551   -1.602942
  H      5.903122   -2.014775   -1.145719

----------------------------
CARTESIAN COORDINATES (A.U.)
----------------------------
  NO LB      ZA    FRAG     MASS         X           Y           Z
   0 C     6.0000    0    12.011    9.052595   -0.063997   -1.001448
   1 O     8.0000    0    15.999   10.297770   -2.280756   -1.690539
   2 O     8.0000    0    15.999    9.407478    2.500242   -1.393441
   3 C     6.0000    0    12.011    6.626679   -0.640129    0.710828
   4 C     6.0000    0    12.011    4.199538    0.756882   -0.209158
   5 C     6.0000    0    12.011    1.701711   -0.730171    0.332031
   6 C     6.0000    0    12.011   -0.746935    0.920852    0.123870
   7 C     6.0000    0    12.011   -3.223294   -0.689323   -0.129207
   8 C     6.0000    0    12.011   -5.678884    0.841580    0.487859
   9 C     6.0000    0    12.011   -8.163391   -0.405395   -0.511248
  10 F     9.0000    0    18.998    6.069021   -3.197512    0.779956
  11 F     9.0000    0    18.998    7.069582    0.104475    3.193540
  12 F     9.0000    0    18.998    4.016985    3.055437    0.913185
  13 F     9.0000    0    18.998    4.373114    1.114379   -2.751005
  14 F     9.0000    0    18.998    1.500497   -2.671244   -1.324394
  15 F     9.0000    0    18.998    1.811020   -1.671480    2.711934
  16 F     9.0000    0    18.998   -0.941789    2.381557    2.217292
  17 F     9.0000    0    18.998   -0.565170    2.436826   -1.929242
  18 F     9.0000    0    18.998   -3.102534   -2.679989    1.473086
  19 F     9.0000    0    18.998   -3.387110   -1.571102   -2.526306
  20 F     9.0000    0    18.998   -5.895513    1.084287    3.020878
  21 F     9.0000    0    18.998   -8.282888   -2.842862    0.168427
  22 F     9.0000    0    18.998  -10.139646    0.813581    0.492074
  23 F     9.0000    0    18.998   -8.307275   -0.242925   -3.029121
  24 H     1.0000    0     1.008   11.155285   -3.807372   -2.165096

--------------------------------
INTERNAL COORDINATES (ANGSTROEM)
--------------------------------
 C      0   0   0     0.000000000000     0.00000000     0.00000000
 O      1   0   0     1.393990356793     0.00000000     0.00000000
 O      1   2   0     1.385486802956   136.13177198     0.00000000
 C      1   2   3     1.600608594862   111.52489317   181.18992567
 C      4   1   2     1.559863783763   113.16872737   228.91614990
 C      5   4   1     1.564732561934   113.58394786   148.64287440
 C      6   5   4     1.566675459667   113.91280616   163.93256239
 C      7   6   5     1.568817348692   113.20226571   162.98152714
 C      8   7   6     1.565717094808   113.22984595   162.36375422
 C      9   8   7     1.563173062643   114.14707705   162.41661495
 F      4   1   2     1.385592665621   111.82651119   350.11101305
 F      4   1   2     1.391490625050   110.20991618   108.63170802
 F      5   4   1     1.357041377479   110.29260564   270.15468021
 F      5   4   1     1.361428031433   108.58179722    28.57841973
 F      6   5   4     1.354527570075   109.22822656   285.03385927
 F      6   5   4     1.355556277776   108.59004089    43.81583148
 F      7   6   5     1.354739297058   108.88346185   283.65347401
 F      7   6   5     1.353957667090   109.15230848    42.38718856
 F      8   7   6     1.353771473879   109.25240264    41.79387651
 F      8   7   6     1.354368423305   108.69554158   283.25540020
 F      9   8   7     1.351425618925   109.05210362   282.91820052
 F     10   9   8     1.340551089588   110.79953142    50.02756898
 F     10   9   8     1.338530275591   108.63493714   169.35523750
 F     10   9   8     1.337341214598   110.96044107   288.72891896
 H      2   1   3     0.960000000033   180.00000000     0.00000000

---------------------------
INTERNAL COORDINATES (A.U.)
---------------------------
 C      0   0   0     0.000000000000     0.00000000     0.00000000
 O      1   0   0     2.634260007667     0.00000000     0.00000000
 O      1   2   0     2.618190619750   136.13177198     0.00000000
 C      1   2   3     3.024711891890   111.52489317   181.18992567
 C      4   1   2     2.947715357535   113.16872737   228.91614990
 C      5   4   1     2.956916014884   113.58394786   148.64287440
 C      6   5   4     2.960587559506   113.91280616   163.93256239
 C      7   6   5     2.964635143173   113.20226571   162.98152714
 C      8   7   6     2.958776512386   113.22984595   162.36375422
 C      9   8   7     2.953968988318   114.14707705   162.41661495
 F      4   1   2     2.618390671194   111.82651119   350.11101305
 F      4   1   2     2.629536199263   110.20991618   108.63170802
 F      5   4   1     2.564436555835   110.29260564   270.15468021
 F      5   4   1     2.572726130452   108.58179722    28.57841973
 F      6   5   4     2.559686148288   109.22822656   285.03385927
 F      6   5   4     2.561630124115   108.59004089    43.81583148
 F      7   6   5     2.560086254300   108.88346185   283.65347401
 F      7   6   5     2.558609187723   109.15230848    42.38718856
 F      8   7   6     2.558257333546   109.25240264    41.79387651
 F      8   7   6     2.559385404477   108.69554158   283.25540020
 F      9   8   7     2.553824310132   109.05210362   282.91820052
 F     10   9   8     2.533274427850   110.79953142    50.02756898
 F     10   9   8     2.529455642830   108.63493714   169.35523750
 F     10   9   8     2.527208643196   110.96044107   288.72891896
 H      2   1   3     1.814137088628   180.00000000     0.00000000

---------------------
BASIS SET INFORMATION
---------------------
There are 4 groups of distinct atoms

 Group   1 Type C   : 11s6p2d1f contracted to 5s3p2d1f pattern {62111/411/11/1}
 Group   2 Type O   : 11s6p2d1f contracted to 5s3p2d1f pattern {62111/411/11/1}
 Group   3 Type F   : 11s6p2d1f contracted to 5s3p2d1f pattern {62111/411/11/1}
 Group   4 Type H   : 5s1p contracted to 3s1p pattern {311/1}

Atom   0C    basis set group =>   1
Atom   1O    basis set group =>   2
Atom   2O    basis set group =>   2
Atom   3C    basis set group =>   1
Atom   4C    basis set group =>   1
Atom   5C    basis set group =>   1
Atom   6C    basis set group =>   1
Atom   7C    basis set group =>   1
Atom   8C    basis set group =>   1
Atom   9C    basis set group =>   1
Atom  10F    basis set group =>   3
Atom  11F    basis set group =>   3
Atom  12F    basis set group =>   3
Atom  13F    basis set group =>   3
Atom  14F    basis set group =>   3
Atom  15F    basis set group =>   3
Atom  16F    basis set group =>   3
Atom  17F    basis set group =>   3
Atom  18F    basis set group =>   3
Atom  19F    basis set group =>   3
Atom  20F    basis set group =>   3
Atom  21F    basis set group =>   3
Atom  22F    basis set group =>   3
Atom  23F    basis set group =>   3
Atom  24H    basis set group =>   4
---------------------------------
AUXILIARY/J BASIS SET INFORMATION
---------------------------------
There are 4 groups of distinct atoms

 Group   1 Type C   : 12s5p4d2f1g contracted to 6s4p3d1f1g pattern {711111/2111/211/2/1}
 Group   2 Type O   : 12s5p4d2f1g contracted to 6s4p3d1f1g pattern {711111/2111/211/2/1}
 Group   3 Type F   : 12s5p4d2f1g contracted to 6s4p3d1f1g pattern {711111/2111/211/2/1}
 Group   4 Type H   : 5s2p1d contracted to 3s1p1d pattern {311/2/1}

Atom   0C    basis set group =>   1
Atom   1O    basis set group =>   2
Atom   2O    basis set group =>   2
Atom   3C    basis set group =>   1
Atom   4C    basis set group =>   1
Atom   5C    basis set group =>   1
Atom   6C    basis set group =>   1
Atom   7C    basis set group =>   1
Atom   8C    basis set group =>   1
Atom   9C    basis set group =>   1
Atom  10F    basis set group =>   3
Atom  11F    basis set group =>   3
Atom  12F    basis set group =>   3
Atom  13F    basis set group =>   3
Atom  14F    basis set group =>   3
Atom  15F    basis set group =>   3
Atom  16F    basis set group =>   3
Atom  17F    basis set group =>   3
Atom  18F    basis set group =>   3
Atom  19F    basis set group =>   3
Atom  20F    basis set group =>   3
Atom  21F    basis set group =>   3
Atom  22F    basis set group =>   3
Atom  23F    basis set group =>   3
Atom  24H    basis set group =>   4


           ************************************************************
           *        Program running with 20 parallel MPI-processes    *
           *              working on a common directory               *
           ************************************************************
------------------------------------------------------------------------------
                             ORCA STARTUP CALCULATIONS
                           -- RI-GTO INTEGRALS CHOSEN --
------------------------------------------------------------------------------
------------------------------------------------------------------------------
                   ___                                                        
                  /   \      - P O W E R E D   B Y -                         
                 /     \                                                     
                 |  |  |   _    _      __       _____    __    __             
                 |  |  |  | |  | |    /  \     |  _  \  |  |  /  |          
                  \  \/   | |  | |   /    \    | | | |  |  | /  /          
                 / \  \   | |__| |  /  /\  \   | |_| |  |  |/  /          
                |  |  |   |  __  | /  /__\  \  |    /   |      \           
                |  |  |   | |  | | |   __   |  |    \   |  |\   \          
                \     /   | |  | | |  |  |  |  | |\  \  |  | \   \       
                 \___/    |_|  |_| |__|  |__|  |_| \__\ |__|  \__/        
                                                                              
                      - O R C A' S   B I G   F R I E N D -                    
                                      &                                       
                       - I N T E G R A L  F E E D E R -                       
                                                                              
 v1 FN, 2020, v2 2021, v3 2022-2024                                           
------------------------------------------------------------------------------


----------------------
SHARK INTEGRAL PACKAGE
----------------------

Number of atoms                             ...     25
Number of basis functions                   ...    750
Number of shells                            ...    268
Maximum angular momentum                    ...      3
Integral batch strategy                     ... SHARK/LIBINT Hybrid
RI-J (if used) integral strategy            ... SPLIT-RIJ (Revised 2003 algorithm where possible)
Printlevel                                  ...      1
Contraction scheme used                     ... SEGMENTED contraction
Prescreening option                         ... SCHWARTZ
   Thresh                                   ... 2.500e-11
   Tcut                                     ... 2.500e-12
   Tpresel                                  ... 2.500e-12 
Coulomb Range Separation                    ... NOT USED
Exchange Range Separation                   ... NOT USED
Multipole approximations                    ... NOT USED
Finite Nucleus Model                        ... NOT USED
CABS basis                                  ... NOT available
Auxiliary Coulomb fitting basis             ... AVAILABLE
   # of basis functions in Aux-J            ...   1187
   # of shells in Aux-J                     ...    365
   Maximum angular momentum in Aux-J        ...      4
Auxiliary J/K fitting basis                 ... NOT available
Auxiliary Correlation fitting basis         ... NOT available
Auxiliary 'external' fitting basis          ... NOT available

Checking pre-screening integrals            ... done (  0.0 sec) Dimension = 268
Check shell pair data                       ... done (  0.0 sec)
Shell pair information
Shell pair cut-off parameter TPreSel        ...   2.5e-12
Total number of shell pairs                 ...     36046
Shell pairs after pre-screening             ...     22175
Total number of primitive shell pairs       ...    118872
Primitive shell pairs kept                  ...     46997
          la=0 lb=0:   4229 shell pairs
          la=1 lb=0:   6054 shell pairs
          la=1 lb=1:   2093 shell pairs
          la=2 lb=0:   3292 shell pairs
          la=2 lb=1:   2407 shell pairs
          la=2 lb=2:    678 shell pairs
          la=3 lb=0:   1497 shell pairs
          la=3 lb=1:   1157 shell pairs
          la=3 lb=2:    619 shell pairs
          la=3 lb=3:    149 shell pairs

Calculating one electron integrals          ... done (  0.0 sec)
Calculating RI/J V-Matrix + Cholesky decomp.... done (  0.1 sec)
Calculating Nuclear repulsion               ... done (  0.0 sec) ENN=   2632.116048954315 Eh

Diagonalization of the overlap matrix:
Smallest eigenvalue                        ... 6.427e-05
Time for diagonalization                   ...    0.113 sec
Threshold for overlap eigenvalues          ... 1.000e-07
Number of eigenvalues below threshold      ... 0
Time for construction of square roots      ...    0.046 sec
Total time needed                          ...    0.165 sec

-------------------
DFT GRID GENERATION
-------------------

General Integration Accuracy     IntAcc      ... 4.388
Radial Grid Type                 RadialGrid  ... OptM3 with GC (2021)
Angular Grid (max. ang.)         AngularGrid ... 4 (Lebedev-302)
Angular grid pruning method      GridPruning ... 4 (adaptive)
Weight generation scheme         WeightScheme... mBecke (2022)
Basis function cutoff            BFCut       ... 1.0000e-11
Integration weight cutoff        WCut        ... 1.0000e-14
Partially contracted basis set               ... off
Rotationally invariant grid construction     ... off
Angular grids for H and He will be reduced by one unit

Total number of grid points                  ...   148726
Total number of batches                      ...     2336
Average number of points per batch           ...       63
Average number of grid points per atom       ...     5949

--------------------
COSX GRID GENERATION
--------------------

GRIDX 1
-------
General Integration Accuracy     IntAcc      ... 3.816
Radial Grid Type                 RadialGrid  ... OptM3 with GC (2021)
Angular Grid (max. ang.)         AngularGrid ... 1 (Lebedev-50)
Angular grid pruning method      GridPruning ... 4 (adaptive)
Weight generation scheme         WeightScheme... mBecke (2022)
Basis function cutoff            BFCut       ... 1.0000e-11
Integration weight cutoff        WCut        ... 1.0000e-14
Partially contracted basis set               ... on
Rotationally invariant grid construction     ... off
Angular grids for H and He will be reduced by one unit

Total number of grid points                  ...    18708
Total number of batches                      ...      158
Average number of points per batch           ...      118
Average number of grid points per atom       ...      748
UseSFitting                                  ... on

GRIDX 2
-------
General Integration Accuracy     IntAcc      ... 4.020
Radial Grid Type                 RadialGrid  ... OptM3 with GC (2021)
Angular Grid (max. ang.)         AngularGrid ... 2 (Lebedev-110)
Angular grid pruning method      GridPruning ... 4 (adaptive)
Weight generation scheme         WeightScheme... mBecke (2022)
Basis function cutoff            BFCut       ... 1.0000e-11
Integration weight cutoff        WCut        ... 1.0000e-14
Partially contracted basis set               ... on
Rotationally invariant grid construction     ... off
Angular grids for H and He will be reduced by one unit

Total number of grid points                  ...    44104
Total number of batches                      ...      360
Average number of points per batch           ...      122
Average number of grid points per atom       ...     1764
UseSFitting                                  ... on

GRIDX 3
-------
General Integration Accuracy     IntAcc      ... 4.338
Radial Grid Type                 RadialGrid  ... OptM3 with GC (2021)
Angular Grid (max. ang.)         AngularGrid ... 3 (Lebedev-194)
Angular grid pruning method      GridPruning ... 4 (adaptive)
Weight generation scheme         WeightScheme... mBecke (2022)
Basis function cutoff            BFCut       ... 1.0000e-11
Integration weight cutoff        WCut        ... 1.0000e-14
Partially contracted basis set               ... on
Rotationally invariant grid construction     ... off
Angular grids for H and He will be reduced by one unit

Total number of grid points                  ...    97651
Total number of batches                      ...      774
Average number of points per batch           ...      126
Average number of grid points per atom       ...     3906
UseSFitting                                  ... on
Initializing property integral containers    ... done (  0.0 sec)

SHARK setup successfully completed in   3.2 seconds

Maximum memory used throughout the entire STARTUP-calculation: 57.1 MB


           ************************************************************
           *        Program running with 20 parallel MPI-processes    *
           *              working on a common directory               *
           ************************************************************
-------------------------------------------------------------------------------
                                 ORCA GUESS
                   Start orbitals & Density for SCF / CASSCF
-------------------------------------------------------------------------------

------------
SCF SETTINGS
------------
Hamiltonian:
 Density Functional     Method          .... DFT(GTOs)
  Functional kind                       .... Exchange
  Functional name                       .... Re-regularized SCAN exchange by Furness et al
  Functional family                     .... MGGA
  Functional refs                              
    [ 0] J. W. Furness, A. D. Kaplan, J. Ning, J. P. Perdew, and J. Sun.,  J. Phys. Chem. Lett. 11, 8208-8215 (2020), doi: 10.1021/acs.jpclett.0c02405
    [ 1] J. W. Furness, A. D. Kaplan, J. Ning, J. P. Perdew, and J. Sun.,  J. Phys. Chem. Lett. 11, 9248-9248 (2020), doi: 10.1021/acs.jpclett.0c03077
  Functional external parameters        .... 6
    Parameter  0 _c1        =  6.670000e-01 : c1 parameter        
    Parameter  1 _c2        =  8.000000e-01 : c2 parameter        
    Parameter  2 _d         =  1.240000e+00 : d parameter         
    Parameter  3 _k1        =  6.500000e-02 : k1 parameter        
    Parameter  4 _eta       =  1.000000e-03 : eta parameter       
    Parameter  5 _dp2       =  3.610000e-01 : dp2 parameter       
  Functional kind                       .... Correlation
  Functional name                       .... Re-regularized SCAN correlation by Furness et al
  Functional family                     .... MGGA
  Functional refs                              
    [ 0] J. W. Furness, A. D. Kaplan, J. Ning, J. P. Perdew, and J. Sun.,  J. Phys. Chem. Lett. 11, 8208-8215 (2020), doi: 10.1021/acs.jpclett.0c02405
    [ 1] J. W. Furness, A. D. Kaplan, J. Ning, J. P. Perdew, and J. Sun.,  J. Phys. Chem. Lett. 11, 9248-9248 (2020), doi: 10.1021/acs.jpclett.0c03077
  Functional external parameters        .... 1
    Parameter  0 _eta       =  1.000000e-03 : Regularization parameter
 Gradients option       PostSCFGGA      .... off
 Hybrid DFT is turned on
   Fraction HF Exchange ScalHFX         ....  0.100000
   Scaling of DF-GGA-X  ScalDFX         ....  0.900000
   Scaling of DF-GGA-C  ScalDFC         ....  1.000000
   Scaling of DF-LDA-C  ScalLDAC        ....  1.000000
   Perturbative correction              ....  0.000000
   NL short-range parameter             .... 11.900000
 RI-approximation to the Coulomb term is turned on
   Number of AuxJ basis functions       .... 1187
   RIJ-COSX (HFX calculated with COS-X)).... on


General Settings:
 Integral files         IntName         .... rf_mecn_opt_r2s_C7_P_B
 Hartree-Fock type      HFTyp           .... UHF
 Total Charge           Charge          ....    0
 Multiplicity           Mult            ....    2
 Number of Electrons    NEL             ....  191
 Basis Dimension        Dim             ....  750
 Nuclear Repulsion      ENuc            ....   2632.1160489543 Eh

Convergence Acceleration:
 AO-DIIS                CNVDIIS         .... on
   Start iteration      DIISMaxIt       ....     0
   Startup error        DIISStart       ....  0.200000
   # of expansion vecs  DIISMaxEq       ....     5
   Bias factor          DIISBfac        ....   1.050
   Max. coefficient     DIISMaxC        ....  10.000
 MO-DIIS                CNVKDIIS        .... off
 Trust-Rad. Augm. Hess. CNVTRAH         .... auto
   Auto Start mean grad. ratio tolernc. ....  1.125000
   Auto Start start iteration           ....    50
   Auto Start num. interpolation iter.  ....    10
   Max. Number of Micro iterations      ....    24
   Max. Number of Macro iterations      .... Maxiter - #DIIS iter
   Number of Davidson start vectors     ....     2
   Converg. threshold    (grad. norm)   ....   1.000e-05
   Grad. Scal. Fac. for Micro threshold ....   0.100
   Minimum threshold for Micro iter.    ....   1.000e-02
   NR start threshold (gradient norm)   ....   1.000e-04
   Initial trust radius                 ....   0.400
   Minimum AH scaling param. (alpha)    ....   1.000
   Maximum AH scaling param. (alpha)    .... 1000.000
   Quad. conv. algorithm                .... NR
   White noise on init. David. guess    .... on
   Maximum white noise                  ....   0.010
   Pseudo random numbers                .... off
   Inactive MOs                         .... canonical
   Orbital update algorithm             .... Taylor
   Preconditioner                       .... Diag
   Full preconditioner red. dimension   ....   250
 SOSCF                  CNVSOSCF        .... on
   Start iteration      SOSCFMaxIt      ....   150
   Startup grad/error   SOSCFStart      ....  0.001000
   Hessian update       SOSCFHessUp     .... L-BFGS
 Level Shifting         CNVShift        .... on
   Level shift para.    LevelShift      ....    0.2500
   Turn off err/grad.   ShiftErr        ....    0.0000
 Zerner damping         CNVZerner       .... off
 Static damping         CNVDamp         .... on
   Fraction old density DampFac         ....    0.8500
   Max. Damping (<1)    DampMax         ....    0.9800
   Min. Damping (>=0)   DampMin         ....    0.0000
   Turn off err/grad.   DampErr         ....    0.0300

SCF Procedure:
 Maximum # iterations   MaxIter         ....  1500
 SCF integral mode      SCFMode         .... Direct
   Integral package                     .... SHARK and LIBINT hybrid scheme
 Reset frequency        DirectResetFreq ....    20
 Integral Threshold     Thresh          ....  2.500e-11 Eh
 Primitive CutOff       TCut            ....  2.500e-12 Eh

Convergence Tolerance:
 Convergence Check Mode ConvCheckMode   .... Total+1el-Energy
 Convergence forced     ConvForced      .... 0
 Energy Change          TolE            ....  1.000e-08 Eh
 1-El. energy change                    ....  1.000e-05 Eh
 Orbital Gradient       TolG            ....  1.000e-05
 Orbital Rotation angle TolX            ....  1.000e-05
 DIIS Error             TolErr          ....  5.000e-07

------------------------------
INITIAL GUESS: MODEL POTENTIAL
------------------------------
Loading Hartree-Fock densities                     ... done
Calculating cut-offs                               ... done
Initializing the effective Hamiltonian             ... done
Setting up the integral package (SHARK)            ... done
Starting the Coulomb interaction                   ... done (   0.2 sec)
Making the grid                                    ... done (   0.4 sec)
Mapping shells                                     ... done
Starting the XC term evaluation                    ... done (   0.1 sec)
  promolecular density results
     # of electrons  =    191.000509358
     EX              =   -197.375717936
     EC              =     -6.683278328
     EX+EC           =   -204.058996264
Transforming the Hamiltonian                       ... done (   0.0 sec)
Diagonalizing the Hamiltonian                      ... done (   0.1 sec)
Back transforming the eigenvectors                 ... done (   0.0 sec)
Now organizing SCF variables                       ... done
                      ------------------
                      INITIAL GUESS DONE (   1.0 sec)
                      ------------------
             **** ENERGY FILE WAS UPDATED (rf_mecn_opt_r2s_C7_P_B.en.tmp) ****
Finished Guess after   1.9 sec
Maximum memory used throughout the entire GUESS-calculation: 46.3 MB


           ************************************************************
           *        Program running with 20 parallel MPI-processes    *
           *              working on a common directory               *
           ************************************************************

-------------------------------------------------------------------------------------------
                                      ORCA LEAN-SCF
                              memory conserving SCF solver
-------------------------------------------------------------------------------------------

--------------------
CPCM SOLVATION MODEL
--------------------
CPCM parameters:
  Epsilon                                         ...      35.6880
  Refrac                                          ...       1.3442
  Rsolv                                           ...       1.3000
  Surface type                                    ... GAUSSIAN VDW
  Discretization scheme                           ... Constant charge density
    Threshold for H atoms                         ...       5.0000 (charges/Ang^2)
    Threshold for non-H atoms                     ...       5.0000 (charges/Ang^2)
  Epsilon function type                           ...         CPCM
Solvent:                                          ... ACETONITRILE
SMD-CDS solvent descriptors:
  Soln                                            ...       1.3442
  Soln25                                          ...       1.3416
  Sola                                            ...       0.0700
  Solb                                            ...       0.3200
  Solg                                            ...      41.2500
  Solc                                            ...       0.0000
  Solh                                            ...       0.0000
Radii:
  Scheme                                          ... Element-dependent radii
  Radius for C  used is    3.4960 Bohr (=   1.8500 Ang.)
  Radius for O  used is    4.0969 Bohr (=   2.1680 Ang.)
  Radius for F  used is    3.2692 Bohr (=   1.7300 Ang.)
  Radius for H  used is    2.2677 Bohr (=   1.2000 Ang.)
Calculating surface                               ...        done! (  0.0s)
Cavity surface points                             ...         2160
Cavity Volume                                     ...    2132.4922
Cavity Surface-area                               ...    1114.6078
Calculating surface distance matrix               ...        done! (  0.0s)
Performing Cholesky decomposition & store         ...        done! (  0.1s)
Overall time for CPCM initialization              ...                 0.1s

----------------------------------------D-I-I-S--------------------------------------------
Iteration    Energy (Eh)           Delta-E    RMSDP     MaxDP     DIISErr   Damp  Time(sec)
-------------------------------------------------------------------------------------------
               ***  Starting incremental Fock matrix formation  ***
    1    -1853.0183967472080440     0.00e+00  2.08e-04  1.61e-02  1.44e-01  0.850   6.8
Warning: op=1 Small HOMO/LUMO gap (   0.045) - skipping pre-diagonalization
         Will do a full diagonalization
    2    -1853.1555147074491288    -1.37e-01  1.97e-04  1.50e-02  8.93e-02  0.850   5.7
                               ***Turning on AO-DIIS***
    3    -1853.2243777167527696    -6.89e-02  8.64e-05  4.53e-03  5.19e-02  0.850   4.9
    4    -1853.2652914206441892    -4.09e-02  5.62e-05  2.83e-03  3.84e-02  0.850   4.7
    5    -1853.2943863875566421    -2.91e-02  4.62e-05  3.08e-03  3.06e-02  0.850   4.5
    6    -1853.3176343945519875    -2.32e-02  4.12e-05  2.96e-03  2.73e-02  0.850   4.4
    7    -1853.3372422409433966    -1.96e-02  2.55e-04  1.82e-02  2.32e-02  0.000   4.2
    8    -1853.4416499278154333    -1.04e-01  5.56e-05  7.92e-03  1.35e-02  0.000   4.8
    9    -1853.4418174974957765    -1.68e-04  2.00e-05  2.65e-03  1.24e-02  0.000   4.1
   10    -1853.4427686151307171    -9.51e-04  8.87e-06  8.49e-04  3.33e-03  0.000   3.9
                              *** Initializing SOSCF ***
---------------------------------------S-O-S-C-F--------------------------------------
Iteration    Energy (Eh)           Delta-E    RMSDP     MaxDP     MaxGrad    Time(sec)
--------------------------------------------------------------------------------------
   11    -1853.4428613319410033    -9.27e-05  3.99e-06  4.76e-04  8.60e-04     4.1
               *** Restarting incremental Fock matrix formation ***
   12    -1853.4428848946731705    -2.36e-05  2.82e-06  2.53e-04  1.42e-04     7.6
   13    -1853.4428856612062191    -7.67e-07  1.76e-06  1.57e-04  2.05e-04     4.6
   14    -1853.4428868921418143    -1.23e-06  1.08e-06  1.21e-04  9.23e-05     4.4
   15    -1853.4428866008506702     2.91e-07  8.25e-07  7.82e-05  2.60e-04     4.1
   16    -1853.4428870499755249    -4.49e-07  4.80e-07  3.61e-05  3.98e-05     3.8
   17    -1853.4428870634651503    -1.35e-08  2.42e-07  2.01e-05  2.78e-05     3.8
   18    -1853.4428870985852882    -3.51e-08  1.29e-07  8.78e-06  2.38e-06     3.5
                  *** Gradient check signals convergence ***

               *****************************************************
               *                     SUCCESS                       *
               *           SCF CONVERGED AFTER  18 CYCLES          *
               *****************************************************

Recomputing exchange energy using gridx3       ... done (    8.924 sec)
Old exchange energy                            :    -19.882752778 Eh
New exchange energy                            :    -19.882765574 Eh
Exchange energy change after final integration :     -0.000012795 Eh
Total energy after final integration           :  -1853.442899894 Eh

SMD CDS free energy correction energy :                 3.63138     Kcal/mol
Total Energy after SMD CDS correction =             -1853.437112924 Eh
             **** ENERGY FILE WAS UPDATED (rf_mecn_opt_r2s_C7_P_B.en.tmp) ****

----------------
TOTAL SCF ENERGY
----------------

Total Energy       :      -1853.43711292447165 Eh          -50434.58789 eV

Components:
Nuclear Repulsion  :       2632.11604895431492 Eh           71623.51896 eV
Electronic Energy  :      -4485.54117755353764 Eh         -122057.78074 eV
One Electron Energy:      -7816.14623153984576 Eh         -212688.15182 eV
Two Electron Energy:       3330.60505398630858 Eh           90630.37108 eV
CPCM Dielectric    :         -0.01775849936242 Eh              -0.48323 eV
SMD CDS (Gcds)     :          0.00578696939472 Eh               0.15747 eV

Virial components:
Potential Energy   :      -3699.16557614484373 Eh         -100659.41275 eV
Kinetic Energy     :       1845.72846322037185 Eh           50224.82486 eV
Virial Ratio       :          2.00417648091673

DFT components:
N(Alpha)           :       95.999979342980 electrons
N(Beta)            :       94.999968171830 electrons
N(Total)           :      190.999947514811 electrons
E(X)               :     -179.955816142373 Eh       
E(C)               :       -6.626017837319 Eh       
E(XC)              :     -186.581833979692 Eh       

CPCM Solvation Model Properties:
Surface-charge          :         -0.00860992921797
Corrected charge        :         -0.00000000000000
Outlying charge corr.   :          0.00000403942930 Eh               0.00011 eV
Free-energy (cav+disp)  :          0.00578696939472 Eh               0.15747 eV

---------------
SCF CONVERGENCE
---------------

  Last Energy change         ...    3.5120e-08  Tolerance :   1.0000e-08
  Last MAX-Density change    ...    8.7763e-06  Tolerance :   1.0000e-07
  Last RMS-Density change    ...    1.2912e-07  Tolerance :   5.0000e-09
  Last DIIS Error            ...    8.6009e-04  Tolerance :   5.0000e-07
  Last Orbital Gradient      ...    2.3795e-06  Tolerance :   1.0000e-05
  Last Orbital Rotation      ...    1.1485e-05  Tolerance :   1.0000e-05


----------------------
UHF SPIN CONTAMINATION
----------------------

Warning: in a DFT calculation there is little theoretical justification to 
         calculate <S**2> as in Hartree-Fock theory. We will do it anyways
         but you should keep in mind that the values have only limited relevance

Expectation value of <S**2>     :     0.755090
Ideal value S*(S+1) for S=0.5   :     0.750000
Deviation                       :     0.005090

----------------
ORBITAL ENERGIES
----------------
                 SPIN UP ORBITALS
  NO   OCC          E(Eh)            E(eV) 
   0   1.0000     -24.736291      -673.1087 
   1   1.0000     -24.732513      -673.0059 
   2   1.0000     -24.732415      -673.0032 
   3   1.0000     -24.731597      -672.9810 
   4   1.0000     -24.731533      -672.9792 
   5   1.0000     -24.731402      -672.9757 
   6   1.0000     -24.730858      -672.9609 
   7   1.0000     -24.730172      -672.9422 
   8   1.0000     -24.729221      -672.9163 
   9   1.0000     -24.727599      -672.8722 
  10   1.0000     -24.726299      -672.8368 
  11   1.0000     -24.725891      -672.8257 
  12   1.0000     -24.721692      -672.7114 
  13   1.0000     -24.721569      -672.7081 
  14   1.0000     -19.194844      -522.3183 
  15   1.0000     -19.161289      -521.4052 
  16   1.0000     -10.442341      -284.1505 
  17   1.0000     -10.393494      -282.8213 
  18   1.0000     -10.392376      -282.7909 
  19   1.0000     -10.392371      -282.7908 
  20   1.0000     -10.391636      -282.7708 
  21   1.0000     -10.391158      -282.7578 
  22   1.0000     -10.390867      -282.7499 
  23   1.0000     -10.327794      -281.0336 
  24   1.0000      -1.348707       -36.7002 
  25   1.0000      -1.334116       -36.3031 
  26   1.0000      -1.319396       -35.9026 
  27   1.0000      -1.308853       -35.6157 
  28   1.0000      -1.307307       -35.5736 
  29   1.0000      -1.290707       -35.1219 
  30   1.0000      -1.285940       -34.9922 
  31   1.0000      -1.266924       -34.4748 
  32   1.0000      -1.262261       -34.3479 
  33   1.0000      -1.258724       -34.2516 
  34   1.0000      -1.257891       -34.2290 
  35   1.0000      -1.253398       -34.1067 
  36   1.0000      -1.252199       -34.0741 
  37   1.0000      -1.237658       -33.6784 
  38   1.0000      -1.095164       -29.8009 
  39   1.0000      -1.006583       -27.3905 
  40   1.0000      -0.848438       -23.0872 
  41   1.0000      -0.832788       -22.6613 
  42   1.0000      -0.805264       -21.9123 
  43   1.0000      -0.767989       -20.8980 
  44   1.0000      -0.733640       -19.9634 
  45   1.0000      -0.702808       -19.1244 
  46   1.0000      -0.674958       -18.3665 
  47   1.0000      -0.668844       -18.2002 
  48   1.0000      -0.632372       -17.2077 
  49   1.0000      -0.629866       -17.1395 
  50   1.0000      -0.621584       -16.9142 
  51   1.0000      -0.616707       -16.7815 
  52   1.0000      -0.614643       -16.7253 
  53   1.0000      -0.611059       -16.6278 
  54   1.0000      -0.604267       -16.4429 
  55   1.0000      -0.596473       -16.2309 
  56   1.0000      -0.588826       -16.0228 
  57   1.0000      -0.586792       -15.9674 
  58   1.0000      -0.577517       -15.7150 
  59   1.0000      -0.571571       -15.5532 
  60   1.0000      -0.569777       -15.5044 
  61   1.0000      -0.561548       -15.2805 
  62   1.0000      -0.515307       -14.0222 
  63   1.0000      -0.500742       -13.6259 
  64   1.0000      -0.495838       -13.4924 
  65   1.0000      -0.492695       -13.4069 
  66   1.0000      -0.490261       -13.3407 
  67   1.0000      -0.485405       -13.2085 
  68   1.0000      -0.482023       -13.1165 
  69   1.0000      -0.480277       -13.0690 
  70   1.0000      -0.474741       -12.9184 
  71   1.0000      -0.471887       -12.8407 
  72   1.0000      -0.468818       -12.7572 
  73   1.0000      -0.464124       -12.6295 
  74   1.0000      -0.458899       -12.4873 
  75   1.0000      -0.457169       -12.4402 
  76   1.0000      -0.451785       -12.2937 
  77   1.0000      -0.450184       -12.2501 
  78   1.0000      -0.446810       -12.1583 
  79   1.0000      -0.441596       -12.0164 
  80   1.0000      -0.438822       -11.9409 
  81   1.0000      -0.437262       -11.8985 
  82   1.0000      -0.435555       -11.8521 
  83   1.0000      -0.431664       -11.7462 
  84   1.0000      -0.429110       -11.6767 
  85   1.0000      -0.426938       -11.6176 
  86   1.0000      -0.424656       -11.5555 
  87   1.0000      -0.423943       -11.5361 
  88   1.0000      -0.419860       -11.4250 
  89   1.0000      -0.405442       -11.0326 
  90   1.0000      -0.379437       -10.3250 
  91   1.0000      -0.354621        -9.6497 
  92   1.0000      -0.336722        -9.1627 
  93   1.0000      -0.336129        -9.1465 
  94   1.0000      -0.306950        -8.3525 
  95   1.0000      -0.301860        -8.2140 
  96   0.0000      -0.111884        -3.0445 
  97   0.0000      -0.028937        -0.7874 
  98   0.0000      -0.013683        -0.3723 
  99   0.0000       0.001231         0.0335 
 100   0.0000       0.015508         0.4220 
 101   0.0000       0.047988         1.3058 
 102   0.0000       0.063916         1.7392 
 103   0.0000       0.097438         2.6514 
 104   0.0000       0.102152         2.7797 
 105   0.0000       0.106430         2.8961 
 106   0.0000       0.110852         3.0164 

                 SPIN DOWN ORBITALS
  NO   OCC          E(Eh)            E(eV) 
   0   1.0000     -24.732487      -673.0052 
   1   1.0000     -24.732413      -673.0032 
   2   1.0000     -24.731533      -672.9792 
   3   1.0000     -24.731367      -672.9747 
   4   1.0000     -24.730856      -672.9608 
   5   1.0000     -24.730256      -672.9445 
   6   1.0000     -24.730171      -672.9422 
   7   1.0000     -24.730041      -672.9386 
   8   1.0000     -24.729197      -672.9157 
   9   1.0000     -24.727599      -672.8722 
  10   1.0000     -24.726345      -672.8380 
  11   1.0000     -24.725928      -672.8267 
  12   1.0000     -24.721692      -672.7114 
  13   1.0000     -24.721569      -672.7081 
  14   1.0000     -19.194844      -522.3183 
  15   1.0000     -19.161289      -521.4052 
  16   1.0000     -10.442333      -284.1503 
  17   1.0000     -10.393494      -282.8214 
  18   1.0000     -10.392388      -282.7913 
  19   1.0000     -10.392330      -282.7897 
  20   1.0000     -10.391639      -282.7709 
  21   1.0000     -10.391159      -282.7578 
  22   1.0000     -10.390827      -282.7488 
  23   1.0000     -10.310115      -280.5525 
  24   1.0000      -1.347604       -36.6702 
  25   1.0000      -1.333872       -36.2965 
  26   1.0000      -1.318682       -35.8832 
  27   1.0000      -1.308152       -35.5966 
  28   1.0000      -1.307262       -35.5724 
  29   1.0000      -1.290703       -35.1218 
  30   1.0000      -1.278341       -34.7854 
  31   1.0000      -1.266460       -34.4621 
  32   1.0000      -1.260430       -34.2980 
  33   1.0000      -1.257858       -34.2280 
  34   1.0000      -1.257725       -34.2244 
  35   1.0000      -1.252782       -34.0899 
  36   1.0000      -1.252107       -34.0716 
  37   1.0000      -1.237657       -33.6784 
  38   1.0000      -1.095164       -29.8009 
  39   1.0000      -1.006583       -27.3905 
  40   1.0000      -0.846303       -23.0291 
  41   1.0000      -0.824346       -22.4316 
  42   1.0000      -0.796742       -21.6805 
  43   1.0000      -0.765484       -20.8299 
  44   1.0000      -0.732735       -19.9387 
  45   1.0000      -0.700284       -19.0557 
  46   1.0000      -0.671687       -18.2775 
  47   1.0000      -0.666265       -18.1300 
  48   1.0000      -0.631591       -17.1865 
  49   1.0000      -0.627787       -17.0830 
  50   1.0000      -0.620526       -16.8854 
  51   1.0000      -0.615934       -16.7604 
  52   1.0000      -0.612671       -16.6716 
  53   1.0000      -0.608205       -16.5501 
  54   1.0000      -0.603301       -16.4167 
  55   1.0000      -0.595738       -16.2109 
  56   1.0000      -0.587600       -15.9894 
  57   1.0000      -0.585610       -15.9352 
  58   1.0000      -0.575970       -15.6729 
  59   1.0000      -0.570755       -15.5310 
  60   1.0000      -0.565895       -15.3988 
  61   1.0000      -0.561179       -15.2705 
  62   1.0000      -0.500508       -13.6195 
  63   1.0000      -0.496671       -13.5151 
  64   1.0000      -0.491941       -13.3864 
  65   1.0000      -0.490988       -13.3605 
  66   1.0000      -0.489012       -13.3067 
  67   1.0000      -0.484136       -13.1740 
  68   1.0000      -0.481076       -13.0908 
  69   1.0000      -0.476613       -12.9693 
  70   1.0000      -0.474203       -12.9037 
  71   1.0000      -0.469238       -12.7686 
  72   1.0000      -0.467218       -12.7137 
  73   1.0000      -0.461137       -12.5482 
  74   1.0000      -0.457564       -12.4509 
  75   1.0000      -0.455858       -12.4045 
  76   1.0000      -0.450103       -12.2479 
  77   1.0000      -0.445816       -12.1313 
  78   1.0000      -0.444107       -12.0848 
  79   1.0000      -0.441166       -12.0047 
  80   1.0000      -0.437966       -11.9177 
  81   1.0000      -0.436565       -11.8795 
  82   1.0000      -0.435327       -11.8458 
  83   1.0000      -0.431262       -11.7352 
  84   1.0000      -0.428919       -11.6715 
  85   1.0000      -0.426073       -11.5940 
  86   1.0000      -0.424077       -11.5397 
  87   1.0000      -0.423623       -11.5274 
  88   1.0000      -0.419181       -11.4065 
  89   1.0000      -0.403289       -10.9741 
  90   1.0000      -0.376529       -10.2459 
  91   1.0000      -0.353344        -9.6150 
  92   1.0000      -0.336193        -9.1483 
  93   1.0000      -0.334679        -9.1071 
  94   1.0000      -0.306914        -8.3516 
  95   0.0000      -0.138330        -3.7642 
  96   0.0000      -0.111838        -3.0433 
  97   0.0000      -0.027428        -0.7464 
  98   0.0000      -0.011830        -0.3219 
  99   0.0000       0.003803         0.1035 
 100   0.0000       0.019196         0.5223 
 101   0.0000       0.054677         1.4878 
 102   0.0000       0.067927         1.8484 
 103   0.0000       0.102396         2.7863 
 104   0.0000       0.103303         2.8110 
 105   0.0000       0.110071         2.9952 
*Only the first 10 virtual orbitals were printed.

                    ********************************
                    * MULLIKEN POPULATION ANALYSIS *
                    ********************************

--------------------------------------------
MULLIKEN ATOMIC CHARGES AND SPIN POPULATIONS
--------------------------------------------
   0 C :    0.382521   -0.000001
   1 O :   -0.455819    0.000004
   2 O :   -0.394201    0.000002
   3 C :    0.370572   -0.000023
   4 C :    0.326917   -0.000022
   5 C :    0.329568    0.000524
   6 C :    0.335169   -0.002012
   7 C :    0.354002   -0.004881
   8 C :    0.125495    0.869996
   9 C :    0.491963    0.000312
  10 F :   -0.176710   -0.000001
  11 F :   -0.176500    0.000002
  12 F :   -0.166381    0.000012
  13 F :   -0.170872   -0.000000
  14 F :   -0.165690   -0.000039
  15 F :   -0.166387    0.000002
  16 F :   -0.168899    0.000537
  17 F :   -0.169866    0.000315
  18 F :   -0.164613    0.026047
  19 F :   -0.171275    0.000507
  20 F :   -0.153375    0.082521
  21 F :   -0.155411    0.027813
  22 F :   -0.163108   -0.000525
  23 F :   -0.163118   -0.001089
  24 H :    0.466019   -0.000001
Sum of atomic charges         :   -0.0000000
Sum of atomic spin populations:    1.0000000

-----------------------------------------------------
MULLIKEN REDUCED ORBITAL CHARGES AND SPIN POPULATIONS
-----------------------------------------------------
CHARGE
  0 C s       :     3.169210  s :     3.169210
      pz      :     0.775275  p :     2.219109
      px      :     0.790823
      py      :     0.653010
      dz2     :     0.015548  d :     0.211116
      dxz     :     0.014484
      dyz     :     0.060044
      dx2y2   :     0.053212
      dxy     :     0.067827
      f0      :     0.001820  f :     0.018045
      f+1     :     0.001149
      f-1     :     0.002317
      f+2     :     0.002603
      f-2     :     0.001966
      f+3     :     0.003813
      f-3     :     0.004376

  1 O s       :     3.684744  s :     3.684744
      pz      :     1.718720  p :     4.753359
      px      :     1.684402
      py      :     1.350237
      dz2     :     0.001740  d :     0.014829
      dxz     :     0.001257
      dyz     :     0.003215
      dx2y2   :     0.003297
      dxy     :     0.005320
      f0      :     0.000283  f :     0.002887
      f+1     :     0.000134
      f-1     :     0.000389
      f+2     :     0.000246
      f-2     :     0.000445
      f+3     :     0.000930
      f-3     :     0.000461

  2 O s       :     3.899266  s :     3.899266
      pz      :     1.539824  p :     4.468458
      px      :     1.691084
      py      :     1.237549
      dz2     :     0.003282  d :     0.025175
      dxz     :     0.000340
      dyz     :     0.006624
      dx2y2   :     0.009250
      dxy     :     0.005679
      f0      :     0.000119  f :     0.001303
      f+1     :     0.000015
      f-1     :     0.000231
      f+2     :     0.000222
      f-2     :     0.000031
      f+3     :     0.000292
      f-3     :     0.000393

  3 C s       :     3.107156  s :     3.107156
      pz      :     0.678946  p :     2.235728
      px      :     0.914574
      py      :     0.642208
      dz2     :     0.045760  d :     0.261813
      dxz     :     0.052588
      dyz     :     0.066043
      dx2y2   :     0.044259
      dxy     :     0.053163
      f0      :     0.005250  f :     0.024731
      f+1     :     0.003533
      f-1     :     0.003770
      f+2     :     0.003562
      f-2     :     0.001995
      f+3     :     0.003656
      f-3     :     0.002965

  4 C s       :     3.122128  s :     3.122128
      pz      :     0.607951  p :     2.242598
      px      :     0.934919
      py      :     0.699728
      dz2     :     0.061500  d :     0.281500
      dxz     :     0.059182
      dyz     :     0.069211
      dx2y2   :     0.032978
      dxy     :     0.058628
      f0      :     0.003471  f :     0.026857
      f+1     :     0.004833
      f-1     :     0.007880
      f+2     :     0.002114
      f-2     :     0.002611
      f+3     :     0.003491
      f-3     :     0.002459

  5 C s       :     3.150139  s :     3.150139
      pz      :     0.587094  p :     2.205867
      px      :     0.911008
      py      :     0.707765
      dz2     :     0.076110  d :     0.287331
      dxz     :     0.061443
      dyz     :     0.059605
      dx2y2   :     0.031923
      dxy     :     0.058249
      f0      :     0.004752  f :     0.027096
      f+1     :     0.004303
      f-1     :     0.005992
      f+2     :     0.003078
      f-2     :     0.004289
      f+3     :     0.002528
      f-3     :     0.002153

  6 C s       :     3.131943  s :     3.131943
      pz      :     0.576046  p :     2.220240
      px      :     0.924901
      py      :     0.719292
      dz2     :     0.080489  d :     0.285649
      dxz     :     0.061003
      dyz     :     0.054203
      dx2y2   :     0.032181
      dxy     :     0.057773
      f0      :     0.005920  f :     0.027000
      f+1     :     0.003820
      f-1     :     0.004198
      f+2     :     0.003936
      f-2     :     0.005133
      f+3     :     0.002087
      f-3     :     0.001905

  7 C s       :     3.125497  s :     3.125497
      pz      :     0.585526  p :     2.202162
      px      :     0.923317
      py      :     0.693320
      dz2     :     0.073022  d :     0.291221
      dxz     :     0.061285
      dyz     :     0.058730
      dx2y2   :     0.036801
      dxy     :     0.061383
      f0      :     0.004543  f :     0.027117
      f+1     :     0.004246
      f-1     :     0.006299
      f+2     :     0.003018
      f-2     :     0.004178
      f+3     :     0.002724
      f-3     :     0.002109

  8 C s       :     3.292868  s :     3.292868
      pz      :     0.613528  p :     2.424841
      px      :     0.907550
      py      :     0.903763
      dz2     :     0.029303  d :     0.141563
      dxz     :     0.044678
      dyz     :     0.037694
      dx2y2   :     0.011689
      dxy     :     0.018198
      f0      :     0.002582  f :     0.015234
      f+1     :     0.004777
      f-1     :     0.004345
      f+2     :     0.000573
      f-2     :     0.000807
      f+3     :     0.001160
      f-3     :     0.000989

  9 C s       :     3.020632  s :     3.020632
      pz      :     0.644621  p :     2.097786
      px      :     0.798638
      py      :     0.654528
      dz2     :     0.066544  d :     0.350447
      dxz     :     0.068285
      dyz     :     0.082612
      dx2y2   :     0.061616
      dxy     :     0.071390
      f0      :     0.004505  f :     0.039172
      f+1     :     0.007836
      f-1     :     0.008645
      f+2     :     0.004432
      f-2     :     0.002944
      f+3     :     0.007314
      f-3     :     0.003495

 10 F s       :     3.930877  s :     3.930877
      pz      :     1.893614  p :     5.229893
      px      :     1.882374
      py      :     1.453905
      dz2     :     0.002154  d :     0.015322
      dxz     :     0.000305
      dyz     :     0.002943
      dx2y2   :     0.005817
      dxy     :     0.004104
      f0      :     0.000049  f :     0.000618
      f+1     :     0.000015
      f-1     :     0.000122
      f+2     :     0.000071
      f-2     :     0.000018
      f+3     :     0.000166
      f-3     :     0.000176

 11 F s       :     3.931423  s :     3.931423
      pz      :     1.467260  p :     5.229662
      px      :     1.896588
      py      :     1.865815
      dz2     :     0.006672  d :     0.014809
      dxz     :     0.003506
      dyz     :     0.003719
      dx2y2   :     0.000456
      dxy     :     0.000456
      f0      :     0.000215  f :     0.000605
      f+1     :     0.000135
      f-1     :     0.000174
      f+2     :     0.000038
      f-2     :     0.000038
      f+3     :     0.000003
      f-3     :     0.000003

 12 F s       :     3.929628  s :     3.929628
      pz      :     1.807814  p :     5.219489
      px      :     1.898694
      py      :     1.512982
      dz2     :     0.002111  d :     0.016577
      dxz     :     0.000818
      dyz     :     0.005349
      dx2y2   :     0.004922
      dxy     :     0.003376
      f0      :     0.000076  f :     0.000687
      f+1     :     0.000004
      f-1     :     0.000122
      f+2     :     0.000180
      f-2     :     0.000064
      f+3     :     0.000109
      f-3     :     0.000131

 13 F s       :     3.931538  s :     3.931538
      pz      :     1.442033  p :     5.222240
      px      :     1.901704
      py      :     1.878503
      dz2     :     0.008454  d :     0.016418
      dxz     :     0.003813
      dyz     :     0.003590
      dx2y2   :     0.000275
      dxy     :     0.000286
      f0      :     0.000330  f :     0.000677
      f+1     :     0.000155
      f-1     :     0.000161
      f+2     :     0.000011
      f-2     :     0.000018
      f+3     :     0.000001
      f-3     :     0.000001

 14 F s       :     3.929387  s :     3.929387
      pz      :     1.703023  p :     5.218900
      px      :     1.898149
      py      :     1.617727
      dz2     :     0.002733  d :     0.016714
      dxz     :     0.001665
      dyz     :     0.006576
      dx2y2   :     0.003140
      dxy     :     0.002600
      f0      :     0.000078  f :     0.000690
      f+1     :     0.000014
      f-1     :     0.000184
      f+2     :     0.000188
      f-2     :     0.000106
      f+3     :     0.000060
      f-3     :     0.000061

 15 F s       :     3.929328  s :     3.929328
      pz      :     1.495917  p :     5.219686
      px      :     1.901732
      py      :     1.822037
      dz2     :     0.006860  d :     0.016684
      dxz     :     0.003376
      dyz     :     0.004996
      dx2y2   :     0.000635
      dxy     :     0.000817
      f0      :     0.000227  f :     0.000689
      f+1     :     0.000109
      f-1     :     0.000233
      f+2     :     0.000050
      f-2     :     0.000060
      f+3     :     0.000005
      f-3     :     0.000004

 16 F s       :     3.930540  s :     3.930540
      pz      :     1.589516  p :     5.220972
      px      :     1.898971
      py      :     1.732485
      dz2     :     0.004563  d :     0.016696
      dxz     :     0.002661
      dyz     :     0.006313
      dx2y2   :     0.001573
      dxy     :     0.001587
      f0      :     0.000118  f :     0.000690
      f+1     :     0.000056
      f-1     :     0.000252
      f+2     :     0.000123
      f-2     :     0.000102
      f+3     :     0.000022
      f-3     :     0.000018

 17 F s       :     3.930662  s :     3.930662
      pz      :     1.600858  p :     5.221816
      px      :     1.899533
      py      :     1.721425
      dz2     :     0.004308  d :     0.016698
      dxz     :     0.002575
      dyz     :     0.006435
      dx2y2   :     0.001696
      dxy     :     0.001684
      f0      :     0.000110  f :     0.000691
      f+1     :     0.000050
      f-1     :     0.000249
      f+2     :     0.000132
      f-2     :     0.000105
      f+3     :     0.000024
      f-3     :     0.000021

[...]
      px      :     0.000090
      py      :    -0.000102
      dz2     :     0.000004  d :     0.000215
      dxz     :    -0.000002
      dyz     :     0.000019
      dx2y2   :     0.000133
      dxy     :     0.000061
      f0      :     0.000000  f :     0.000014
      f+1     :     0.000001
      f-1     :     0.000001
      f+2     :     0.000003
      f-2     :     0.000004
      f+3     :     0.000003
      f-3     :     0.000002

 17 F s       :     0.000149  s :     0.000149
      pz      :    -0.000285  p :     0.000472
      px      :    -0.000050
      py      :     0.000808
      dz2     :     0.000017  d :     0.000204
      dxz     :     0.000045
      dyz     :     0.000036
      dx2y2   :     0.000065
      dxy     :     0.000041
      f0      :     0.000001  f :     0.000012
      f+1     :     0.000005
      f-1     :     0.000001
      f+2     :     0.000002
      f-2     :     0.000003
      f+3     :     0.000001
      f-3     :     0.000000

 18 F s       :     0.001273  s :     0.001273
      pz      :     0.007957  p :     0.015492
      px      :     0.003789
      py      :     0.003745
      dz2     :    -0.000067  d :    -0.000135
      dxz     :    -0.000064
      dyz     :     0.000066
      dx2y2   :    -0.000010
      dxy     :    -0.000061
      f0      :    -0.000002  f :    -0.000006
      f+1     :    -0.000001
      f-1     :     0.000002
      f+2     :    -0.000001
      f-2     :    -0.000003
      f+3     :    -0.000001
      f-3     :     0.000000

 19 F s       :     0.000633  s :     0.000633
      pz      :     0.006495  p :     0.006229
      px      :     0.000446
      py      :    -0.000712
      dz2     :    -0.000046  d :    -0.000261
      dxz     :    -0.000095
      dyz     :    -0.000008
      dx2y2   :    -0.000019
      dxy     :    -0.000092
      f0      :    -0.000003  f :    -0.000013
      f+1     :    -0.000001
      f-1     :     0.000002
      f+2     :    -0.000003
      f-2     :    -0.000006
      f+3     :    -0.000002
      f-3     :     0.000000

 20 F s       :     0.003214  s :     0.003214
      pz      :    -0.000130  p :     0.096150
      px      :     0.022955
      py      :     0.073325
      dz2     :     0.001832  d :     0.010842
      dxz     :     0.002289
      dyz     :     0.005049
      dx2y2   :     0.001624
      dxy     :     0.000048
      f0      :     0.000115  f :     0.000586
      f+1     :     0.000139
      f-1     :     0.000136
      f+2     :     0.000182
      f-2     :    -0.000001
      f+3     :     0.000006
      f-3     :     0.000009

 21 F s       :     0.001724  s :     0.001724
      pz      :     0.010635  p :     0.028945
      px      :     0.016933
      py      :     0.001377
      dz2     :    -0.000008  d :     0.000216
      dxz     :     0.000169
      dyz     :     0.000015
      dx2y2   :     0.000014
      dxy     :     0.000026
      f0      :     0.000004  f :     0.000010
      f+1     :    -0.000000
      f-1     :    -0.000002
      f+2     :     0.000000
      f-2     :     0.000004
      f+3     :    -0.000004
      f-3     :     0.000007

 22 F s       :     0.000061  s :     0.000061
      pz      :    -0.000579  p :     0.005940
      px      :     0.006517
      py      :     0.000001
      dz2     :    -0.000031  d :    -0.000130
      dxz     :    -0.000028
      dyz     :    -0.000057
      dx2y2   :     0.000058
      dxy     :    -0.000071
      f0      :    -0.000001  f :    -0.000008
      f+1     :    -0.000000
      f-1     :    -0.000001
      f+2     :    -0.000001
      f-2     :    -0.000003
      f+3     :    -0.000000
      f-3     :    -0.000002

 23 F s       :     0.000504  s :     0.000504
      pz      :     0.007392  p :     0.010999
      px      :     0.001691
      py      :     0.001915
      dz2     :    -0.000100  d :    -0.000102
      dxz     :    -0.000024
      dyz     :     0.000035
      dx2y2   :    -0.000009
      dxy     :    -0.000005
      f0      :    -0.000005  f :    -0.000009
      f+1     :    -0.000002
      f-1     :     0.000000
      f+2     :    -0.000002
      f-2     :    -0.000001
      f+3     :    -0.000000
      f-3     :    -0.000000

 24 H s       :     0.000012  s :     0.000012
      pz      :     0.000002  p :     0.000001
      px      :    -0.000001
      py      :    -0.000000



                      *****************************
                      * MAYER POPULATION ANALYSIS *
                      *****************************

  NA   - Mulliken gross atomic population
  ZA   - Total nuclear charge
  QA   - Mulliken gross atomic charge
  VA   - Mayer's total valence
  BVA  - Mayer's bonded valence
  FA   - Mayer's free valence

  ATOM       NA         ZA         QA         VA         BVA        FA
  0 C      5.7183     6.0000     0.2817     4.3363     4.3363     0.0000
  1 O      8.3650     8.0000    -0.3650     2.1751     2.1751     0.0000
  2 O      8.3268     8.0000    -0.3268     2.1844     2.1844     0.0000
  3 C      5.5874     6.0000     0.4126     4.1214     4.1214     0.0000
  4 C      5.7121     6.0000     0.2879     4.1886     4.1886     0.0000
  5 C      5.6823     6.0000     0.3177     4.1899     4.1899     0.0000
  6 C      5.6937     6.0000     0.3063     4.1904     4.1894     0.0010
  7 C      5.6115     6.0000     0.3885     4.2049     4.2021     0.0028
  8 C      5.8609     6.0000     0.1391     3.8988     3.2923     0.6065
  9 C      5.5101     6.0000     0.4899     4.4711     4.4686     0.0025
 10 F      9.1737     9.0000    -0.1737     1.1402     1.1402     0.0000
 11 F      9.1702     9.0000    -0.1702     1.1460     1.1460     0.0000
 12 F      9.1661     9.0000    -0.1661     1.1593     1.1593     0.0000
 13 F      9.1688     9.0000    -0.1688     1.1532     1.1532     0.0000
 14 F      9.1644     9.0000    -0.1644     1.1574     1.1574     0.0000
 15 F      9.1640     9.0000    -0.1640     1.1577     1.1577     0.0000
 16 F      9.1680     9.0000    -0.1680     1.1533     1.1533     0.0000
 17 F      9.1697     9.0000    -0.1697     1.1556     1.1556     0.0000
 18 F      9.1698     9.0000    -0.1698     1.1436     1.1432     0.0003
 19 F      9.1687     9.0000    -0.1687     1.1432     1.1431     0.0001
 20 F      9.1421     9.0000    -0.1421     1.1974     1.1861     0.0112
 21 F      9.1692     9.0000    -0.1692     1.1330     1.1321     0.0010
 22 F      9.1620     9.0000    -0.1620     1.1497     1.1497     0.0000
 23 F      9.1649     9.0000    -0.1649     1.1407     1.1406     0.0002
 24 H      0.6105     1.0000     0.3895     0.8740     0.8740     0.0000

  Mayer bond orders larger than 0.100000
B(  0-C ,  1-O ) :   1.2959 B(  0-C ,  2-O ) :   2.0414 B(  0-C ,  3-C ) :   0.8820 
B(  1-O , 24-H ) :   0.8168 B(  3-C ,  4-C ) :   0.9487 B(  3-C , 10-F ) :   1.0822 
B(  3-C , 11-F ) :   1.0997 B(  4-C ,  5-C ) :   0.9269 B(  4-C , 12-F ) :   1.0829 
B(  4-C , 13-F ) :   1.0755 B(  5-C ,  6-C ) :   0.9268 B(  5-C , 14-F ) :   1.0825 
B(  5-C , 15-F ) :   1.0840 B(  6-C ,  7-C ) :   0.9365 B(  6-C , 16-F ) :   1.0774 
B(  6-C , 17-F ) :   1.0763 B(  7-C ,  8-C ) :   0.9842 B(  7-C , 18-F ) :   1.0678 
B(  7-C , 19-F ) :   1.0845 B(  8-C ,  9-C ) :   1.0451 B(  8-C , 20-F ) :   1.1227 
B(  9-C , 21-F ) :   1.1188 B(  9-C , 22-F ) :   1.1284 B(  9-C , 23-F ) :   1.1198 


-------
TIMINGS
-------

Total SCF time: 0 days 0 hours 0 min 48 sec 

Total time                  ....      48.558 sec
Sum of individual times     ....      47.951 sec  ( 98.8%)

SCF preparation             ....       1.452 sec  (  3.0%)
Fock matrix formation       ....      38.964 sec  ( 80.2%)
  Startup                   ....       0.179 sec  (  0.5% of F)
  Split-RI-J                ....       2.790 sec  (  7.2% of F)
  Chain of spheres X        ....      24.178 sec  ( 62.1% of F)
  XC integration            ....       9.119 sec  ( 23.4% of F)
    Basis function eval.    ....       0.583 sec  (  6.4% of XC)
    Density eval.           ....       2.651 sec  ( 29.1% of XC)
    XC-Functional eval.     ....       0.197 sec  (  2.2% of XC)
    XC-Potential eval.      ....       2.613 sec  ( 28.7% of XC)
  CPCM terms                ....       2.227 sec  (  5.7% of F)
Diagonalization             ....       0.000 sec  (  0.0%)
Density matrix formation    ....       0.581 sec  (  1.2%)
Total Energy calculation    ....       0.353 sec  (  0.7%)
Population analysis         ....       0.536 sec  (  1.1%)
Orbital Transformation      ....       1.113 sec  (  2.3%)
Orbital Orthonormalization  ....       0.000 sec  (  0.0%)
DIIS solution               ....       3.204 sec  (  6.6%)
SOSCF solution              ....       1.748 sec  (  3.6%)
Finished LeanSCF after  49.0 sec

Maximum memory used throughout the entire LEANSCF-calculation: 109.3 MB


-------------------------------------------------------------------------------
                          DFT DISPERSION CORRECTION                            
                                                                               
                              DFTD3 V3.1  Rev 1                                
                          USING Becke-Johnson damping                          
-------------------------------------------------------------------------------
The R2SCANh functional is recognized
Active option DFTDOPT                   ...         4   

molecular C6(AA) [au] = 6512.339974 


            DFT-D V3
 parameters
 s6 scaling factor         :     1.0000 
 a1 scaling factor         :     0.4709 
 s8 scaling factor         :     1.1236 
 a2 scaling factor         :     5.9157 
 ad hoc parameters k1-k3   :    16.0000     1.3333    -4.0000 

 Edisp/kcal,au: -5.203872121187  -0.008292897209 
 E6   /kcal   :  -3.798694656 
 E8   /kcal   :  -1.405177465 
 % E8         :  27.002536424 

-------------------------   ----------------
Dispersion correction           -0.008292897
-------------------------   ----------------


-------------------------   --------------------
FINAL SINGLE POINT ENERGY     -1853.567167851580
-------------------------   --------------------

                                *** OPTIMIZATION RUN DONE ***



           ************************************************************
           *        Program running with 20 parallel MPI-processes    *
           *              working on a common directory               *
           ************************************************************

------------------------------------------------------------------------------
                              ORCA PROPERTY CALCULATIONS
------------------------------------------------------------------------------

GBWName                                 ... rf_mecn_opt_r2s_C7_P_B.gbw
Number of atoms                         ...     25
Number of basis functions               ...    750
Max core memory                         ...   8000 MB

Electric properties:
Dipole moment                           ... YES
Quadrupole moment                       ...  NO
Static polarizability (Dipole/Dipole)   ...  NO
Static polarizability (Dipole/Quad.)    ...  NO
Static polarizability (Quad./Quad.)     ...  NO
Static polarizability (Velocity)        ...  NO

Atomic electric properties:
Dipole moment                           ...  NO
Quadrupole moment                       ...  NO
Static polarizability                   ...  NO

Choice of electric origin               ... Center of mass
Position of electric origin             ...     0.204438    -0.293570     0.070587

General magnetic properties:
Magnetizability                         ...  NO

EPR properties:
g-Tensor (aka g-matrix)                 ...  NO
Zero-Field splitting spin-orbit         ...  NO
Zero-field splitting spin-spin          ...  NO
Hyperfine couplings                     ...  NO (   0 nuclei)
Quadrupole couplings                    ...  NO (   0 nuclei)
Contact density                         ...  NO (   0 nuclei)

NMR properties:
Chemical shifts                         ...  NO (   0 nuclei)
Spin-rotation constants                 ...  NO (   0 nuclei)
Spin-spin couplings                     ...  NO (   0 nuclei,    0 pairs)

Choice of magnetic origin               ... GIAO
Position of magnetic origin             ...     0.000000     0.000000     0.000000

Properties with geometric perturbations:
SCF Hessian                             ...  NO
IR spectrum                             ...  NO
VCD spectrum                            ...  NO
X-ray spectroscopy properties:
SCF XES/XAS/RIXS spectra                ...  NO


-------------
DIPOLE MOMENT
-------------

Method             : SCF
Type of density    : Electron Density
Multiplicity       :   2
Irrep              :   0
Energy             : -1853.5588749543710492 Eh
Relativity type    : 
Basis              : AO
                                X                 Y                 Z
Electronic contribution:    -13.380072686      -0.775206715       2.506706401
Nuclear contribution   :     14.006828424       0.426421806      -3.163801826
                        -----------------------------------------
Total Dipole Moment    :      0.626755737      -0.348784908      -0.657095425
                        -----------------------------------------
Magnitude (a.u.)       :      0.972752828
Magnitude (Debye)      :      2.472541193



--------------------
Rotational spectrum 
--------------------
 
Rotational constants in cm-1:             0.020851             0.004093             0.004024 
Rotational constants in MHz :           625.108599           122.702899           120.630771 

Dipole components along the rotational axes: 
x,y,z [a.u.] :    -0.628930    -0.436844    -0.599886 
x,y,z [Debye]:    -1.598612    -1.110368    -1.524789 

 

Dipole moment calculation done in   0.1 sec 

Maximum memory used throughout the entire PROP-calculation: 56.7 MB

--------------------------------
SUGGESTED CITATIONS FOR THIS RUN
--------------------------------

Below you find a list of papers that are relevant to this ORCA run
We neither can nor want to force you to cite these papers, but we appreciate if you do
You receive ORCA, which is the product of decades of hard work by many enthusiastic individuals, for free
The only thing we kindly ask in return is that you cite our papers,
We deeply appreciate it, if you show your appreciation for ORCA by not just citing the generic ORCA reference.

Please note that relegating all ORCA citations to the supporting information does *not* help us.
SI sections are not indexed - citations you put there will not count into any citation statistics
But we need these citations in order to attract the funding resources that allow us to do what we are doing

Therefore, if you are a happy ORCA user, please consider citing a few of the papers listed below in the main body of your paper

In addition to the list printed below, the program has created the file rf_mecn_opt_r2s_C7_P_B.bibtex that contains the list in bibtex format
You can import this file easily into all common literature databanks and citation aid programs


List of essential papers. We consider these as the minimum necessary citations

  1. Neese,F.
     Software update: the ORCA program system, version 5.0
     WIRES Comput. Molec. Sci., 2022 12(1)e1606
     doi.org/10.1002/wcms.1606

List of papers to cite with high priority. The work reported in these papers was absolutely
necessary for this run to complete.
Our perspective: the developers of density functionals and basis sets usually get cited in chemistry papers
Good! But without the algorithms to do something with them, the functionals or basis sets would not do anything.
Hence, in our opinion, the algorithm design and method developments papers are equally worthy of getting cited

  1. Neese,F.
     An improvement of the resolution of the identity approximation for the formation of the Coulomb matrix
     J. Comp. Chem., 2003 24(14)1740-1747
     doi.org/10.1002/jcc.10318
  2. Neese,F.; Wennmohs,F.; Hansen,A.; Becker,U.
     Efficient, approximate and parallel Hartree-Fock and hybrid DFT calculations. A 'chain-of-spheres' algorithm for the Hartree-Fock exchange
     Chem. Phys., 2009 356(1-3)98-109
     doi.org/10.1016/j.chemphys.2008.10.036
  3. Garcia-Rates,M.; Neese,F.
     Effect of the Solute Cavity on the Solvation Energy and its Derivatives within the Framework of the Gaussian Charge Scheme
     J. Comput. Chem., 2020 41 922-939
     doi.org/10.1002/jcc.26139
  4. Helmich-Paris,B.; de Souza,B.; Neese,F.; Izsák,R.
     An improved chain of spheres for exchange algorithm
     J. Chem. Phys., 2021 155 104109
     doi.org/doi: 10.1063/5.0058766.
  5. Neese,F.
     The SHARK Integral Generation and Digestion System
     J. Comp. Chem., 2022  1-16
     doi.org/10.1002/jcc.26942
  6. Lehtola,S.; Steigemann,C.; Oliveira,M.; Marques,M.
     Recent developments in Libxc - A comprehensive library of functionals for density functional theory
     Software X, 2018 7 
     doi.org/10.1016/j.softx.2017.11.002
  7. Grimme,S.; Antony,J.; Ehrlich,S.; Krieg,H.
     A consistent and accurate ab initio parametrization of density functional dispersion correction (DFT-D) for the 94 elements H-Pu
     J. Chem. Phys., 2010 132 154104
     doi.org/10.1063/1.3382344
  8. Grimme,S.; Ehrlich,S.; Goerigk,L.
     Effect of the damping function in dispersion corrected density functional theory
     J. Comput. Chem., 2011 32(7)1456-1465
     doi.org/10.1002/jcc.21759
  9. Bursch,M.; Neugebauer,H.; Ehlert,S.; Grimme,S.
     Dispersion corrected r2SCAN based global hybrid functionals: r2SCANh, r2SCAN0, and r2SCAN50
     J. Phys. Chem., 2022 156(13)134105
     doi.org/10.1063/5.0086040

List of suggested additional citations. These are papers that are important in the 'surrounding' of 
of this run, or papers that preceded the highly important papers. If you like your results we are grateful for a citation.

  1. Izsak,R.; Neese,F.
     An overlap fitted chain of spheres exchange method
     J. Chem. Phys., 2011 135 144105
     doi.org/10.1063/1.3646921
  2. Izsak,R.; Hansen,A.; Neese,F.
     The resolution of identity and chain of spheres approximations for the LPNO-CCSD singles Fock term
     Molec. Phys., 2012 110 2413-2417
     doi.org/10.1080/00268976.2012.687466
  3. Neese,F.
     The ORCA program system
     WIRES Comput. Molec. Sci., 2012 2(1)73-78
     doi.org/10.1002/wcms.81
  4. Izsak,R.; Neese,F.; Klopper,W.
     Robust fitting techniques in the chain of spheres approximation to the Fock exchange: The role of the complementary space
     J. Chem. Phys., 2013 139 
     doi.org/10.1063/1.4819264
  5. Neese,F.
     Software update: the ORCA program system, version 4.0
     WIRES Comput. Molec. Sci., 2018 8(1)1-6
     doi.org/10.1002/wcms.1327
  6. Neese,F.; Wennmohs,F.; Becker,U.; Riplinger,C.
     The ORCA quantum chemistry program package
     J. Chem. Phys., 2020 152 Art. No. L224108
     doi.org/10.1063/5.0004608
  7. Wittmann,L.; Neugebauer,H.; Grimme,S.; Bursch,M.
     Dispersion-corrected r2SCAN based double-hybrid functionals
     J. Chem. Phys., 2023 159(22)224103
     doi.org/10.1063/5.0174988

List of optional additional citations

  1. Neese,F.
     Approximate second-order SCF convergence for spin unrestricted wavefunctions
     Chem. Phys. Lett., 2000 325(1-3)93-98
     doi.org/10.1016/s0009-2614(00)00662-x

Timings for individual modules:

Sum of individual times          ...     3797.687 sec (=  63.295 min)
Startup calculation              ...      178.574 sec (=   2.976 min)   4.7 %
SCF iterations                   ...     2731.104 sec (=  45.518 min)  71.9 %
Property calculations            ...        1.182 sec (=   0.020 min)   0.0 %
SCF Gradient evaluation          ...      885.902 sec (=  14.765 min)  23.3 %
Geometry relaxation              ...        0.925 sec (=   0.015 min)   0.0 %
                             ****ORCA TERMINATED NORMALLY****
TOTAL RUN TIME: 0 days 1 hours 3 minutes 47 seconds 631 msec
