
                                 *****************
                                 * O   R   C   A *
                                 *****************

                                            #,                                       
                                            ###                                      
                                            ####                                     
                                            #####                                    
                                            ######                                   
                                           ########,                                 
                                     ,,################,,,,,                         
                               ,,#################################,,                 
                          ,,##########################################,,             
                       ,#########################################, ''#####,          
                    ,#############################################,,   '####,        
                  ,##################################################,,,,####,       
                ,###########''''           ''''###############################       
              ,#####''   ,,,,##########,,,,          '''####'''          '####       
            ,##' ,,,,###########################,,,                        '##       
           ' ,,###''''                  '''############,,,                           
         ,,##''                                '''############,,,,        ,,,,,,###''
      ,#''                                            '''#######################'''  
     '                                                          ''''####''''         
             ,#######,   #######,   ,#######,      ##                                
            ,#'     '#,  ##    ##  ,#'     '#,    #''#        ######   ,####,        
            ##       ##  ##   ,#'  ##            #'  '#       #        #'  '#        
            ##       ##  #######   ##           ,######,      #####,   #    #        
            '#,     ,#'  ##    ##  '#,     ,#' ,#      #,         ##   #,  ,#        
             '#######'   ##     ##  '#######'  #'      '#     #####' # '####'        



                  #######################################################
                  #                        -***-                        #
                  #          Department of theory and spectroscopy      #
                  #    Directorship and core code : Frank Neese         #
                  #        Max Planck Institute fuer Kohlenforschung    #
                  #                Kaiser Wilhelm Platz 1               #
                  #                 D-45470 Muelheim/Ruhr               #
                  #                      Germany                        #
                  #                                                     #
                  #                  All rights reserved                #
                  #                        -***-                        #
                  #######################################################


                         Program Version 5.0.3 -  RELEASE  -


 With contributions from (in alphabetic order):
   Daniel Aravena         : Magnetic Suceptibility
   Michael Atanasov       : Ab Initio Ligand Field Theory (pilot matlab implementation)
   Alexander A. Auer      : GIAO ZORA, VPT2 properties, NMR spectrum
   Ute Becker             : Parallelization
   Giovanni Bistoni       : ED, misc. LED, open-shell LED, HFLD
   Martin Brehm           : Molecular dynamics
   Dmytro Bykov           : SCF Hessian
   Vijay G. Chilkuri      : MRCI spin determinant printing, contributions to CSF-ICE
   Dipayan Datta          : RHF DLPNO-CCSD density
   Achintya Kumar Dutta   : EOM-CC, STEOM-CC
   Dmitry Ganyushin       : Spin-Orbit,Spin-Spin,Magnetic field MRCI
   Miquel Garcia          : C-PCM and meta-GGA Hessian, CC/C-PCM, Gaussian charge scheme
   Yang Guo               : DLPNO-NEVPT2, F12-NEVPT2, CIM, IAO-localization
   Andreas Hansen         : Spin unrestricted coupled pair/coupled cluster methods
   Benjamin Helmich-Paris : MC-RPA, TRAH-SCF, COSX integrals
   Lee Huntington         : MR-EOM, pCC
   Robert Izsak           : Overlap fitted RIJCOSX, COSX-SCS-MP3, EOM
   Marcus Kettner         : VPT2
   Christian Kollmar      : KDIIS, OOCD, Brueckner-CCSD(T), CCSD density, CASPT2, CASPT2-K
   Simone Kossmann        : Meta GGA functionals, TD-DFT gradient, OOMP2, MP2 Hessian
   Martin Krupicka        : Initial AUTO-CI
   Lucas Lang             : DCDCAS
   Marvin Lechner         : AUTO-CI (C++ implementation), FIC-MRCC
   Dagmar Lenk            : GEPOL surface, SMD
   Dimitrios Liakos       : Extrapolation schemes; Compound Job, initial MDCI parallelization
   Dimitrios Manganas     : Further ROCIS development; embedding schemes
   Dimitrios Pantazis     : SARC Basis sets
   Anastasios Papadopoulos: AUTO-CI, single reference methods and gradients
   Taras Petrenko         : DFT Hessian,TD-DFT gradient, ASA, ECA, R-Raman, ABS, FL, XAS/XES, NRVS
   Peter Pinski           : DLPNO-MP2, DLPNO-MP2 Gradient
   Christoph Reimann      : Effective Core Potentials
   Marius Retegan         : Local ZFS, SOC
   Christoph Riplinger    : Optimizer, TS searches, QM/MM, DLPNO-CCSD(T), (RO)-DLPNO pert. Triples
   Tobias Risthaus        : Range-separated hybrids, TD-DFT gradient, RPA, STAB
   Michael Roemelt        : Original ROCIS implementation
   Masaaki Saitow         : Open-shell DLPNO-CCSD energy and density
   Barbara Sandhoefer     : DKH picture change effects
   Avijit Sen             : IP-ROCIS
   Kantharuban Sivalingam : CASSCF convergence, NEVPT2, FIC-MRCI
   Bernardo de Souza      : ESD, SOC TD-DFT
   Georgi Stoychev        : AutoAux, RI-MP2 NMR, DLPNO-MP2 response
   Willem Van den Heuvel  : Paramagnetic NMR
   Boris Wezisla          : Elementary symmetry handling
   Frank Wennmohs         : Technical directorship


 We gratefully acknowledge several colleagues who have allowed us to
 interface, adapt or use parts of their codes:
   Stefan Grimme, W. Hujo, H. Kruse, P. Pracht,  : VdW corrections, initial TS optimization,
                  C. Bannwarth, S. Ehlert          DFT functionals, gCP, sTDA/sTD-DF
   Ed Valeev, F. Pavosevic, A. Kumar             : LibInt (2-el integral package), F12 methods
   Garnet Chan, S. Sharma, J. Yang, R. Olivares  : DMRG
   Ulf Ekstrom                                   : XCFun DFT Library
   Mihaly Kallay                                 : mrcc  (arbitrary order and MRCC methods)
   Jiri Pittner, Ondrej Demel                    : Mk-CCSD
   Frank Weinhold                                : gennbo (NPA and NBO analysis)
   Christopher J. Cramer and Donald G. Truhlar   : smd solvation model
   Lars Goerigk                                  : TD-DFT with DH, B97 family of functionals
   V. Asgeirsson, H. Jonsson                     : NEB implementation
   FAccTs GmbH                                   : IRC, NEB, NEB-TS, DLPNO-Multilevel, CI-OPT
                                                   MM, QMMM, 2- and 3-layer-ONIOM, Crystal-QMMM,
                                                   LR-CPCM, SF, NACMEs, symmetry and pop. for TD-DFT,
                                                   nearIR, NL-DFT gradient (VV10), updates on ESD,
                                                   ML-optimized integration grids
   S Lehtola, MJT Oliveira, MAL Marques          : LibXC Library
   Liviu Ungur et al                             : ANISO software


 Your calculation uses the libint2 library for the computation of 2-el integrals
 For citations please refer to: http://libint.valeyev.net

 Your ORCA version has been built with support for libXC version: 5.1.0
 For citations please refer to: https://tddft.org/programs/libxc/

 This ORCA versions uses:
   CBLAS   interface :  Fast vector & matrix operations
   LAPACKE interface :  Fast linear algebra routines
   SCALAPACK package :  Parallel linear algebra routines
   Shared memory     :  Shared parallel matrices
   BLAS/LAPACK       :  OpenBLAS 0.3.15  USE64BITINT DYNAMIC_ARCH NO_AFFINITY SkylakeX SINGLE_THREADED
        Core in use  :  SkylakeX
   Copyright (c) 2011-2014, The OpenBLAS Project


Your calculation utilizes the atom-pairwise dispersion correction
with the Becke-Johnson damping scheme (D3BJ)
Cite in your paper:
S.Grimme, S.Ehrlich, L.Goerigk, J Comput Chem, (2011), 32, 1456–1465 
S.Grimme, J.Antony, S.Ehrlich and H.Krieg, J.Chem.Phys., 132, (2010), 154104 
   

Your calculation utilizes the SMD solvation module
Please cite in your paper:
A.V. Marenich, C.J. Cramer, D.G. Truhlar J. Phys. Chem. B, 113, (2009), 6378 

================================================================================

----- Orbital basis set information -----
Your calculation utilizes the basis: def2-TZVP
   F. Weigend and R. Ahlrichs, Phys. Chem. Chem. Phys. 7, 3297 (2005).

----- AuxJ basis set information -----
Your calculation utilizes the auxiliary basis: def2/J
   F. Weigend, Phys. Chem. Chem. Phys. 8, 1057 (2006).

================================================================================
                                        WARNINGS
                       Please study these warnings very carefully!
================================================================================


WARNING: your system is open-shell and RHF/RKS was chosen
  ===> : WILL SWITCH to UHF/UKS


WARNING: Geometry Optimization
  ===> : Switching off AutoStart
         For restart on a previous wavefunction, please use MOREAD

INFO   : the flag for use of the SHARK integral package has been found!

================================================================================
                                       INPUT FILE
================================================================================
NAME = rf_mecn_opt_TPS_C2_D_B.inp
|  1> !TPSSh def2-TZVP opt d3 TightSCF SlowConv defgrid2
|  2>  
|  3> %pal
|  4> nprocs 20
|  5> end
|  6>  
|  7> %scf
|  8> MaxIter 1500
|  9> end
| 10>  
| 11> %maxcore 8000
| 12>  
| 13> !CPCM
| 14> %cpcm smd true
| 15> SMDsolvent "ACETONITRILE"
| 16> end
| 17>  
| 18> * xyz -1 2
| 19> 6        4.790427000     -0.033865800     -0.529943200
| 20> 8        5.449345000     -1.206924000     -0.894594600
| 21> 8        4.978223000      1.323071000     -0.737377200
| 22> 6        3.506687600     -0.338741600      0.376153800
| 23> 6        2.222300000      0.400524800     -0.110681600
| 24> 6        0.900506800     -0.386389800      0.175703000
| 25> 6       -0.395261200      0.487294000      0.065549000
| 26> 6       -1.705693600     -0.364773800     -0.068373600
| 27> 6       -3.005136200      0.445344800      0.258164000
| 28> 6       -4.319880200     -0.214526000     -0.270540800
| 29> 9        3.741061800      0.055285800      1.689948800
| 30> 9        2.125696800      1.616867800      0.483236600
| 31> 9        2.314152400      0.589704000     -1.455769200
| 32> 9        0.794028800     -1.413561400     -0.700839000
| 33> 9        0.958350600     -0.884509000      1.435093400
| 34> 9       -0.498373400      1.260265600      1.173340200
| 35> 9       -0.299075000      1.289512600     -1.020910800
| 36> 9       -1.641790400     -1.418189000      0.779523800
| 37> 9       -1.792381400     -0.831391600     -1.336863600
| 38> 9       -2.918792200      1.679227200     -0.295171200
| 39> 9       -3.119771000      0.573779800      1.598579800
| 40> 9       -4.383115600     -1.504377600      0.089127600
| 41> 9       -5.365669800      0.430528600      0.260394200
| 42> 9       -4.396020400     -0.128550600     -1.602941800
| 43> *
| 44> 
| 45>                          ****END OF INPUT****
================================================================================

                       *****************************
                       * Geometry Optimization Run *
                       *****************************

Geometry optimization settings:
Update method            Update   .... BFGS
Choice of coordinates    CoordSys .... Z-matrix Internals
Initial Hessian          InHess   .... Almoef's Model

Convergence Tolerances:
Energy Change            TolE     ....  5.0000e-06 Eh
Max. Gradient            TolMAXG  ....  3.0000e-04 Eh/bohr
RMS Gradient             TolRMSG  ....  1.0000e-04 Eh/bohr
Max. Displacement        TolMAXD  ....  4.0000e-03 bohr
RMS Displacement         TolRMSD  ....  2.0000e-03 bohr
Strict Convergence                ....  False
------------------------------------------------------------------------------
                        ORCA OPTIMIZATION COORDINATE SETUP
------------------------------------------------------------------------------

The optimization will be done in new redundant internal coordinates
Making redundant internal coordinates   ...  (new redundants) done
Evaluating the initial hessian          ...  (Almloef) done
Evaluating the coordinates              ...  done
Calculating the B-matrix                .... done
Calculating the G-matrix                .... done
Diagonalizing the G-matrix              .... done
Small eigenvalue found = 5.964e-03
Small eigenvalue found = 1.608e-02
The first mode is                       ....   54
The number of degrees of freedom        ....   66

    -----------------------------------------------------------------
                    Redundant Internal Coordinates


    -----------------------------------------------------------------
         Definition                    Initial Value    Approx d2E/dq
    -----------------------------------------------------------------
      1. B(O   1,C   0)                  1.3940         0.551454   
      2. B(O   2,C   0)                  1.3855         0.568952   
      3. B(C   3,C   0)                  1.6006         0.288221   
      4. B(C   4,C   3)                  1.5599         0.334759   
      5. B(C   5,C   4)                  1.5647         0.328824   
      6. B(C   6,C   5)                  1.5667         0.326486   
      7. B(C   7,C   6)                  1.5688         0.323927   
      8. B(C   8,C   7)                  1.5657         0.327637   
      9. B(C   9,C   8)                  1.5632         0.330714   
     10. B(F  10,C   3)                  1.3915         0.517117   
     11. B(F  11,C   4)                  1.3570         0.586881   
     12. B(F  12,C   4)                  1.3614         0.577499   
     13. B(F  13,C   5)                  1.3545         0.592326   
     14. B(F  14,C   5)                  1.3556         0.590092   
     15. B(F  15,C   6)                  1.3547         0.591865   
     16. B(F  16,C   6)                  1.3540         0.593567   
     17. B(F  17,C   7)                  1.3538         0.593973   
     18. B(F  18,C   7)                  1.3544         0.592672   
     19. B(F  19,C   8)                  1.3550         0.591238   
     20. B(F  20,C   8)                  1.3514         0.599114   
     21. B(F  21,C   9)                  1.3406         0.623533   
     22. B(F  22,C   9)                  1.3385         0.628179   
     23. B(F  23,C   9)                  1.3373         0.630929   
     24. A(O   2,C   0,C   3)          112.3347         0.371210   
     25. A(O   1,C   0,O   2)          136.1318         0.413163   
     26. A(O   1,C   0,C   3)          111.5249         0.369222   
     27. A(C   4,C   3,F  10)          107.4072         0.373095   
     28. A(C   0,C   3,C   4)          113.1687         0.341363   
     29. A(C   0,C   3,F  10)          110.2099         0.363632   
     30. A(C   5,C   4,F  11)          108.0911         0.380169   
     31. A(C   3,C   4,C   5)          113.5839         0.349005   
     32. A(F  11,C   4,F  12)          108.2194         0.415201   
     33. A(C   5,C   4,F  12)          107.9208         0.379109   
     34. A(C   3,C   4,F  11)          110.2926         0.381351   
     35. A(C   3,C   4,F  12)          108.5818         0.380286   
     36. A(C   4,C   5,C   6)          113.9128         0.347536   
     37. A(C   6,C   5,F  14)          107.7906         0.380059   
     38. A(C   4,C   5,F  13)          109.2282         0.380779   
     39. A(C   6,C   5,F  13)          108.2026         0.380308   
     40. A(F  13,C   5,F  14)          109.0206         0.417483   
     41. A(C   4,C   5,F  14)          108.5900         0.380529   
     42. A(C   5,C   6,C   7)          113.2023         0.346660   
     43. A(F  15,C   6,F  16)          108.8752         0.417862   
     44. A(C   7,C   6,F  16)          108.2186         0.379927   
     45. A(C   5,C   6,F  16)          109.1523         0.380446   
     46. A(C   7,C   6,F  15)          108.4284         0.379738   
     47. A(C   5,C   6,F  15)          108.8835         0.380256   
     48. A(C   8,C   7,F  18)          108.6915         0.380579   
     49. A(C   6,C   7,F  18)          108.6955         0.379828   
     50. A(C   8,C   7,F  17)          108.1296         0.380723   
     51. A(C   6,C   7,F  17)          109.2524         0.379972   
     52. A(C   6,C   7,C   8)          113.2298         0.346865   
     53. A(F  17,C   7,F  18)          108.7561         0.418014   
     54. A(F  19,C   8,F  20)          108.8987         0.418476   
     55. A(C   7,C   8,C   9)          114.1471         0.348078   
     56. A(C   9,C   8,F  20)          107.7127         0.381912   
     57. A(C   7,C   8,F  20)          109.0521         0.381293   
     58. A(C   9,C   8,F  19)          107.4499         0.381036   
     59. A(C   7,C   8,F  19)          109.4572         0.380419   
     60. A(F  22,C   9,F  23)          108.6464         0.426961   
     61. A(F  21,C   9,F  23)          109.0552         0.426394   
     62. A(C   8,C   9,F  23)          110.9604         0.385362   
     63. A(F  21,C   9,F  22)          108.6877         0.426061   
     64. A(C   8,C   9,F  22)          108.6349         0.385069   
     65. A(C   8,C   9,F  21)          110.7995         0.384572   
     66. D(F  10,C   3,C   0,O   2)    -70.4768         0.006172   
     67. D(C   4,C   3,C   0,O   1)   -131.0839         0.006172   
     68. D(C   4,C   3,C   0,O   2)     49.8076         0.006172   
     69. D(F  10,C   3,C   0,O   1)    108.6317         0.006172   
     70. D(C   5,C   4,C   3,F  10)    -89.4885         0.008543   
     71. D(C   5,C   4,C   3,C   0)    148.6429         0.008543   
     72. D(F  11,C   4,C   3,C   0)    -89.8453         0.008543   
     73. D(F  12,C   4,C   3,C   0)     28.5784         0.008543   
     74. D(F  11,C   4,C   3,F  10)     32.0233         0.008543   
     75. D(F  12,C   4,C   3,F  10)    150.4470         0.008543   
     76. D(F  13,C   5,C   4,C   3)    -74.9661         0.008811   
     77. D(C   6,C   5,C   4,F  12)    -75.6292         0.008811   
     78. D(C   6,C   5,C   4,C   3)    163.9326         0.008811   
     79. D(F  13,C   5,C   4,F  11)    162.3014         0.008811   
     80. D(F  14,C   5,C   4,F  11)    -78.9166         0.008811   
     81. D(F  14,C   5,C   4,C   3)     43.8158         0.008811   
     82. D(F  13,C   5,C   4,F  12)     45.4721         0.008811   
     83. D(F  14,C   5,C   4,F  12)    164.2540         0.008811   
     84. D(C   6,C   5,C   4,F  11)     41.2001         0.008811   
     85. D(F  16,C   6,C   5,F  14)    162.9527         0.008700   
     86. D(F  15,C   6,C   5,F  14)     44.2190         0.008700   
     87. D(F  16,C   6,C   5,F  13)    -79.2837         0.008700   
     88. D(F  15,C   6,C   5,F  13)    161.9826         0.008700   
     89. D(C   7,C   6,C   5,F  13)     41.3107         0.008700   
     90. D(F  16,C   6,C   5,C   4)     42.3872         0.008700   
     91. D(C   7,C   6,C   5,C   4)    162.9815         0.008700   
     92. D(C   7,C   6,C   5,F  14)    -76.4529         0.008700   
     93. D(F  15,C   6,C   5,C   4)    -76.3465         0.008700   
     94. D(C   8,C   7,C   6,F  16)    -76.5134         0.008578   
     95. D(C   8,C   7,C   6,F  15)     41.4341         0.008578   
     96. D(C   8,C   7,C   6,C   5)    162.3638         0.008578   
     97. D(F  18,C   7,C   6,F  16)     44.3783         0.008578   
     98. D(F  18,C   7,C   6,F  15)    162.3257         0.008578   
     99. D(F  18,C   7,C   6,C   5)    -76.7446         0.008578   
    100. D(F  17,C   7,C   6,F  16)    162.9167         0.008578   
    101. D(F  17,C   7,C   6,F  15)    -79.1358         0.008578   
    102. D(F  17,C   7,C   6,C   5)     41.7939         0.008578   
    103. D(F  20,C   8,C   7,F  18)    162.0243         0.008755   
    104. D(F  20,C   8,C   7,F  17)     44.1231         0.008755   
    105. D(F  20,C   8,C   7,C   6)    -77.0818         0.008755   
    106. D(F  19,C   8,C   7,F  18)    -78.9355         0.008755   
    107. D(F  19,C   8,C   7,F  17)    163.1633         0.008755   
    108. D(F  19,C   8,C   7,C   6)     41.9584         0.008755   
    109. D(C   9,C   8,C   7,F  18)     41.5227         0.008755   
    110. D(C   9,C   8,C   7,F  17)    -76.3785         0.008755   
    111. D(C   9,C   8,C   7,C   6)    162.4166         0.008755   
    112. D(F  23,C   9,C   8,F  19)     50.3013         0.008903   
    113. D(F  23,C   9,C   8,C   7)    -71.2711         0.008903   
    114. D(F  22,C   9,C   8,F  20)     48.1091         0.008903   
    115. D(F  22,C   9,C   8,F  19)    -69.0724         0.008903   
    116. D(F  22,C   9,C   8,C   7)    169.3552         0.008903   
    117. D(F  21,C   9,C   8,F  20)    -71.2185         0.008903   
    118. D(F  21,C   9,C   8,F  19)    171.5999         0.008903   
    119. D(F  23,C   9,C   8,F  20)    167.4828         0.008903   
    120. D(F  21,C   9,C   8,C   7)     50.0276         0.008903   
    -----------------------------------------------------------------

Number of atoms                         .... 24
Number of degrees of freedom            .... 120

         *************************************************************
         *                GEOMETRY OPTIMIZATION CYCLE   1            *
         *************************************************************
---------------------------------
CARTESIAN COORDINATES (ANGSTROEM)
---------------------------------
  C      4.790427   -0.033866   -0.529943
  O      5.449345   -1.206924   -0.894595
  O      4.978223    1.323071   -0.737377
  C      3.506688   -0.338742    0.376154
  C      2.222300    0.400525   -0.110682
  C      0.900507   -0.386390    0.175703
  C     -0.395261    0.487294    0.065549
  C     -1.705694   -0.364774   -0.068374
  C     -3.005136    0.445345    0.258164
  C     -4.319880   -0.214526   -0.270541
  F      3.741062    0.055286    1.689949
  F      2.125697    1.616868    0.483237
  F      2.314152    0.589704   -1.455769
  F      0.794029   -1.413561   -0.700839
  F      0.958351   -0.884509    1.435093
  F     -0.498373    1.260266    1.173340
  F     -0.299075    1.289513   -1.020911
  F     -1.641790   -1.418189    0.779524
  F     -1.792381   -0.831392   -1.336864
  F     -2.918792    1.679227   -0.295171
  F     -3.119771    0.573780    1.598580
  F     -4.383116   -1.504378    0.089128
  F     -5.365670    0.430529    0.260394
  F     -4.396020   -0.128551   -1.602942

----------------------------
CARTESIAN COORDINATES (A.U.)
----------------------------
  NO LB      ZA    FRAG     MASS         X           Y           Z
   0 C     6.0000    0    12.011    9.052595   -0.063997   -1.001448
   1 O     8.0000    0    15.999   10.297770   -2.280756   -1.690539
   2 O     8.0000    0    15.999    9.407478    2.500242   -1.393441
   3 C     6.0000    0    12.011    6.626679   -0.640129    0.710828
   4 C     6.0000    0    12.011    4.199538    0.756882   -0.209158
   5 C     6.0000    0    12.011    1.701711   -0.730171    0.332031
   6 C     6.0000    0    12.011   -0.746935    0.920852    0.123870
   7 C     6.0000    0    12.011   -3.223294   -0.689323   -0.129207
   8 C     6.0000    0    12.011   -5.678884    0.841580    0.487859
   9 C     6.0000    0    12.011   -8.163391   -0.405395   -0.511248
  10 F     9.0000    0    18.998    7.069582    0.104475    3.193540
  11 F     9.0000    0    18.998    4.016985    3.055437    0.913185
  12 F     9.0000    0    18.998    4.373114    1.114379   -2.751005
  13 F     9.0000    0    18.998    1.500497   -2.671244   -1.324394
  14 F     9.0000    0    18.998    1.811020   -1.671480    2.711934
  15 F     9.0000    0    18.998   -0.941789    2.381557    2.217292
  16 F     9.0000    0    18.998   -0.565170    2.436826   -1.929242
  17 F     9.0000    0    18.998   -3.102534   -2.679989    1.473086
  18 F     9.0000    0    18.998   -3.387110   -1.571102   -2.526306
  19 F     9.0000    0    18.998   -5.515718    3.173280   -0.557793
  20 F     9.0000    0    18.998   -5.895513    1.084287    3.020878
  21 F     9.0000    0    18.998   -8.282888   -2.842862    0.168427
  22 F     9.0000    0    18.998  -10.139646    0.813581    0.492074
  23 F     9.0000    0    18.998   -8.307275   -0.242925   -3.029121

--------------------------------
INTERNAL COORDINATES (ANGSTROEM)
--------------------------------
 C      0   0   0     0.000000000000     0.00000000     0.00000000
 O      1   0   0     1.393990356793     0.00000000     0.00000000
 O      1   2   0     1.385486802956   136.13177198     0.00000000
 C      1   2   3     1.600608594862   111.52489317   181.18992567
 C      4   1   2     1.559863783763   113.16872737   228.91614990
 C      5   4   1     1.564732561934   113.58394786   148.64287440
 C      6   5   4     1.566675459667   113.91280616   163.93256239
 C      7   6   5     1.568817348692   113.20226571   162.98152714
 C      8   7   6     1.565717094808   113.22984595   162.36375422
 C      9   8   7     1.563173062643   114.14707705   162.41661495
 F      4   1   2     1.391490625050   110.20991618   108.63170802
 F      5   4   1     1.357041377479   110.29260564   270.15468021
 F      5   4   1     1.361428031433   108.58179722    28.57841973
 F      6   5   4     1.354527570075   109.22822656   285.03385927
 F      6   5   4     1.355556277776   108.59004089    43.81583148
 F      7   6   5     1.354739297058   108.88346185   283.65347401
 F      7   6   5     1.353957667090   109.15230848    42.38718856
 F      8   7   6     1.353771473879   109.25240264    41.79387651
 F      8   7   6     1.354368423305   108.69554158   283.25540020
 F      9   8   7     1.355028009646   109.45719767    41.95842364
 F      9   8   7     1.351425618925   109.05210362   282.91820052
 F     10   9   8     1.340551089588   110.79953142    50.02756898
 F     10   9   8     1.338530275591   108.63493714   169.35523750
 F     10   9   8     1.337341214598   110.96044107   288.72891896

---------------------------
INTERNAL COORDINATES (A.U.)
---------------------------
 C      0   0   0     0.000000000000     0.00000000     0.00000000
 O      1   0   0     2.634260007667     0.00000000     0.00000000
 O      1   2   0     2.618190619750   136.13177198     0.00000000
 C      1   2   3     3.024711891890   111.52489317   181.18992567
 C      4   1   2     2.947715357535   113.16872737   228.91614990
 C      5   4   1     2.956916014884   113.58394786   148.64287440
 C      6   5   4     2.960587559506   113.91280616   163.93256239
 C      7   6   5     2.964635143173   113.20226571   162.98152714
 C      8   7   6     2.958776512386   113.22984595   162.36375422
 C      9   8   7     2.953968988318   114.14707705   162.41661495
 F      4   1   2     2.629536199263   110.20991618   108.63170802
 F      5   4   1     2.564436555835   110.29260564   270.15468021
 F      5   4   1     2.572726130452   108.58179722    28.57841973
 F      6   5   4     2.559686148288   109.22822656   285.03385927
 F      6   5   4     2.561630124115   108.59004089    43.81583148
 F      7   6   5     2.560086254300   108.88346185   283.65347401
 F      7   6   5     2.558609187723   109.15230848    42.38718856
 F      8   7   6     2.558257333546   109.25240264    41.79387651
 F      8   7   6     2.559385404477   108.69554158   283.25540020
 F      9   8   7     2.560631842023   109.45719767    41.95842364
 F      9   8   7     2.553824310132   109.05210362   282.91820052
 F     10   9   8     2.533274427850   110.79953142    50.02756898
 F     10   9   8     2.529455642830   108.63493714   169.35523750
 F     10   9   8     2.527208643196   110.96044107   288.72891896

---------------------
BASIS SET INFORMATION
---------------------
There are 3 groups of distinct atoms

 Group   1 Type C   : 11s6p2d1f contracted to 5s3p2d1f pattern {62111/411/11/1}
 Group   2 Type O   : 11s6p2d1f contracted to 5s3p2d1f pattern {62111/411/11/1}
 Group   3 Type F   : 11s6p2d1f contracted to 5s3p2d1f pattern {62111/411/11/1}

Atom   0C    basis set group =>   1
Atom   1O    basis set group =>   2
Atom   2O    basis set group =>   2
Atom   3C    basis set group =>   1
Atom   4C    basis set group =>   1
Atom   5C    basis set group =>   1
Atom   6C    basis set group =>   1
Atom   7C    basis set group =>   1
Atom   8C    basis set group =>   1
Atom   9C    basis set group =>   1
Atom  10F    basis set group =>   3
Atom  11F    basis set group =>   3
Atom  12F    basis set group =>   3
Atom  13F    basis set group =>   3
Atom  14F    basis set group =>   3
Atom  15F    basis set group =>   3
Atom  16F    basis set group =>   3
Atom  17F    basis set group =>   3
Atom  18F    basis set group =>   3
Atom  19F    basis set group =>   3
Atom  20F    basis set group =>   3
Atom  21F    basis set group =>   3
Atom  22F    basis set group =>   3
Atom  23F    basis set group =>   3
---------------------------------
AUXILIARY/J BASIS SET INFORMATION
---------------------------------
There are 3 groups of distinct atoms

 Group   1 Type C   : 12s5p4d2f1g contracted to 6s4p3d1f1g pattern {711111/2111/211/2/1}
 Group   2 Type O   : 12s5p4d2f1g contracted to 6s4p3d1f1g pattern {711111/2111/211/2/1}
 Group   3 Type F   : 12s5p4d2f1g contracted to 6s4p3d1f1g pattern {711111/2111/211/2/1}

Atom   0C    basis set group =>   1
Atom   1O    basis set group =>   2
Atom   2O    basis set group =>   2
Atom   3C    basis set group =>   1
Atom   4C    basis set group =>   1
Atom   5C    basis set group =>   1
Atom   6C    basis set group =>   1
Atom   7C    basis set group =>   1
Atom   8C    basis set group =>   1
Atom   9C    basis set group =>   1
Atom  10F    basis set group =>   3
Atom  11F    basis set group =>   3
Atom  12F    basis set group =>   3
Atom  13F    basis set group =>   3
Atom  14F    basis set group =>   3
Atom  15F    basis set group =>   3
Atom  16F    basis set group =>   3
Atom  17F    basis set group =>   3
Atom  18F    basis set group =>   3
Atom  19F    basis set group =>   3
Atom  20F    basis set group =>   3
Atom  21F    basis set group =>   3
Atom  22F    basis set group =>   3
Atom  23F    basis set group =>   3


           ************************************************************
           *        Program running with 20 parallel MPI-processes    *
           *              working on a common directory               *
           ************************************************************
------------------------------------------------------------------------------
                           ORCA GTO INTEGRAL CALCULATION
                           -- RI-GTO INTEGRALS CHOSEN --
------------------------------------------------------------------------------
------------------------------------------------------------------------------
                   ___                                                        
                  /   \      - P O W E R E D   B Y -                         
                 /     \                                                     
                 |  |  |   _    _      __       _____    __    __             
                 |  |  |  | |  | |    /  \     |  _  \  |  |  /  |          
                  \  \/   | |  | |   /    \    | | | |  |  | /  /          
                 / \  \   | |__| |  /  /\  \   | |_| |  |  |/  /          
                |  |  |   |  __  | /  /__\  \  |    /   |      \           
                |  |  |   | |  | | |   __   |  |    \   |  |\   \          
                \     /   | |  | | |  |  |  |  | |\  \  |  | \   \       
                 \___/    |_|  |_| |__|  |__|  |_| \__\ |__|  \__/        
                                                                              
                      - O R C A' S   B I G   F R I E N D -                    
                                      &                                       
                       - I N T E G R A L  F E E D E R -                       
                                                                              
 v1 FN, 2020, v2 2021                                                         
------------------------------------------------------------------------------


Reading SHARK input file rf_mecn_opt_TPS_C2_D_B.SHARKINP.tmp ... ok
----------------------
SHARK INTEGRAL PACKAGE
----------------------

Number of atoms                             ...     24
Number of basis functions                   ...    744
Number of shells                            ...    264
Maximum angular momentum                    ...      3
Integral batch strategy                     ... SHARK/LIBINT Hybrid
RI-J (if used) integral strategy            ... SPLIT-RIJ (Revised 2003 algorithm where possible)
Printlevel                                  ...      1
Contraction scheme used                     ... SEGMENTED contraction
Coulomb Range Separation                    ... NOT USED
Exchange Range Separation                   ... NOT USED
Finite Nucleus Model                        ... NOT USED
Auxiliary Coulomb fitting basis             ... AVAILABLE
   # of basis functions in Aux-J            ...   1176
   # of shells in Aux-J                     ...    360
   Maximum angular momentum in Aux-J        ...      4
Auxiliary J/K fitting basis                 ... NOT available
Auxiliary Correlation fitting basis         ... NOT available
Auxiliary 'external' fitting basis          ... NOT available
Integral threshold                          ...     2.500000e-11
Primitive cut-off                           ...     2.500000e-12
Primitive pair pre-selection threshold      ...     2.500000e-12

Calculating pre-screening integrals         ... done (  0.1 sec) Dimension = 264
Organizing shell pair data                  ... done (  0.3 sec)
Shell pair information
Total number of shell pairs                 ...     34980
Shell pairs after pre-screening             ...     21730
Total number of primitive shell pairs       ...    115968
Primitive shell pairs kept                  ...     46208
          la=0 lb=0:   4056 shell pairs
          la=1 lb=0:   5906 shell pairs
          la=1 lb=1:   2069 shell pairs
          la=2 lb=0:   3229 shell pairs
          la=2 lb=1:   2393 shell pairs
          la=2 lb=2:    680 shell pairs
          la=3 lb=0:   1466 shell pairs
          la=3 lb=1:   1159 shell pairs
          la=3 lb=2:    623 shell pairs
          la=3 lb=3:    149 shell pairs

Calculating one electron integrals          ... done (  0.0 sec)
Calculating RI/J V-Matrix + Cholesky decomp.... done (  0.1 sec)
Calculating Nuclear repulsion               ... done (  0.0 sec) ENN=   2620.123499878366 Eh

SHARK setup successfully completed in   0.8 seconds

Maximum memory used throughout the entire GTOINT-calculation: 38.6 MB


           ************************************************************
           *        Program running with 20 parallel MPI-processes    *
           *              working on a common directory               *
           ************************************************************
-------------------------------------------------------------------------------
                                 ORCA SCF
-------------------------------------------------------------------------------

------------
SCF SETTINGS
------------
Hamiltonian:
 Density Functional     Method          .... DFT(GTOs)
 Exchange Functional    Exchange        .... TPSS
 Correlation Functional Correlation     .... TPSS
 LDA part of GGA corr.  LDAOpt          .... PW91-LDA
 Gradients option       PostSCFGGA      .... off
 Hybrid DFT is turned on
   Fraction HF Exchange ScalHFX         ....  0.100000
   Scaling of DF-GGA-X  ScalDFX         ....  0.900000
   Scaling of DF-GGA-C  ScalDFC         ....  1.000000
   Scaling of DF-LDA-C  ScalLDAC        ....  1.000000
   Perturbative correction              ....  0.000000
   Density functional embedding theory  .... OFF
   NL short-range parameter             ....  5.200000
 RI-approximation to the Coulomb term is turned on
   Number of AuxJ basis functions       .... 1176
   RIJ-COSX (HFX calculated with COS-X)).... on


General Settings:
 Integral files         IntName         .... rf_mecn_opt_TPS_C2_D_B
 Hartree-Fock type      HFTyp           .... UHF
 Total Charge           Charge          ....   -1
 Multiplicity           Mult            ....    2
 Number of Electrons    NEL             ....  191
 Basis Dimension        Dim             ....  744
 Nuclear Repulsion      ENuc            ....   2620.1234998784 Eh

Convergence Acceleration:
 DIIS                   CNVDIIS         .... on
   Start iteration      DIISMaxIt       ....     0
   Startup error        DIISStart       ....  0.200000
   # of expansion vecs  DIISMaxEq       ....     5
   Bias factor          DIISBfac        ....   1.050
   Max. coefficient     DIISMaxC        ....  10.000
 Trust-Rad. Augm. Hess. CNVTRAH         .... auto
   Auto Start mean grad. ratio tolernc. ....  1.125000
   Auto Start start iteration           ....    20
   Auto Start num. interpolation iter.  ....    10
   Max. Number of Micro iterations      ....    16
   Max. Number of Macro iterations      .... Maxiter - #DIIS iter
   Number of Davidson start vectors     ....     2
   Converg. threshold I  (grad. norm)   ....   1.000e-05
   Converg. threshold II (energy diff.) ....   1.000e-08
   Grad. Scal. Fac. for Micro threshold ....   0.100
   Minimum threshold for Micro iter.    ....   0.010
   NR start threshold (gradient norm)   ....   0.001
   Initial trust radius                 ....   0.400
   Minimum AH scaling param. (alpha)    ....   1.000
   Maximum AH scaling param. (alpha)    .... 1000.000
   Orbital update algorithm             .... Taylor
   White noise on init. David. guess    .... on
   Maximum white noise                  ....   0.010
   Quad. conv. algorithm                .... NR
 SOSCF                  CNVSOSCF        .... off
 Level Shifting         CNVShift        .... on
   Level shift para.    LevelShift      ....    0.2500
   Turn off err/grad.   ShiftErr        ....    0.0000
 Zerner damping         CNVZerner       .... off
 Static damping         CNVDamp         .... on
   Fraction old density DampFac         ....    0.8500
   Max. Damping (<1)    DampMax         ....    0.9800
   Min. Damping (>=0)   DampMin         ....    0.0000
   Turn off err/grad.   DampErr         ....    0.0300
 Fernandez-Rico         CNVRico         .... off

SCF Procedure:
 Maximum # iterations   MaxIter         ....  1500
 SCF integral mode      SCFMode         .... Direct
   Integral package                     .... SHARK and LIBINT hybrid scheme
 Reset frequency        DirectResetFreq ....    20
 Integral Threshold     Thresh          ....  2.500e-11 Eh
 Primitive CutOff       TCut            ....  2.500e-12 Eh

Convergence Tolerance:
 Convergence Check Mode ConvCheckMode   .... Total+1el-Energy
 Convergence forced     ConvForced      .... 0
 Energy Change          TolE            ....  1.000e-08 Eh
 1-El. energy change                    ....  1.000e-05 Eh
 DIIS Error             TolErr          ....  5.000e-07


Diagonalization of the overlap matrix:
Smallest eigenvalue                        ... 6.364e-05
Time for diagonalization                   ...    0.144 sec
Threshold for overlap eigenvalues          ... 1.000e-08
Number of eigenvalues below threshold      ... 0
Time for construction of square roots      ...    0.062 sec
Total time needed                          ...    0.210 sec

Time for model grid setup =    0.206 sec

------------------------------
INITIAL GUESS: MODEL POTENTIAL
------------------------------
Loading Hartree-Fock densities                     ... done
Calculating cut-offs                               ... done
Initializing the effective Hamiltonian             ... done
Setting up the integral package (SHARK)            ... done
Starting the Coulomb interaction                   ... done (   0.3 sec)
Reading the grid                                   ... done
Mapping shells                                     ... done
Starting the XC term evaluation                    ... done (   0.1 sec)
  promolecular density results
     # of electrons  =    190.000242820
     EX              =   -197.028222660
     EC              =     -6.649120774
     EX+EC           =   -203.677343434
Transforming the Hamiltonian                       ... done (   0.1 sec)
Diagonalizing the Hamiltonian                      ... done (   0.1 sec)
Back transforming the eigenvectors                 ... done (   0.0 sec)
Now organizing SCF variables                       ... done
                      ------------------
                      INITIAL GUESS DONE (   0.9 sec)
                      ------------------
-------------------
DFT GRID GENERATION
-------------------

General Integration Accuracy     IntAcc      ... 4.388
Radial Grid Type                 RadialGrid  ... OptM3 with GC (2021)
Angular Grid (max. ang.)         AngularGrid ... 4 (Lebedev-302)
Angular grid pruning method      GridPruning ... 4 (adaptive)
Weight generation scheme         WeightScheme... Becke
Basis function cutoff            BFCut       ... 1.0000e-11
Integration weight cutoff        WCut        ... 1.0000e-14
Angular grids for H and He will be reduced by one unit
Partially contracted basis set               ... off
Rotationally invariant grid construction     ... off

Total number of grid points                  ...   145478
Total number of batches                      ...     2285
Average number of points per batch           ...       63
Average number of grid points per atom       ...     6062
Time for grid setup =    1.037 sec

--------------------
COSX GRID GENERATION
--------------------

GRIDX 1
-------
General Integration Accuracy     IntAcc      ... 3.816
Radial Grid Type                 RadialGrid  ... OptM3 with GC (2021)
Angular Grid (max. ang.)         AngularGrid ... 1 (Lebedev-50)
Angular grid pruning method      GridPruning ... 4 (adaptive)
Weight generation scheme         WeightScheme... Becke
Basis function cutoff            BFCut       ... 1.0000e-11
Integration weight cutoff        WCut        ... 1.0000e-14
Angular grids for H and He will be reduced by one unit
Partially contracted basis set               ... on
Rotationally invariant grid construction     ... off

Total number of grid points                  ...    18283
Total number of batches                      ...      300
Average number of points per batch           ...       60
Average number of grid points per atom       ...      762
UseSFitting                                  ... on

GRIDX 2
-------
General Integration Accuracy     IntAcc      ... 4.020
Radial Grid Type                 RadialGrid  ... OptM3 with GC (2021)
Angular Grid (max. ang.)         AngularGrid ... 2 (Lebedev-110)
Angular grid pruning method      GridPruning ... 4 (adaptive)
Weight generation scheme         WeightScheme... Becke
Basis function cutoff            BFCut       ... 1.0000e-11
Integration weight cutoff        WCut        ... 1.0000e-14
Angular grids for H and He will be reduced by one unit
Partially contracted basis set               ... on
Rotationally invariant grid construction     ... off

Total number of grid points                  ...    43348
Total number of batches                      ...      692
Average number of points per batch           ...       62
Average number of grid points per atom       ...     1806
UseSFitting                                  ... on

GRIDX 3
-------
General Integration Accuracy     IntAcc      ... 4.338
Radial Grid Type                 RadialGrid  ... OptM3 with GC (2021)
Angular Grid (max. ang.)         AngularGrid ... 3 (Lebedev-194)
Angular grid pruning method      GridPruning ... 4 (adaptive)
Weight generation scheme         WeightScheme... Becke
Basis function cutoff            BFCut       ... 1.0000e-11
Integration weight cutoff        WCut        ... 1.0000e-14
Angular grids for H and He will be reduced by one unit
Partially contracted basis set               ... on
Rotationally invariant grid construction     ... off

Total number of grid points                  ...    96052
Total number of batches                      ...     1511
Average number of points per batch           ...       63
Average number of grid points per atom       ...     4002
UseSFitting                                  ... on

Time for X-Grid setup             =    1.422 sec


--------------------
CPCM SOLVATION MODEL
--------------------
CPCM parameters:
  Epsilon                                         ...      35.6880
  Refrac                                          ...       1.3442
  Rsolv                                           ...       1.3000
  Surface type                                    ... GAUSSIAN VDW
  Epsilon function type                           ...         CPCM
Solvent:                                     ... ACETONITRILE
SMD-CDS solvent descriptors:
  Soln                                       ...    1.3442
  Soln25                                     ...    1.3416
  Sola                                       ...    0.0700
  Solb                                       ...    0.3200
  Solg                                       ...   41.2500
  Solc                                       ...    0.0000
  Solh                                       ...    0.0000
Radii:
 Radius for C  used is    3.4960 Bohr (=   1.8500 Ang.)
 Radius for O  used is    4.0969 Bohr (=   2.1680 Ang.)
 Radius for F  used is    3.2692 Bohr (=   1.7300 Ang.)
Calculating surface                               ...        done! (  0.0s)
GEPOL surface points                              ...         1274
GEPOL Volume                                      ...    2153.5135
GEPOL Surface-area                                ...    1122.3418
Calculating surface distance matrix               ...        done! (  0.0s)
Performing Cholesky decomposition & store         ...        done! (  0.1s)
Overall time for CPCM initialization              ...                 0.1s
--------------
SCF ITERATIONS
--------------
ITER       Energy         Delta-E        Max-DP      RMS-DP      [F,P]     Damp
               ***  Starting incremental Fock matrix formation  ***
  0  -1853.4110507561   0.000000000000 0.03963585  0.00019179  0.1571139 0.8500
  1  -1853.5632728574  -0.152222101242 0.06172855  0.00021707  0.1028387 0.8500
                               ***Turning on DIIS***
  2  -1853.6397402234  -0.076467365998 0.04731770  0.00015705  0.0559335 0.8500
  3  -1853.6793638595  -0.039623636090 0.12388124  0.00047769  0.0268199 0.0000
  4  -1853.8422724880  -0.162908628565 0.01305936  0.00003924  0.0328706 0.8500
  5  -1853.8477736726  -0.005501184561 0.11039589  0.00032749  0.0281859 0.0000
  6  -1853.8672535247  -0.019479852103 0.01742248  0.00005603  0.0081289 0.0000
  7  -1853.8686126615  -0.001359136843 0.00526790  0.00001965  0.0023168 0.0000
  8  -1853.8688457142  -0.000233052693 0.00170686  0.00001162  0.0023072 0.0000
  9  -1853.8689641902  -0.000118475992 0.00173866  0.00000976  0.0014969 0.0000
 10  -1853.8690222997  -0.000058109492 0.00080232  0.00000552  0.0011327 0.0000
 11  -1853.8690507015  -0.000028401814 0.00067183  0.00000478  0.0008517 0.0000
               *** Restarting incremental Fock matrix formation ***
                                   *** Resetting DIIS ***
 12  -1853.8690723481  -0.000021646531 0.00035272  0.00000316  0.0004652 0.0000
 13  -1853.8690782961  -0.000005948057 0.00031372  0.00000201  0.0005964 0.0000
 14  -1853.8690836226  -0.000005326452 0.00023189  0.00000182  0.0003215 0.0000
 15  -1853.8690860495  -0.000002426915 0.00019630  0.00000138  0.0002675 0.0000
 16  -1853.8690874953  -0.000001445806 0.00011577  0.00000100  0.0001694 0.0000
 17  -1853.8690882246  -0.000000729264 0.00007334  0.00000062  0.0001284 0.0000
 18  -1853.8690885121  -0.000000287520 0.00007265  0.00000049  0.0000889 0.0000
 19  -1853.8690886510  -0.000000138905 0.00003997  0.00000030  0.0000569 0.0000
 20  -1853.8690887245  -0.000000073479 0.00002881  0.00000024  0.0000370 0.0000
 21  -1853.8690887733  -0.000000048869 0.00002209  0.00000014  0.0000281 0.0000
 22  -1853.8690887646   0.000000008752 0.00001192  0.00000010  0.0000176 0.0000
 23  -1853.8690887904  -0.000000025812 0.00000674  0.00000007  0.0000109 0.0000
 24  -1853.8690888158  -0.000000025375 0.00001865  0.00000010  0.0000067 0.0000
 25  -1853.8690888084   0.000000007415 0.00001242  0.00000006  0.0000045 0.0000
 26  -1853.8690888486  -0.000000040208 0.00000399  0.00000002  0.0000029 0.0000
                 **** Energy Check signals convergence ****

               *****************************************************
               *                     SUCCESS                       *
               *           SCF CONVERGED AFTER  27 CYCLES          *
               *****************************************************

Old exchange energy                            =    -19.871804983 Eh
New exchange energy                            =    -19.871808956 Eh
Exchange energy change after final integration =     -0.000003973 Eh
Total energy after final integration           =  -1853.869092820 Eh
Final COS-X integration done in                =    10.501 sec

SMD CDS free energy correction energy :                 3.56261     Kcal/mol
Total Energy after SMD CDS correction =             -1853.863415447 Eh

----------------
TOTAL SCF ENERGY
----------------

Total Energy       :        -1853.86341545 Eh          -50446.18817 eV

Components:
Nuclear Repulsion  :         2620.12349988 Eh           71297.18511 eV
Electronic Energy  :        -4473.98691533 Eh         -121743.37328 eV
One Electron Energy:        -7814.31710386 Eh         -212638.37872 eV
Two Electron Energy:         3340.33018853 Eh           90895.00544 eV
Max COSX asymmetry :            0.00000025 Eh               0.00001 eV
CPCM Dielectric    :           -0.08137367 Eh              -2.21429 eV
SMD CDS (Gcds)     :            0.00567737 Eh               0.15449 eV

Virial components:
Potential Energy   :        -3700.53812013 Eh         -100696.76157 eV
Kinetic Energy     :         1846.67470468 Eh           50250.57340 eV
Virial Ratio       :            2.00389279


DFT components:
N(Alpha)           :       95.999981446863 electrons
N(Beta)            :       94.999974142634 electrons
N(Total)           :      190.999955589497 electrons
E(X)               :     -180.652350918256 Eh       
E(C)               :       -6.697759901560 Eh       
E(XC)              :     -187.350110819817 Eh       
DFET-embed. en.    :        0.000000000000 Eh       
CPCM Solvation Model Properties:
Surface-charge          :            0.98987783
Charge-correction       :           -0.00105329 Eh              -0.02866 eV
Free-energy (cav+disp)  :            0.00567737 Eh               0.15449 eV

---------------
SCF CONVERGENCE
---------------

  Last Energy change         ...    1.4838e-09  Tolerance :   1.0000e-08
  Last MAX-Density change    ...    0.0000e+00  Tolerance :   1.0000e-07
  Last RMS-Density change    ...    0.0000e+00  Tolerance :   5.0000e-09
  Last DIIS Error            ...    1.6627e-06  Tolerance :   5.0000e-07

             **** THE GBW FILE WAS UPDATED (rf_mecn_opt_TPS_C2_D_B.gbw) ****
             **** DENSITY rf_mecn_opt_TPS_C2_D_B.scfp WAS UPDATED ****
             **** ENERGY FILE WAS UPDATED (rf_mecn_opt_TPS_C2_D_B.en.tmp) ****
----------------------
UHF SPIN CONTAMINATION
----------------------

Warning: in a DFT calculation there is little theoretical justification to 
         calculate <S**2> as in Hartree-Fock theory. We will do it anyways
         but you should keep in mind that the values have only limited relevance

Expectation value of <S**2>     :     0.754456
Ideal value S*(S+1) for S=0.5   :     0.750000
Deviation                       :     0.004456

             **** THE GBW FILE WAS UPDATED (rf_mecn_opt_TPS_C2_D_B.gbw) ****
             **** DENSITY rf_mecn_opt_TPS_C2_D_B.scfp WAS UPDATED ****
----------------
ORBITAL ENERGIES
----------------
                 SPIN UP ORBITALS
  NO   OCC          E(Eh)            E(eV) 
   0   1.0000     -24.660735      -671.0527 
   1   1.0000     -24.659905      -671.0301 
   2   1.0000     -24.659364      -671.0154 
   3   1.0000     -24.659311      -671.0140 
   4   1.0000     -24.659019      -671.0060 
   5   1.0000     -24.658812      -671.0004 
   6   1.0000     -24.658499      -670.9919 
   7   1.0000     -24.655478      -670.9097 
   8   1.0000     -24.655157      -670.9009 
   9   1.0000     -24.651334      -670.7969 
  10   1.0000     -24.649278      -670.7410 
  11   1.0000     -24.635033      -670.3533 
  12   1.0000     -24.631900      -670.2681 
  13   1.0000     -24.617891      -669.8869 
  14   1.0000     -19.020359      -517.5703 
  15   1.0000     -19.010064      -517.2901 
  16   1.0000     -10.396141      -282.8934 
  17   1.0000     -10.344027      -281.4753 
  18   1.0000     -10.343881      -281.4713 
  19   1.0000     -10.339337      -281.3477 
  20   1.0000     -10.329671      -281.0846 
  21   1.0000     -10.314684      -280.6768 
  22   1.0000     -10.229515      -278.3592 
  23   1.0000     -10.225001      -278.2364 
  24   1.0000      -1.320245       -35.9257 
  25   1.0000      -1.296201       -35.2714 
  26   1.0000      -1.281049       -34.8591 
  27   1.0000      -1.274273       -34.6747 
  28   1.0000      -1.269063       -34.5330 
  29   1.0000      -1.253988       -34.1228 
  30   1.0000      -1.236264       -33.6405 
  31   1.0000      -1.230465       -33.4827 
  32   1.0000      -1.229497       -33.4563 
  33   1.0000      -1.222775       -33.2734 
  34   1.0000      -1.219674       -33.1890 
  35   1.0000      -1.214813       -33.0568 
  36   1.0000      -1.200388       -32.6642 
  37   1.0000      -1.192779       -32.4572 
  38   1.0000      -0.937986       -25.5239 
  39   1.0000      -0.879582       -23.9346 
  40   1.0000      -0.822764       -22.3886 
  41   1.0000      -0.799093       -21.7444 
  42   1.0000      -0.768579       -20.9141 
  43   1.0000      -0.729675       -19.8555 
  44   1.0000      -0.686214       -18.6728 
  45   1.0000      -0.658671       -17.9233 
  46   1.0000      -0.636658       -17.3243 
  47   1.0000      -0.620892       -16.8953 
  48   1.0000      -0.615559       -16.7502 
  49   1.0000      -0.609114       -16.5748 
  50   1.0000      -0.598370       -16.2825 
  51   1.0000      -0.594100       -16.1663 
  52   1.0000      -0.590991       -16.0817 
  53   1.0000      -0.580336       -15.7917 
  54   1.0000      -0.574898       -15.6438 
  55   1.0000      -0.568025       -15.4567 
  56   1.0000      -0.564739       -15.3673 
  57   1.0000      -0.553580       -15.0637 
  58   1.0000      -0.545010       -14.8305 
  59   1.0000      -0.532897       -14.5009 
  60   1.0000      -0.515765       -14.0347 
  61   1.0000      -0.485398       -13.2084 
  62   1.0000      -0.481573       -13.1043 
  63   1.0000      -0.476129       -12.9561 
  64   1.0000      -0.471563       -12.8319 
  65   1.0000      -0.469250       -12.7690 
  66   1.0000      -0.465340       -12.6625 
  67   1.0000      -0.459106       -12.4929 
  68   1.0000      -0.456217       -12.4143 
  69   1.0000      -0.452455       -12.3119 
  70   1.0000      -0.450818       -12.2674 
  71   1.0000      -0.446784       -12.1576 
  72   1.0000      -0.443926       -12.0798 
  73   1.0000      -0.434137       -11.8135 
  74   1.0000      -0.433522       -11.7967 
  75   1.0000      -0.426989       -11.6190 
  76   1.0000      -0.423988       -11.5373 
  77   1.0000      -0.423051       -11.5118 
  78   1.0000      -0.419801       -11.4234 
  79   1.0000      -0.418658       -11.3923 
  80   1.0000      -0.414840       -11.2884 
  81   1.0000      -0.414210       -11.2712 
  82   1.0000      -0.412595       -11.2273 
  83   1.0000      -0.410968       -11.1830 
  84   1.0000      -0.405710       -11.0399 
  85   1.0000      -0.398500       -10.8437 
  86   1.0000      -0.393393       -10.7048 
  87   1.0000      -0.376316       -10.2401 
  88   1.0000      -0.369643       -10.0585 
  89   1.0000      -0.351491        -9.5645 
  90   1.0000      -0.328094        -8.9279 
  91   1.0000      -0.319490        -8.6938 
  92   1.0000      -0.261101        -7.1049 
  93   1.0000      -0.233237        -6.3467 
  94   1.0000      -0.218769        -5.9530 
  95   1.0000      -0.212343        -5.7781 
  96   0.0000      -0.030364        -0.8262 
  97   0.0000      -0.014268        -0.3882 
  98   0.0000      -0.004125        -0.1122 
  99   0.0000       0.029535         0.8037 
 100   0.0000       0.047703         1.2981 
 101   0.0000       0.078131         2.1261 
 102   0.0000       0.093654         2.5485 
 103   0.0000       0.097328         2.6484 
 104   0.0000       0.101162         2.7528 
 105   0.0000       0.118195         3.2163 
 106   0.0000       0.119983         3.2649 
 107   0.0000       0.132426         3.6035 
 108   0.0000       0.140967         3.8359 
 109   0.0000       0.148226         4.0334 
 110   0.0000       0.163890         4.4597 
 111   0.0000       0.169425         4.6103 
 112   0.0000       0.184475         5.0198 
 113   0.0000       0.186168         5.0659 
 114   0.0000       0.196232         5.3397 
 115   0.0000       0.200909         5.4670 
 116   0.0000       0.206397         5.6164 
 117   0.0000       0.208354         5.6696 
 118   0.0000       0.210673         5.7327 
 119   0.0000       0.221533         6.0282 
 120   0.0000       0.222627         6.0580 
 121   0.0000       0.224752         6.1158 
 122   0.0000       0.230089         6.2611 
 123   0.0000       0.235991         6.4216 
 124   0.0000       0.238232         6.4826 
 125   0.0000       0.248798         6.7701 
 126   0.0000       0.249793         6.7972 
 127   0.0000       0.256275         6.9736 
 128   0.0000       0.265546         7.2259 
 129   0.0000       0.270317         7.3557 
 130   0.0000       0.280185         7.6242 
 131   0.0000       0.287060         7.8113 
 132   0.0000       0.292853         7.9689 
 133   0.0000       0.297487         8.0950 
 134   0.0000       0.304659         8.2902 
 135   0.0000       0.311949         8.4886 
 136   0.0000       0.319121         8.6837 
 137   0.0000       0.329769         8.9735 
 138   0.0000       0.332522         9.0484 
 139   0.0000       0.340276         9.2594 
 140   0.0000       0.346465         9.4278 
 141   0.0000       0.359772         9.7899 
 142   0.0000       0.379164        10.3176 
 143   0.0000       0.396282        10.7834 
 144   0.0000       0.397905        10.8275 
 145   0.0000       0.406532        11.0623 
 146   0.0000       0.417608        11.3637 
 147   0.0000       0.422379        11.4935 
 148   0.0000       0.429825        11.6961 
 149   0.0000       0.436707        11.8834 
 150   0.0000       0.438709        11.9379 
 151   0.0000       0.451685        12.2910 
 152   0.0000       0.457188        12.4407 
 153   0.0000       0.465099        12.6560 
 154   0.0000       0.467283        12.7154 
 155   0.0000       0.479949        13.0601 
 156   0.0000       0.484866        13.1939 
 157   0.0000       0.497755        13.5446 
 158   0.0000       0.501657        13.6508 
 159   0.0000       0.516712        14.0604 
 160   0.0000       0.520463        14.1625 
 161   0.0000       0.525566        14.3014 
 162   0.0000       0.532033        14.4773 
 163   0.0000       0.539910        14.6917 
 164   0.0000       0.542533        14.7631 
 165   0.0000       0.547434        14.8964 
 166   0.0000       0.563046        15.3213 
 167   0.0000       0.581155        15.8140 
 168   0.0000       0.609952        16.5976 
 169   0.0000       0.613543        16.6954 
 170   0.0000       0.624220        16.9859 
 171   0.0000       0.640612        17.4319 
 172   0.0000       0.654117        17.7994 
 173   0.0000       0.656053        17.8521 
 174   0.0000       0.659443        17.9444 
 175   0.0000       0.660888        17.9837 
 176   0.0000       0.666182        18.1277 
 177   0.0000       0.684726        18.6323 
 178   0.0000       0.693922        18.8826 
 179   0.0000       0.704134        19.1605 
 180   0.0000       0.707068        19.2403 
 181   0.0000       0.711168        19.3519 
 182   0.0000       0.720615        19.6089 
 183   0.0000       0.731190        19.8967 
 184   0.0000       0.732498        19.9323 
 185   0.0000       0.741204        20.1692 
 186   0.0000       0.747333        20.3360 
 187   0.0000       0.749116        20.3845 
 188   0.0000       0.756673        20.5901 
 189   0.0000       0.762696        20.7540 
 190   0.0000       0.772185        21.0122 
 191   0.0000       0.775218        21.0948 
 192   0.0000       0.789878        21.4937 
 193   0.0000       0.797195        21.6928 
 194   0.0000       0.798499        21.7283 
 195   0.0000       0.812900        22.1201 
 196   0.0000       0.825870        22.4731 
 197   0.0000       0.834285        22.7021 
 198   0.0000       0.839382        22.8407 
 199   0.0000       0.844092        22.9689 
 200   0.0000       0.848034        23.0762 
 201   0.0000       0.857410        23.3313 
 202   0.0000       0.862977        23.4828 
 203   0.0000       0.874832        23.8054 
 204   0.0000       0.888749        24.1841 
 205   0.0000       0.900341        24.4995 
 206   0.0000       0.907024        24.6814 
 207   0.0000       0.908672        24.7262 
 208   0.0000       0.920060        25.0361 
 209   0.0000       0.923773        25.1371 
 210   0.0000       0.929707        25.2986 
 211   0.0000       0.947537        25.7838 
 212   0.0000       0.952989        25.9321 
 213   0.0000       0.958236        26.0749 
 214   0.0000       0.970757        26.4156 
 215   0.0000       0.977175        26.5903 
 216   0.0000       0.993057        27.0224 
 217   0.0000       1.003199        27.2984 
 218   0.0000       1.013024        27.5658 
 219   0.0000       1.015649        27.6372 
 220   0.0000       1.037120        28.2215 
 221   0.0000       1.058860        28.8130 
 222   0.0000       1.067129        29.0381 
 223   0.0000       1.072742        29.1908 
 224   0.0000       1.075922        29.2773 
 225   0.0000       1.086531        29.5660 
 226   0.0000       1.098858        29.9014 
 227   0.0000       1.100688        29.9512 
 228   0.0000       1.114178        30.3183 
 229   0.0000       1.129384        30.7321 
 230   0.0000       1.134818        30.8800 
 231   0.0000       1.140554        31.0361 
 232   0.0000       1.154168        31.4065 
 233   0.0000       1.156250        31.4632 
 234   0.0000       1.165672        31.7195 
 235   0.0000       1.172438        31.9037 
 236   0.0000       1.177641        32.0453 
 237   0.0000       1.201013        32.6812 
 238   0.0000       1.206257        32.8239 
 239   0.0000       1.211798        32.9747 
 240   0.0000       1.235549        33.6210 
 241   0.0000       1.242289        33.8044 
 242   0.0000       1.257441        34.2167 
 243   0.0000       1.263669        34.3862 
 244   0.0000       1.270551        34.5735 
 245   0.0000       1.281365        34.8677 
 246   0.0000       1.288323        35.0571 
 247   0.0000       1.298820        35.3427 
 248   0.0000       1.311624        35.6911 
 249   0.0000       1.323984        36.0274 
 250   0.0000       1.360340        37.0167 
 251   0.0000       1.364275        37.1238 
 252   0.0000       1.384748        37.6809 
 253   0.0000       1.401070        38.1251 
 254   0.0000       1.409327        38.3497 
 255   0.0000       1.444593        39.3094 
 256   0.0000       1.451254        39.4906 
 257   0.0000       1.467814        39.9413 
 258   0.0000       1.485619        40.4257 
 259   0.0000       1.515539        41.2399 
 260   0.0000       1.535275        41.7770 
 261   0.0000       1.549376        42.1607 
 262   0.0000       1.568475        42.6804 
 263   0.0000       1.587289        43.1923 
 264   0.0000       1.601228        43.5716 
 265   0.0000       1.610771        43.8313 
 266   0.0000       1.636212        44.5236 
 267   0.0000       1.649890        44.8958 
 268   0.0000       1.678734        45.6807 
 269   0.0000       1.685610        45.8678 
 270   0.0000       1.706105        46.4255 
 271   0.0000       1.732966        47.1564 
 272   0.0000       1.741786        47.3964 
 273   0.0000       1.754632        47.7460 
 274   0.0000       1.773803        48.2676 
 275   0.0000       1.783305        48.5262 
 276   0.0000       1.794257        48.8242 
 277   0.0000       1.795956        48.8704 
 278   0.0000       1.820157        49.5290 
 279   0.0000       1.836300        49.9683 
 280   0.0000       1.839474        50.0546 
 281   0.0000       1.851078        50.3704 
 282   0.0000       1.854681        50.4684 
 283   0.0000       1.865091        50.7517 
 284   0.0000       1.872255        50.9467 
 285   0.0000       1.894875        51.5622 
 286   0.0000       1.897381        51.6304 
 287   0.0000       1.904974        51.8370 
 288   0.0000       1.913023        52.0560 
 289   0.0000       1.915536        52.1244 
 290   0.0000       1.925367        52.3919 
 291   0.0000       1.930837        52.5408 
 292   0.0000       1.941220        52.8233 
 293   0.0000       1.951706        53.1086 
 294   0.0000       1.967208        53.5304 
 295   0.0000       1.990663        54.1687 
 296   0.0000       2.009872        54.6914 
 297   0.0000       2.015903        54.8555 
 298   0.0000       2.031551        55.2813 
 299   0.0000       2.036644        55.4199 
 300   0.0000       2.043408        55.6040 
 301   0.0000       2.048944        55.7546 
 302   0.0000       2.051852        55.8337 
 303   0.0000       2.057433        55.9856 
 304   0.0000       2.059430        56.0399 
 305   0.0000       2.065503        56.2052 
 306   0.0000       2.072010        56.3823 
 307   0.0000       2.079783        56.5938 
 308   0.0000       2.086443        56.7750 
 309   0.0000       2.096069        57.0369 
 310   0.0000       2.101536        57.1857 
 311   0.0000       2.108546        57.3765 
 312   0.0000       2.120693        57.7070 
 313   0.0000       2.125552        57.8392 
 314   0.0000       2.133866        58.0654 
 315   0.0000       2.143015        58.3144 
 316   0.0000       2.146025        58.3963 
 317   0.0000       2.154930        58.6386 
 318   0.0000       2.165581        58.9285 
 319   0.0000       2.176164        59.2164 
 320   0.0000       2.196363        59.7661 
 321   0.0000       2.207566        60.0709 
 322   0.0000       2.238771        60.9201 
 323   0.0000       2.241210        60.9864 
 324   0.0000       2.247769        61.1649 
 325   0.0000       2.256505        61.4026 
 326   0.0000       2.295184        62.4551 
 327   0.0000       2.296843        62.5003 
 328   0.0000       2.306000        62.7495 
 329   0.0000       2.327744        63.3411 
 330   0.0000       2.331686        63.4484 
 331   0.0000       2.345108        63.8136 
 332   0.0000       2.351425        63.9855 
 333   0.0000       2.360133        64.2225 
 334   0.0000       2.364347        64.3372 
 335   0.0000       2.386067        64.9282 
 336   0.0000       2.397613        65.2424 
 337   0.0000       2.410728        65.5992 
 338   0.0000       2.430160        66.1280 
 339   0.0000       2.441029        66.4238 
 340   0.0000       2.445897        66.5562 
 341   0.0000       2.450141        66.6717 
 342   0.0000       2.458988        66.9125 
 343   0.0000       2.462105        66.9973 
 344   0.0000       2.464424        67.0604 
 345   0.0000       2.469673        67.2032 
 346   0.0000       2.478039        67.4309 
 347   0.0000       2.483965        67.5921 
 348   0.0000       2.491720        67.8031 
 349   0.0000       2.518868        68.5419 
 350   0.0000       2.535579        68.9966 
 351   0.0000       2.540515        69.1309 
 352   0.0000       2.560304        69.6694 
 353   0.0000       2.587925        70.4210 
 354   0.0000       2.593185        70.5642 
 355   0.0000       2.610733        71.0416 
 356   0.0000       2.613934        71.1288 
 357   0.0000       2.621058        71.3226 
 358   0.0000       2.631234        71.5995 
 359   0.0000       2.645513        71.9881 
 360   0.0000       2.681183        72.9587 
 361   0.0000       2.686118        73.0930 
 362   0.0000       2.708742        73.7086 
 363   0.0000       2.748880        74.8008 
 364   0.0000       2.758642        75.0665 
 365   0.0000       2.767641        75.3113 
 366   0.0000       2.794220        76.0346 
 367   0.0000       2.824946        76.8707 
 368   0.0000       2.838943        77.2516 
 369   0.0000       2.869069        78.0713 
 370   0.0000       2.878635        78.3316 
 371   0.0000       2.892467        78.7080 
 372   0.0000       2.899767        78.9067 
 373   0.0000       2.906498        79.0898 
 374   0.0000       2.908438        79.1426 
 375   0.0000       2.923085        79.5412 
 376   0.0000       2.930083        79.7316 
 377   0.0000       2.932121        79.7871 
 378   0.0000       2.945283        80.1452 
 379   0.0000       2.955984        80.4364 
 380   0.0000       2.967360        80.7460 
 381   0.0000       2.975392        80.9645 
 382   0.0000       2.986888        81.2773 
 383   0.0000       2.994543        81.4857 
 384   0.0000       3.003801        81.7376 
 385   0.0000       3.007848        81.8477 
 386   0.0000       3.021170        82.2102 
 387   0.0000       3.026773        82.3627 
 388   0.0000       3.036108        82.6167 
 389   0.0000       3.043802        82.8261 
 390   0.0000       3.050039        82.9958 
 391   0.0000       3.065064        83.4046 
 392   0.0000       3.066308        83.4385 
 393   0.0000       3.076804        83.7241 
 394   0.0000       3.082896        83.8899 
 395   0.0000       3.092370        84.1477 
 396   0.0000       3.105890        84.5156 
 397   0.0000       3.111099        84.6573 
 398   0.0000       3.113678        84.7275 
 399   0.0000       3.119225        84.8784 
 400   0.0000       3.126775        85.0839 
 401   0.0000       3.131585        85.2148 
 402   0.0000       3.141241        85.4775 
 403   0.0000       3.144295        85.5606 
 404   0.0000       3.152070        85.7722 
 405   0.0000       3.159522        85.9750 
 406   0.0000       3.166567        86.1667 
 407   0.0000       3.171491        86.3007 
 408   0.0000       3.189694        86.7960 
 409   0.0000       3.197995        87.0219 
 410   0.0000       3.205909        87.2372 
 411   0.0000       3.208204        87.2997 
 412   0.0000       3.216103        87.5146 
 413   0.0000       3.221878        87.6717 
 414   0.0000       3.231197        87.9253 
 415   0.0000       3.241252        88.1989 
 416   0.0000       3.248767        88.4034 
 417   0.0000       3.258442        88.6667 
 418   0.0000       3.261520        88.7505 
 419   0.0000       3.274427        89.1017 
 420   0.0000       3.277953        89.1976 
 421   0.0000       3.281910        89.3053 
 422   0.0000       3.293557        89.6222 
 423   0.0000       3.302710        89.8713 
 424   0.0000       3.320687        90.3605 
 425   0.0000       3.328567        90.5749 
 426   0.0000       3.344629        91.0120 
 427   0.0000       3.351401        91.1963 
 428   0.0000       3.363083        91.5141 
 429   0.0000       3.378080        91.9222 
 430   0.0000       3.383395        92.0669 
 431   0.0000       3.394703        92.3746 
 432   0.0000       3.417645        92.9989 
 433   0.0000       3.429146        93.3118 
 434   0.0000       3.449638        93.8694 
 435   0.0000       3.460805        94.1733 
 436   0.0000       3.491647        95.0126 
 437   0.0000       3.502441        95.3063 
 438   0.0000       3.507659        95.4483 
 439   0.0000       3.534506        96.1788 
 440   0.0000       3.551929        96.6529 
 441   0.0000       3.565959        97.0347 
 442   0.0000       3.574074        97.2555 
 443   0.0000       3.588774        97.6555 
 444   0.0000       3.599171        97.9384 
 445   0.0000       3.616120        98.3996 
 446   0.0000       3.626727        98.6883 
 447   0.0000       3.645052        99.1869 
 448   0.0000       3.670321        99.8745 
 449   0.0000       3.695393       100.5568 
 450   0.0000       3.710914       100.9791 
 451   0.0000       3.717445       101.1568 
 452   0.0000       3.733279       101.5877 
 453   0.0000       3.760715       102.3343 
 454   0.0000       3.764836       102.4464 
 455   0.0000       3.778340       102.8139 
 456   0.0000       3.798047       103.3501 
 457   0.0000       3.812369       103.7398 
 458   0.0000       3.815671       103.8297 
 459   0.0000       3.828918       104.1901 
 460   0.0000       3.842315       104.5547 
 461   0.0000       3.856702       104.9462 
 462   0.0000       3.860409       105.0471 
 463   0.0000       3.867761       105.2471 
 464   0.0000       3.876282       105.4790 
 465   0.0000       3.893825       105.9564 
 466   0.0000       3.902606       106.1953 
 467   0.0000       3.913073       106.4801 
 468   0.0000       3.930392       106.9514 
 469   0.0000       3.942742       107.2875 
 470   0.0000       3.949165       107.4622 
 471   0.0000       3.967462       107.9601 
 472   0.0000       3.974754       108.1586 
 473   0.0000       3.982444       108.3678 
 474   0.0000       3.994716       108.7017 
 475   0.0000       4.004279       108.9620 
 476   0.0000       4.009941       109.1160 
 477   0.0000       4.028370       109.6175 
 478   0.0000       4.041425       109.9728 
 479   0.0000       4.048732       110.1716 
 480   0.0000       4.059512       110.4650 
 481   0.0000       4.062717       110.5522 
 482   0.0000       4.070284       110.7581 
 483   0.0000       4.096720       111.4774 
 484   0.0000       4.108912       111.8092 
 485   0.0000       4.113943       111.9461 
 486   0.0000       4.115714       111.9943 
 487   0.0000       4.124731       112.2396 
 488   0.0000       4.132561       112.4527 
 489   0.0000       4.139090       112.6304 
 490   0.0000       4.156629       113.1076 
 491   0.0000       4.161356       113.2363 
 492   0.0000       4.170486       113.4847 
 493   0.0000       4.173711       113.5725 
 494   0.0000       4.184684       113.8710 
 495   0.0000       4.202086       114.3446 
 496   0.0000       4.234423       115.2245 
 497   0.0000       4.259209       115.8990 
 498   0.0000       4.268022       116.1388 
 499   0.0000       4.280076       116.4668 
 500   0.0000       4.295049       116.8742 
 501   0.0000       4.316191       117.4495 
 502   0.0000       4.328123       117.7742 
 503   0.0000       4.391596       119.5014 
 504   0.0000       4.414735       120.1311 
 505   0.0000       4.522098       123.0526 
 506   0.0000       4.602411       125.2380 
 507   0.0000       4.611666       125.4898 
 508   0.0000       4.679992       127.3490 
 509   0.0000       4.731443       128.7491 
 510   0.0000       4.776955       129.9876 
 511   0.0000       4.829133       131.4074 
 512   0.0000       4.940506       134.4380 
 513   0.0000       4.973988       135.3491 
 514   0.0000       5.015054       136.4666 
 515   0.0000       5.142334       139.9300 
 516   0.0000       5.155202       140.2802 
 517   0.0000       5.220282       142.0511 
 518   0.0000       5.221008       142.0708 
 519   0.0000       5.241917       142.6398 
 520   0.0000       5.248003       142.8054 
 521   0.0000       5.252762       142.9349 
 522   0.0000       5.260862       143.1553 
 523   0.0000       5.279336       143.6580 
 524   0.0000       5.319560       144.7526 
 525   0.0000       5.329208       145.0151 
 526   0.0000       5.349207       145.5593 
 527   0.0000       5.361265       145.8874 
 528   0.0000       5.377398       146.3264 
 529   0.0000       5.392771       146.7448 
 530   0.0000       5.457309       148.5009 
 531   0.0000       5.475301       148.9905 
 532   0.0000       5.492849       149.4680 
 533   0.0000       5.530101       150.4817 
 534   0.0000       5.583339       151.9304 
 535   0.0000       5.660592       154.0325 
 536   0.0000       5.716846       155.5633 
 537   0.0000       5.772558       157.0793 
 538   0.0000       5.854471       159.3082 
 539   0.0000       5.941900       161.6873 
 540   0.0000       6.180966       168.1926 
 541   0.0000       6.245785       169.9565 
 542   0.0000       6.349002       172.7651 
 543   0.0000       6.384204       173.7230 
 544   0.0000       6.420565       174.7125 
 545   0.0000       6.441565       175.2839 
 546   0.0000       6.753505       183.7722 
 547   0.0000       6.801014       185.0650 
 548   0.0000       6.808799       185.2768 
 549   0.0000       6.847660       186.3343 
 550   0.0000       6.851333       186.4343 
 551   0.0000       6.854803       186.5287 
 552   0.0000       6.855843       186.5570 
 553   0.0000       6.856163       186.5657 
 554   0.0000       6.856495       186.5747 
 555   0.0000       6.857565       186.6038 
 556   0.0000       6.860870       186.6938 
 557   0.0000       6.861575       186.7129 
 558   0.0000       6.862630       186.7417 
 559   0.0000       6.863911       186.7765 
 560   0.0000       6.864994       186.8060 
 561   0.0000       6.865408       186.8172 
 562   0.0000       6.866767       186.8542 
 563   0.0000       6.868397       186.8986 
 564   0.0000       6.869696       186.9339 
 565   0.0000       6.869992       186.9420 
 566   0.0000       6.873690       187.0426 
 567   0.0000       6.874980       187.0777 
 568   0.0000       6.875830       187.1009 
 569   0.0000       6.876821       187.1278 
 570   0.0000       6.879729       187.2069 
 571   0.0000       6.880928       187.2396 
 572   0.0000       6.882182       187.2737 
 573   0.0000       6.883391       187.3066 
 574   0.0000       6.884150       187.3273 
 575   0.0000       6.885808       187.3724 
 576   0.0000       6.886766       187.3984 
 577   0.0000       6.887020       187.4053 
 578   0.0000       6.890985       187.5132 
 579   0.0000       6.893003       187.5681 
 580   0.0000       6.896565       187.6651 
 581   0.0000       6.897339       187.6861 
 582   0.0000       6.899056       187.7329 
 583   0.0000       6.901313       187.7943 
 584   0.0000       6.906280       187.9294 
 585   0.0000       6.907090       187.9515 
 586   0.0000       6.910945       188.0564 
 587   0.0000       6.913374       188.1225 
 588   0.0000       6.919312       188.2840 
 589   0.0000       6.926012       188.4664 
 590   0.0000       6.933548       188.6714 
 591   0.0000       6.962935       189.4711 
 592   0.0000       6.982811       190.0119 
 593   0.0000       6.988183       190.1581 
 594   0.0000       6.991440       190.2468 
 595   0.0000       6.995988       190.3705 
 596   0.0000       6.999360       190.4623 
 597   0.0000       7.002087       190.5365 
[...]
      dxy     :    -0.000073
      f0      :    -0.000031  f :    -0.000100
      f+1     :    -0.000017
      f-1     :    -0.000024
      f+2     :    -0.000017
      f-2     :    -0.000012
      f+3     :    -0.000001
      f-3     :     0.000001
  2 O s       :     0.000229  s :     0.000229
      pz      :     0.004721  p :     0.039299
      px      :     0.009814
      py      :     0.024764
      dz2     :    -0.000262  d :    -0.000921
      dxz     :    -0.000076
      dyz     :    -0.000123
      dx2y2   :    -0.000126
      dxy     :    -0.000333
      f0      :     0.000002  f :    -0.000098
      f+1     :    -0.000034
      f-1     :    -0.000002
      f+2     :    -0.000014
      f-2     :    -0.000020
      f+3     :    -0.000011
      f-3     :    -0.000019
  3 C s       :     0.026890  s :     0.026890
      pz      :     0.063848  p :     0.596511
      px      :     0.146743
      py      :     0.385920
      dz2     :     0.001941  d :     0.005101
      dxz     :     0.000874
      dyz     :     0.004192
      dx2y2   :    -0.000369
      dxy     :    -0.001538
      f0      :     0.000407  f :     0.000338
      f+1     :     0.000168
      f-1     :     0.000536
      f+2     :    -0.000074
      f-2     :     0.000218
      f+3     :    -0.000204
      f-3     :    -0.000712
  4 C s       :    -0.002034  s :    -0.002034
      pz      :     0.000387  p :    -0.000042
      px      :    -0.008656
      py      :     0.008227
      dz2     :     0.007129  d :     0.067759
      dxz     :     0.001477
      dyz     :     0.003487
      dx2y2   :     0.036587
      dxy     :     0.019080
      f0      :     0.000581  f :     0.007364
      f+1     :     0.000645
      f-1     :     0.000092
      f+2     :     0.000678
      f-2     :     0.001631
      f+3     :     0.003559
      f-3     :     0.000178
  5 C s       :     0.003300  s :     0.003300
      pz      :     0.001891  p :     0.018194
      px      :     0.007804
      py      :     0.008499
      dz2     :     0.000748  d :     0.006231
      dxz     :     0.000095
      dyz     :     0.000150
      dx2y2   :     0.005068
      dxy     :     0.000170
      f0      :     0.000000  f :    -0.000013
      f+1     :    -0.000019
      f-1     :    -0.000017
      f+2     :    -0.000013
      f-2     :     0.000034
      f+3     :     0.000046
      f-3     :    -0.000044
  6 C s       :     0.000534  s :     0.000534
      pz      :     0.000332  p :     0.004332
      px      :     0.002223
      py      :     0.001776
      dz2     :     0.000242  d :     0.002720
      dxz     :     0.000053
      dyz     :     0.000101
      dx2y2   :     0.001794
      dxy     :     0.000530
      f0      :     0.000018  f :     0.000168
      f+1     :     0.000006
      f-1     :    -0.000012
      f+2     :     0.000006
      f-2     :     0.000009
      f+3     :     0.000142
      f-3     :    -0.000002
  7 C s       :     0.000207  s :     0.000207
      pz      :     0.000072  p :     0.001453
      px      :     0.000483
      py      :     0.000898
      dz2     :     0.000053  d :     0.000846
      dxz     :     0.000015
      dyz     :     0.000002
      dx2y2   :     0.000786
      dxy     :    -0.000009
      f0      :     0.000004  f :     0.000058
      f+1     :     0.000001
      f-1     :     0.000001
      f+2     :     0.000010
      f-2     :    -0.000001
      f+3     :     0.000028
      f-3     :     0.000015
  8 C s       :     0.000062  s :     0.000062
      pz      :     0.000045  p :     0.000503
      px      :     0.000296
      py      :     0.000163
      dz2     :     0.000019  d :     0.000278
      dxz     :     0.000006
      dyz     :     0.000005
      dx2y2   :     0.000180
      dxy     :     0.000069
      f0      :    -0.000000  f :     0.000019
      f+1     :     0.000001
      f-1     :     0.000000
      f+2     :     0.000003
      f-2     :     0.000005
      f+3     :     0.000011
      f-3     :    -0.000000
  9 C s       :     0.000044  s :     0.000044
      pz      :     0.000031  p :     0.000149
      px      :     0.000044
      py      :     0.000073
      dz2     :     0.000002  d :     0.000045
      dxz     :     0.000004
      dyz     :     0.000003
      dx2y2   :     0.000030
      dxy     :     0.000006
      f0      :     0.000001  f :     0.000013
      f+1     :     0.000001
      f-1     :    -0.000000
      f+2     :     0.000001
      f-2     :     0.000004
      f+3     :     0.000005
      f-3     :     0.000001
 10 F s       :     0.002186  s :     0.002186
      pz      :    -0.000250  p :     0.084793
      px      :     0.022842
      py      :     0.062201
      dz2     :     0.002390  d :     0.009031
      dxz     :     0.001631
      dyz     :     0.004441
      dx2y2   :     0.000071
      dxy     :     0.000498
      f0      :     0.000168  f :     0.000436
      f+1     :     0.000049
      f-1     :     0.000152
      f+2     :     0.000009
      f-2     :     0.000055
      f+3     :     0.000002
      f-3     :     0.000001
 11 F s       :     0.000922  s :     0.000922
      pz      :     0.003080  p :     0.007320
      px      :     0.001192
      py      :     0.003047
      dz2     :    -0.000014  d :    -0.000043
      dxz     :     0.000003
      dyz     :     0.000094
      dx2y2   :    -0.000023
      dxy     :    -0.000104
      f0      :     0.000002  f :    -0.000005
      f+1     :    -0.000000
      f-1     :    -0.000002
      f+2     :    -0.000000
      f-2     :    -0.000000
      f+3     :    -0.000004
      f-3     :    -0.000001
 12 F s       :     0.001154  s :     0.001154
      pz      :     0.007688  p :     0.007508
      px      :     0.000563
      py      :    -0.000743
      dz2     :     0.000025  d :    -0.000098
      dxz     :    -0.000136
      dyz     :    -0.000047
      dx2y2   :     0.000068
      dxy     :    -0.000009
      f0      :     0.000001  f :    -0.000008
      f+1     :    -0.000007
      f-1     :    -0.000003
      f+2     :     0.000001
      f-2     :    -0.000001
      f+3     :     0.000000
      f-3     :     0.000000
 13 F s       :     0.000022  s :     0.000022
      pz      :     0.000639  p :     0.000633
      px      :    -0.000166
      py      :     0.000160
      dz2     :     0.000026  d :     0.000213
      dxz     :     0.000020
      dyz     :     0.000017
      dx2y2   :     0.000094
      dxy     :     0.000056
      f0      :     0.000000  f :     0.000013
      f+1     :     0.000001
      f-1     :     0.000002
      f+2     :     0.000002
      f-2     :     0.000004
      f+3     :     0.000002
      f-3     :     0.000003
 14 F s       :     0.000262  s :     0.000262
      pz      :     0.000184  p :     0.000305
      px      :     0.000074
      py      :     0.000046
      dz2     :     0.000016  d :     0.000227
      dxz     :     0.000008
      dyz     :     0.000029
      dx2y2   :     0.000166
      dxy     :     0.000008
      f0      :     0.000000  f :     0.000012
      f+1     :     0.000004
      f-1     :     0.000001
      f+2     :     0.000005
      f-2     :     0.000001
      f+3     :     0.000000
      f-3     :     0.000001
 15 F s       :     0.000007  s :     0.000007
      pz      :     0.000015  p :     0.000247
      px      :     0.000037
      py      :     0.000194
      dz2     :     0.000010  d :     0.000066
      dxz     :     0.000016
      dyz     :     0.000006
      dx2y2   :     0.000013
      dxy     :     0.000022
      f0      :     0.000001  f :     0.000003
      f+1     :     0.000001
      f-1     :     0.000000
      f+2     :     0.000000
      f-2     :     0.000001
      f+3     :     0.000001
      f-3     :    -0.000000
 16 F s       :     0.000062  s :     0.000062
      pz      :     0.000041  p :    -0.000203
      px      :    -0.000087
      py      :    -0.000157
      dz2     :     0.000001  d :     0.000032
      dxz     :     0.000009
      dyz     :     0.000003
      dx2y2   :     0.000015
      dxy     :     0.000003
      f0      :    -0.000000  f :     0.000002
      f+1     :     0.000000
      f-1     :     0.000000
      f+2     :     0.000000
      f-2     :     0.000001
      f+3     :     0.000000
      f-3     :     0.000000
 17 F s       :     0.000012  s :     0.000012
      pz      :     0.000006  p :    -0.000072
      px      :    -0.000030
      py      :    -0.000047
      dz2     :    -0.000000  d :     0.000010
      dxz     :     0.000005
      dyz     :     0.000001
      dx2y2   :     0.000006
      dxy     :    -0.000001
      f0      :    -0.000000  f :     0.000001
      f+1     :     0.000000
      f-1     :     0.000000
      f+2     :     0.000000
      f-2     :     0.000000
      f+3     :     0.000000
      f-3     :     0.000000
 18 F s       :     0.000002  s :     0.000002
      pz      :    -0.000047  p :     0.000089
      px      :     0.000030
      py      :     0.000106
      dz2     :     0.000003  d :     0.000023
      dxz     :     0.000008
      dyz     :     0.000008
      dx2y2   :     0.000004
      dxy     :     0.000000
      f0      :     0.000000  f :     0.000001
      f+1     :     0.000000
      f-1     :     0.000000
      f+2     :     0.000000
      f-2     :     0.000000
      f+3     :     0.000000
      f-3     :     0.000000
 19 F s       :     0.000004  s :     0.000004
      pz      :     0.000002  p :    -0.000026
      px      :    -0.000013
      py      :    -0.000015
      dz2     :     0.000000  d :     0.000004
      dxz     :     0.000001
      dyz     :     0.000001
      dx2y2   :     0.000001
      dxy     :     0.000001
      f0      :     0.000000  f :     0.000000
      f+1     :    -0.000000
      f-1     :     0.000000
      f+2     :     0.000000
      f-2     :     0.000000
      f+3     :     0.000000
      f-3     :     0.000000
 20 F s       :     0.000001  s :     0.000001
      pz      :    -0.000022  p :     0.000023
      px      :     0.000024
      py      :     0.000021
      dz2     :     0.000001  d :     0.000007
      dxz     :     0.000004
      dyz     :     0.000002
      dx2y2   :     0.000000
      dxy     :     0.000000
      f0      :     0.000000  f :     0.000000
      f+1     :     0.000000
      f-1     :     0.000000
      f+2     :    -0.000000
      f-2     :     0.000000
      f+3     :     0.000000
      f-3     :    -0.000000
 21 F s       :    -0.000001  s :    -0.000001
      pz      :     0.000002  p :    -0.000010
      px      :    -0.000002
      py      :    -0.000010
      dz2     :     0.000000  d :     0.000001
      dxz     :     0.000000
      dyz     :     0.000000
      dx2y2   :     0.000001
      dxy     :    -0.000000
      f0      :     0.000000  f :     0.000000
      f+1     :    -0.000000
      f-1     :     0.000000
      f+2     :     0.000000
      f-2     :     0.000000
      f+3     :     0.000000
      f-3     :     0.000000
 22 F s       :     0.000007  s :     0.000007
      pz      :    -0.000001  p :     0.000098
      px      :     0.000091
      py      :     0.000008
      dz2     :     0.000001  d :     0.000005
      dxz     :     0.000000
      dyz     :     0.000000
      dx2y2   :     0.000004
      dxy     :     0.000000
      f0      :     0.000000  f :     0.000000
      f+1     :     0.000000
      f-1     :     0.000000
      f+2     :     0.000000
      f-2     :     0.000000
      f+3     :     0.000000
      f-3     :     0.000000
 23 F s       :     0.000001  s :     0.000001
      pz      :    -0.000003  p :     0.000004
      px      :    -0.000003
      py      :     0.000009
      dz2     :     0.000000  d :     0.000002
      dxz     :     0.000000
      dyz     :     0.000001
      dx2y2   :    -0.000000
      dxy     :     0.000000
      f0      :     0.000000  f :     0.000000
      f+1     :     0.000000
      f-1     :     0.000000
      f+2     :    -0.000000
      f-2     :     0.000000
      f+3     :    -0.000000
      f-3     :    -0.000000


                      *****************************
                      * MAYER POPULATION ANALYSIS *
                      *****************************

  NA   - Mulliken gross atomic population
  ZA   - Total nuclear charge
  QA   - Mulliken gross atomic charge
  VA   - Mayer's total valence
  BVA  - Mayer's bonded valence
  FA   - Mayer's free valence

  ATOM       NA         ZA         QA         VA         BVA        FA
  0 C      5.7966     6.0000     0.2034     4.6427     4.6399     0.0028
  1 O      8.5006     8.0000    -0.5006     1.9521     1.9446     0.0075
  2 O      8.5102     8.0000    -0.5102     1.9499     1.9476     0.0023
  3 C      5.9379     6.0000     0.0621     3.6353     3.1040     0.5313
  4 C      5.6294     6.0000     0.3706     4.2179     4.2148     0.0030
  5 C      5.7494     6.0000     0.2506     4.2067     4.2052     0.0015
  6 C      5.7006     6.0000     0.2994     4.2201     4.2200     0.0001
  7 C      5.7279     6.0000     0.2721     4.2202     4.2202     0.0000
  8 C      5.7047     6.0000     0.2953     4.2478     4.2478     0.0000
  9 C      5.5927     6.0000     0.4073     4.5738     4.5738     0.0000
 10 F      9.1777     9.0000    -0.1777     1.1257     1.1170     0.0087
 11 F      9.1849     9.0000    -0.1849     1.1160     1.1159     0.0001
 12 F      9.1655     9.0000    -0.1655     1.1406     1.1405     0.0001
 13 F      9.1544     9.0000    -0.1544     1.1731     1.1731     0.0000
 14 F      9.1660     9.0000    -0.1660     1.1537     1.1537     0.0000
 15 F      9.1537     9.0000    -0.1537     1.1702     1.1702     0.0000
 16 F      9.1525     9.0000    -0.1525     1.1736     1.1736     0.0000
 17 F      9.1507     9.0000    -0.1507     1.1781     1.1781     0.0000
 18 F      9.1501     9.0000    -0.1501     1.1769     1.1769     0.0000
 19 F      9.1477     9.0000    -0.1477     1.1794     1.1794     0.0000
 20 F      9.1445     9.0000    -0.1445     1.1808     1.1808     0.0000
 21 F      9.1358     9.0000    -0.1358     1.1891     1.1891     0.0000
 22 F      9.1332     9.0000    -0.1332     1.1911     1.1911     0.0000
 23 F      9.1333     9.0000    -0.1333     1.1921     1.1921     0.0000

  Mayer bond orders larger than 0.100000
B(  0-C ,  1-O ) :   1.8083 B(  0-C ,  2-O ) :   1.8303 B(  0-C ,  3-C ) :   0.9647 
B(  3-C ,  4-C ) :   0.9863 B(  3-C , 10-F ) :   1.0521 B(  4-C ,  5-C ) :   0.9382 
B(  4-C , 11-F ) :   1.0487 B(  4-C , 12-F ) :   1.1044 B(  5-C ,  6-C ) :   0.9407 
B(  5-C , 13-F ) :   1.1048 B(  5-C , 14-F ) :   1.0775 B(  6-C ,  7-C ) :   0.9427 
B(  6-C , 15-F ) :   1.0890 B(  6-C , 16-F ) :   1.0950 B(  7-C ,  8-C ) :   0.9413 
B(  7-C , 17-F ) :   1.0947 B(  7-C , 18-F ) :   1.1013 B(  8-C ,  9-C ) :   0.9712 
B(  8-C , 19-F ) :   1.1000 B(  8-C , 20-F ) :   1.1114 B(  9-C , 21-F ) :   1.1607 
B(  9-C , 22-F ) :   1.1615 B(  9-C , 23-F ) :   1.1713 

-------
TIMINGS
-------

Total SCF time: 0 days 0 hours 1 min 2 sec 

Total time                  ....      62.383 sec
Sum of individual times     ....      60.017 sec  ( 96.2%)

Fock matrix formation       ....      53.134 sec  ( 85.2%)
  Split-RI-J                ....       3.034 sec  (  5.7% of F)
  Chain of spheres X        ....      36.549 sec  ( 68.8% of F)
  XC integration            ....       9.271 sec  ( 17.4% of F)
    Basis function eval.    ....       0.535 sec  (  5.8% of XC)
    Density eval.           ....       3.218 sec  ( 34.7% of XC)
    XC-Functional eval.     ....       0.309 sec  (  3.3% of XC)
    XC-Potential eval.      ....       2.400 sec  ( 25.9% of XC)
Diagonalization             ....       2.891 sec  (  4.6%)
Density matrix formation    ....       0.140 sec  (  0.2%)
Population analysis         ....       0.273 sec  (  0.4%)
Initial guess               ....       0.454 sec  (  0.7%)
Orbital Transformation      ....       0.000 sec  (  0.0%)
Orbital Orthonormalization  ....       0.389 sec  (  0.6%)
DIIS solution               ....       1.073 sec  (  1.7%)
Grid generation             ....       2.052 sec  (  3.3%)

Maximum memory used throughout the entire SCF-calculation: 160.9 MB


-------------------------------------------------------------------------------
                          DFT DISPERSION CORRECTION                            
                                                                               
                              DFTD3 V3.1  Rev 1                                
                          USING Becke-Johnson damping                          
-------------------------------------------------------------------------------
The TPSSH functional is recognized
Active option DFTDOPT                   ...         4   

molecular C6(AA) [au] = 6303.127278 


            DFT-D V3
 parameters
 s6 scaling factor         :     1.0000 
 a1 scaling factor         :     0.4529 
 s8 scaling factor         :     2.2382 
 a2 scaling factor         :     4.6550 
 ad hoc parameters k1-k3   :    16.0000     1.3333    -4.0000 

 Edisp/kcal,au: -18.359701093561  -0.029258042936 
 E6   /kcal   :  -8.878510401 
 E8   /kcal   :  -9.481190692 
 % E8         :  51.641312917 

-------------------------   ----------------
Dispersion correction           -0.029258043
-------------------------   ----------------


-------------------------   --------------------
FINAL SINGLE POINT ENERGY     -1853.953861433915
-------------------------   --------------------

                                *** OPTIMIZATION RUN DONE ***

                            ***************************************
                            *     ORCA property calculations      *
                            ***************************************

                                    ---------------------
                                    Active property flags
                                    ---------------------
   (+) Dipole Moment


------------------------------------------------------------------------------
                       ORCA ELECTRIC PROPERTIES CALCULATION
------------------------------------------------------------------------------

Dipole Moment Calculation                       ... on
Quadrupole Moment Calculation                   ... off
Polarizability Calculation                      ... off
GBWName                                         ... rf_mecn_opt_TPS_C2_D_B.gbw
Electron density                                ... rf_mecn_opt_TPS_C2_D_B.scfp
The origin for moment calculation is the CENTER OF MASS  = (-0.395070,  0.136709 -0.034323)

-------------
DIPOLE MOMENT
-------------
                                X             Y             Z
Electronic contribution:    -18.56340       3.15759       1.75868
Nuclear contribution   :     10.12663      -1.67133      -0.96597
                        -----------------------------------------
Total Dipole Moment    :     -8.43677       1.48626       0.79271
                        -----------------------------------------
Magnitude (a.u.)       :      8.60328
Magnitude (Debye)      :     21.86781



--------------------
Rotational spectrum 
--------------------
 
Rotational constants in cm-1:     0.020847     0.004164     0.004047 
Rotational constants in MHz :   624.982353   124.845925   121.337201 

 Dipole components along the rotational axes: 
x,y,z [a.u.] :    -8.375462     1.965089    -0.080948 
x,y,z [Debye]:   -21.288731     4.994860    -0.205753 

 

Timings for individual modules:

Sum of individual times         ...     6955.529 sec (= 115.925 min)
GTO integral calculation        ...       65.755 sec (=   1.096 min)   0.9 %
SCF iterations                  ...     5646.836 sec (=  94.114 min)  81.2 %
SCF Gradient evaluation         ...     1239.568 sec (=  20.659 min)  17.8 %
Geometry relaxation             ...        3.370 sec (=   0.056 min)   0.0 %
                             ****ORCA TERMINATED NORMALLY****
TOTAL RUN TIME: 0 days 1 hours 56 minutes 25 seconds 383 msec
