
                                 *****************
                                 * O   R   C   A *
                                 *****************

                                            #,                                       
                                            ###                                      
                                            ####                                     
                                            #####                                    
                                            ######                                   
                                           ########,                                 
                                     ,,################,,,,,                         
                               ,,#################################,,                 
                          ,,##########################################,,             
                       ,#########################################, ''#####,          
                    ,#############################################,,   '####,        
                  ,##################################################,,,,####,       
                ,###########''''           ''''###############################       
              ,#####''   ,,,,##########,,,,          '''####'''          '####       
            ,##' ,,,,###########################,,,                        '##       
           ' ,,###''''                  '''############,,,                           
         ,,##''                                '''############,,,,        ,,,,,,###''
      ,#''                                            '''#######################'''  
     '                                                          ''''####''''         
             ,#######,   #######,   ,#######,      ##                                
            ,#'     '#,  ##    ##  ,#'     '#,    #''#        ,####,   ,####,        
            ##       ##  ##   ,#'  ##            #'  '#       #'       #'  '#        
            ##       ##  #######   ##           ,######,      #####,   #    #        
            '#,     ,#'  ##    ##  '#,     ,#' ,#      #,     #,   #   #,  ,#        
             '#######'   ##     ##  '#######'  #'      '#     '####' # '####'        



                #########################################################
                #                        -***-                          #
                #          Department of theory and spectroscopy        #
                #                                                       #
                #                      Frank Neese                      #
                #                                                       #
                #     Directorship, Architecture, Infrastructure        #
                #                    SHARK, DRIVERS                     #
                #        Core code/Algorithms in most modules           #
                #                                                       #
                #        Max Planck Institute fuer Kohlenforschung      #
                #                Kaiser Wilhelm Platz 1                 #
                #                 D-45470 Muelheim/Ruhr                 #
                #                      Germany                          #
                #                                                       #
                #                  All rights reserved                  #
                #                        -***-                          #
                #########################################################


                         Program Version 6.0.1  -  RELEASE   -


 With contributions from (in alphabetic order):
[Max-Planck-Institut fuer Kohlenforschung]                               
  Daniel Aravena         : Magnetic Suceptibility                        
  Michael Atanasov       : Ab Initio Ligand Field Theory (pilot matlab implementation)
  Alexander A. Auer      : GIAO ZORA, VPT2 properties, NMR spectrum      
  Ute Becker             : All parallelization in ORCA, NUMFREQ, NUMCALC 
  Giovanni Bistoni       : ED, misc. LED, open-shell LED, HFLD           
  Martin Brehm           : Molecular dynamics                            
  Dmytro Bykov           : pre 5.0 version of the SCF Hessian            
  Marcos Casanova-Páez   : Triplet and SCS-CIS(D). UHF-(DLPNO)-IP/EA/STEOM-CCSD. UHF-CVS-IP/STEOM-CCSD   
  Vijay G. Chilkuri      : MRCI spin determinant printing, contributions to CSF-ICE 
  Pauline Colinet        : FMM embedding                                 
  Dipayan Datta          : RHF DLPNO-CCSD density                        
  Achintya Kumar Dutta   : EOM-CC, STEOM-CC                              
  Nicolas Foglia         : Exact transition moments, OPA infrastructure, MCD improvements    
  Dmitry Ganyushin       : Spin-Orbit,Spin-Spin,Magnetic field MRCI      
  Miquel Garcia-Rates    : C-PCM and meta-GGA Hessian, CCSD/C-PCM, Gaussian charge scheme 
  Tiago L. C. Gouveia    : GS-ROHF, GS-ROCIS                             
  Yang Guo               : DLPNO-NEVPT2, F12-NEVPT2, CIM, IAO-localization        
  Andreas Hansen         : Spin unrestricted coupled pair/coupled cluster methods 
  Ingolf Harden          : AUTO-CI MPn and infrastructure                
  Benjamin Helmich-Paris : MC-RPA, TRAH-(SCF,CASSCF), AVAS, COSX integrals, SCF dyn. polar. 
  Lee Huntington         : MR-EOM, pCC                                   
  Robert Izsak           : Overlap fitted RIJCOSX, COSX-SCS-MP3, EOM     
  Riya Kayal             : Wick's Theorem for AUTO-CI, AUTO-CI UHF-CCSDT 
  Emily Kempfer          : AUTO-CI, RHF CISDT and CCSDT                  
  Christian Kollmar      : KDIIS, OOCD, Brueckner-CCSD(T), CCSD density, CASPT2, CASPT2-K, improved NEVPT2 
  Axel Koslowski         : Symmetry handling                             
  Simone Kossmann        : meta-GGA functionals, TD-DFT gradient, OOMP2, (MP2 Hessian; deprecated post 5.0) 
  Lucas Lang             : DCDCAS                                        
  Marvin Lechner         : AUTO-CI (C++ implementation), FIC-MRCC        
  Spencer Leger          : CASSCF response                               
  Dagmar Lenk            : GEPOL surface, SMD, ORCA-2-JSON               
  Dimitrios Liakos       : Extrapolation schemes; Compound Job, initial MDCI parallelization 
  Dimitrios Manganas     : Further ROCIS development; embedding schemes. LFT, Crystal Embedding 
  Dimitrios Pantazis     : SARC Basis sets                               
  Anastasios Papadopoulos: AUTO-CI, single reference methods and gradients 
  Taras Petrenko         : pre 6.0 DFT Hessian and TD-DFT gradient, (ASA, deprecated), ECA, 1-Electron XAS/XES, NRVS 
  Peter Pinski           : DLPNO-MP2, DLPNO-MP2 Gradient                 
  Christoph Reimann      : Effective Core Potentials                     
  Marius Retegan         : Local ZFS, SOC                                
  Christoph Riplinger    : Optimizer, TS searches, QM/MM, DLPNO-CCSD(T), (RO)-DLPNO pert. Triples 
  Michael Roemelt        : Original ROCIS implementation                 
  Masaaki Saitow         : Open-shell DLPNO-CCSD energy and density      
  Barbara Sandhoefer     : DKH picture change effects                    
  Kantharuban Sivalingam : CASSCF convergence/infrastructure, NEVPT2 and variants, FIC-MRCI 
  Bernardo de Souza      : ESD, SOC TD-DFT                               
  Georgi L. Stoychev     : AutoAux, RI-MP2 NMR, DLPNO-MP2 response, X2C  
  Van Anh Tran           : RI-MP2 g-tensors                              
  Willem Van den Heuvel  : Paramagnetic NMR                              
  Zikuan Wang            : NOTCH, Electric field optimization            
  Frank Wennmohs         : Technical directorship and infrastructure     
  Hang Xu                : AUTO-CI-Response properties                   
                                                                         
[FACCTs GmbH]                                                            
  Markus Bursch, Miquel Garcia-Rates, Christoph Riplinger, Bernardo de Souza, Georgi L. Stoychev 
                                                                 
  APM, Basis sets (HGBS, AHGBS, def-TZVP (Ac-Lr), def2-XVPD (La-Lu)), CI-OPT, improved COSX, DLPNO-Multilevel,           
  DOCKER, DRACO, updates on ESD, GOAT, IRC, LR-CPCM, MBIS, meta-GGA TD-DFT gradient, ML-optimized integration grids, 
  MM, NACMEs, nearIR, NEB, NEB-TS, NL-DFT gradient (VV10), 2- and 3-layer-ONIOM, interface openCOSMO-RS, QMMM,   
  Crystal-QMMM, SF, symmetry and pop. for TD-DFT, r2SCAN hybrids, SOLVATOR                                   
                                                                         
[Other institutions]                                                     
  V. Asgeirsson          : NEB                                           
  Christoph Bannwarth    : sTDA-DFT, sTD-DFT, PBEh-3c, B97-3c, D3        
  Sebastian Ehlert       : rSCAN, r2SCAN, r2SCAN-3c, D4, dhf basis sets  
  Marvin Friede          : D4 for Fr, Ra, Ac-Lr                          
  Lars Goerigk           : TD-DFT with DH, B97 family of functionals     
  Stefan Grimme          : VdW corrections, initial TS optimization, DFT functionals, gCP, sTDA/sTD-DF 
  Waldemar Hujo          : DFT-NL                                        
  H. Jonsson             : NEB                                           
  Holger Kruse           : gCP                                           
  Marcel Mueller         : wB97X-3c, vDZP basis set                      
  Hagen Neugebauer       : wr2SCAN                                       
  Tobias Risthaus        : range-separated hybrid DFT                    
  Lukas Wittmann         : regularized MP2, r2SCAN double-hybrids, wr2SCAN        
                                                                         
We gratefully acknowledge several colleagues who have allowed us to      
interface, adapt or use parts of their codes:                            
  Ed Valeev, F. Pavosevic, A. Kumar             : LibInt (2-el integral package), F12 methods 
  Garnet Chan, S. Sharma, J. Yang, R. Olivares  : DMRG                   
  Ulf Ekstrom                                   : XCFun DFT Library      
  Mihaly Kallay                                 : mrcc  (arbitrary order and MRCC methods)
  Frank Weinhold                                : gennbo (NPA and NBO analysis)           
  Simon Mueller                                 : openCOSMO-RS                            
  Christopher J. Cramer and Donald G. Truhlar   : smd solvation model                     
  S Lehtola, MJT Oliveira, MAL Marques          : LibXC Library                           
  Liviu Ungur et al                             : ANISO software                          


 Your calculation uses the libint2 library for the computation of 2-el integrals
 For citations please refer to: http://libint.valeyev.net

 Your ORCA version has been built with support for libXC version: 6.2.2
 For citations please refer to: https://libxc.gitlab.io

 This ORCA versions uses:
   CBLAS   interface :  Fast vector & matrix operations
   LAPACKE interface :  Fast linear algebra routines
   SCALAPACK package :  Parallel linear algebra routines
   Shared memory     :  Shared parallel matrices
   BLAS/LAPACK       :  OpenBLAS 0.3.27  USE64BITINT DYNAMIC_ARCH NO_AFFINITY SkylakeX SINGLE_THREADED
        Core in use  :  SkylakeX
   Copyright (c) 2011-2014, The OpenBLAS Project


NOTE: MaxCore=8000 MB was set to SCF,MP2,MDCI,CIPSI,MRCI and CIS
      => If you want to overwrite this, your respective input block should be placed after the MaxCore statement
Your calculation utilizes the atom-pairwise dispersion correction
with the Becke-Johnson damping scheme (D3BJ)


Your calculation utilizes the SMD solvation module
Please cite in your paper:
A.V. Marenich, C.J. Cramer, D.G. Truhlar J. Phys. Chem. B, 113, (2009), 6378 

Warning: RI is on but no J-basis has been assigned. Assigning Def2/J (nothing to worry about!)
================================================================================

----- Orbital basis set information -----
Your calculation utilizes the basis: def2-TZVP
   F. Weigend and R. Ahlrichs, Phys. Chem. Chem. Phys. 7, 3297 (2005).

----- AuxJ basis set information -----
Your calculation utilizes the auxiliary basis: def2/J
   F. Weigend, Phys. Chem. Chem. Phys. 8, 1057 (2006).

================================================================================
                                        WARNINGS
                       Please study these warnings very carefully!
================================================================================


WARNING: your system is open-shell and RHF/RKS was chosen
  ===> : WILL SWITCH to UHF/UKS


================================================================================
                                       INPUT FILE
================================================================================
NAME = rf_mecn_2H2O_freq_TP_con_02.inp
|  1> !TPSSh def2-TZVP freq d3 TightSCF SlowConv defgrid2
|  2>  
|  3> %pal
|  4> nprocs 20
|  5> end
|  6>  
|  7> %scf
|  8> MaxIter 1500
|  9> end
| 10>  
| 11> %maxcore 8000
| 12>  
| 13> !CPCM
| 14> %cpcm smd true
| 15> SMDsolvent "ACETONITRILE"
| 16> end
| 17>  
| 18> * xyz -1 2
| 19> 6        6.915873000     27.157447000      1.747140000
| 20> 6        6.261927000     25.777691000      2.080460000
| 21> 6        7.286888000     24.619345000      2.311808000
| 22> 6        6.688821000     23.375671000      3.063913000
| 23> 6        7.510415000     22.136307000      2.907520000
| 24> 6        7.103428000     20.792764000      2.370231000
| 25> 6        7.188780000     20.641721000      0.824563000
| 26> 6        6.779803000     19.218289000      0.292909000
| 27> 9        7.842922000     27.027516000      0.792118000
| 28> 9        7.483245000     27.688657000      2.832711000
| 29> 9        5.967571000     27.993158000      1.312130000
| 30> 9        5.505061000     25.947366000      3.186715000
| 31> 9        5.455854000     25.443411000      1.052267000
| 32> 9        7.742076000     24.214061000      1.104980000
| 33> 9        8.335390000     25.092873000      3.022444000
| 34> 9        6.603259000     23.714665000      4.386708000
| 35> 9        5.432639000     23.159995000      2.609420000
| 36> 9        8.808168000     22.292069000      3.148746000
| 37> 9        7.929189000     19.861297000      2.926167000
| 38> 9        5.830729000     20.512374000      2.758790000
| 39> 9        6.397026000     21.615456000      0.285626000
| 40> 9        8.476180000     20.950124000      0.475444000
| 41> 8        7.702719000     18.383405000      0.253512000
| 42> 8        5.580532000     19.093771000     -0.015942000
| 43> 8        3.301326000     20.654196000      0.238905000
| 44> 1        2.712446000     19.995842000      0.630845000
| 45> 1        4.160409000     20.183459000      0.147764000
| 46> 1        9.382184000     18.469104000      0.838715000
| 47> 8       10.316612000     18.431095000      1.147282000
| 48> 1       10.447942000     19.275008000      1.598798000
| 49> *
| 50> 
| 51>                          ****END OF INPUT****
================================================================================

                       ****************************
                       * Single Point Calculation *
                       ****************************

---------------------------------
CARTESIAN COORDINATES (ANGSTROEM)
---------------------------------
  C      6.915873   27.157447    1.747140
  C      6.261927   25.777691    2.080460
  C      7.286888   24.619345    2.311808
  C      6.688821   23.375671    3.063913
  C      7.510415   22.136307    2.907520
  C      7.103428   20.792764    2.370231
  C      7.188780   20.641721    0.824563
  C      6.779803   19.218289    0.292909
  F      7.842922   27.027516    0.792118
  F      7.483245   27.688657    2.832711
  F      5.967571   27.993158    1.312130
  F      5.505061   25.947366    3.186715
  F      5.455854   25.443411    1.052267
  F      7.742076   24.214061    1.104980
  F      8.335390   25.092873    3.022444
  F      6.603259   23.714665    4.386708
  F      5.432639   23.159995    2.609420
  F      8.808168   22.292069    3.148746
  F      7.929189   19.861297    2.926167
  F      5.830729   20.512374    2.758790
  F      6.397026   21.615456    0.285626
  F      8.476180   20.950124    0.475444
  O      7.702719   18.383405    0.253512
  O      5.580532   19.093771   -0.015942
  O      3.301326   20.654196    0.238905
  H      2.712446   19.995842    0.630845
  H      4.160409   20.183459    0.147764
  H      9.382184   18.469104    0.838715
  O     10.316612   18.431095    1.147282
  H     10.447942   19.275008    1.598798

----------------------------
CARTESIAN COORDINATES (A.U.)
----------------------------
  NO LB      ZA    FRAG     MASS         X           Y           Z
   0 C     6.0000    0    12.011   13.069106   51.320137    3.301616
   1 C     6.0000    0    12.011   11.833327   48.712776    3.931500
   2 C     6.0000    0    12.011   13.770223   46.523820    4.368684
   3 C     6.0000    0    12.011   12.640040   44.173616    5.789956
   4 C     6.0000    0    12.011   14.192628   41.831558    5.494417
   5 C     6.0000    0    12.011   13.423534   39.292630    4.479087
   6 C     6.0000    0    12.011   13.584825   39.007200    1.558198
   7 C     6.0000    0    12.011   12.811971   36.317303    0.553518
   8 F     9.0000    0    18.998   14.820975   51.074603    1.496886
   9 F     9.0000    0    18.998   14.141284   52.323979    5.353048
  10 F     9.0000    0    18.998   11.277075   52.899402    2.479566
  11 F     9.0000    0    18.998   10.403058   49.033416    6.022019
  12 F     9.0000    0    18.998   10.310070   48.081079    1.988496
  13 F     9.0000    0    18.998   14.630403   45.757944    2.088110
  14 F     9.0000    0    18.998   15.751604   47.418658    5.711591
  15 F     9.0000    0    18.998   12.478351   44.814222    8.289677
  16 F     9.0000    0    18.998   10.266200   43.766048    4.931089
  17 F     9.0000    0    18.998   16.645025   42.125905    5.950268
  18 F     9.0000    0    18.998   14.983996   37.532412    5.529654
  19 F     9.0000    0    18.998   11.018481   38.762769    5.213358
  20 F     9.0000    0    18.998   12.088627   40.847292    0.539755
  21 F     9.0000    0    18.998   16.017659   39.589997    0.898459
  22 O     8.0000    0    15.999   14.556029   34.739601    0.479068
  23 O     8.0000    0    15.999   10.545677   36.081998   -0.030126
  24 O     8.0000    0    15.999    6.238602   39.030774    0.451465
  25 H     1.0000    0     1.008    5.125780   37.786665    1.192124
  26 H     1.0000    0     1.008    7.862034   38.141210    0.279233
  27 H     1.0000    0     1.008   17.729758   34.901548    1.584942
  28 O     8.0000    0    15.999   19.495571   34.829722    2.168049
  29 H     1.0000    0     1.008   19.743749   36.424486    3.021290

--------------------------------
INTERNAL COORDINATES (ANGSTROEM)
--------------------------------
 C      0   0   0     0.000000000000     0.00000000     0.00000000
 C      1   0   0     1.562841710747     0.00000000     0.00000000
 C      2   1   0     1.563915728018   114.28134531     0.00000000
 C      3   2   1     1.571645979790   114.04799441   162.14740211
 C      4   3   2     1.495158384848   113.37690825   161.93617232
 C      5   4   3     1.503138609889   129.01428044   236.89827891
 C      6   5   4     1.555374076541   115.28720006    85.56687280
 C      7   6   5     1.573555471176   114.16355352   179.03825187
 F      1   2   3     1.337299118988   110.89169896    48.23036496
 F      1   2   3     1.335125254995   110.83424958   287.08932921
 F      1   2   3     1.336758489341   108.93557377   167.78152351
 F      2   1   3     1.351086922669   107.34715137   122.04433440
 F      2   1   3     1.348583569890   107.83841802   239.00092113
 F      3   2   1     1.351992994650   108.09762227   282.96188338
 F      3   2   1     1.352253206794   109.05885955    40.43333135
 F      4   3   2     1.368219426812   106.88165359   283.21816077
 F      4   3   2     1.353171549047   108.58158960    39.29417865
 F      5   4   3     1.329140561690   114.85995557    49.19714107
 F      6   5   4     1.363296313098   107.51408248   205.80280640
 F      6   5   4     1.359911538734   109.60627860   322.99015362
 F      7   6   5     1.365828443367   106.92265903   302.40519884
 F      7   6   5     1.369085551224   106.44748698    55.93441405
 O      8   7   6     1.245133470806   115.12475541   272.53739990
 O      8   7   6     1.244646377075   115.13605566    92.05086593
 O     24   8   7     2.773923784906   135.44885990   352.08116535
 H     25  24   8     0.966347042897    98.90084442   230.11759066
 H     25  24   8     0.983831086081     5.65220090    27.38392803
 H     23   8   7     1.780564392555   131.03054591     6.60076166
 O     28  23   8     0.984791330564   174.94195611   169.39496842
 H     29  28  23     0.966076300675   103.98787001   193.75057916

---------------------------
INTERNAL COORDINATES (A.U.)
---------------------------
 C      0   0   0     0.000000000000     0.00000000     0.00000000
 C      1   0   0     2.953342823982     0.00000000     0.00000000
 C      2   1   0     2.955372422485   114.28134531     0.00000000
 C      3   2   1     2.969980481281   114.04799441   162.14740211
 C      4   3   2     2.825439874199   113.37690825   161.93617232
 C      5   4   3     2.840520314013   129.01428044   236.89827891
 C      6   5   4     2.939231040464   115.28720006    85.56687280
 C      7   6   5     2.973588897057   114.16355352   179.03825187
 F      1   2   3     2.527129094021   110.89169896    48.23036496
 F      1   2   3     2.523021086422   110.83424958   287.08932921
 F      1   2   3     2.526107452049   108.93557377   167.78152351
 F      2   1   3     2.553184266966   107.34715137   122.04433440
 F      2   1   3     2.548453615798   107.83841802   239.00092113
 F      3   2   1     2.554896494869   108.09762227   282.96188338
 F      3   2   1     2.555388224557   109.05885955    40.43333135
 F      4   3   2     2.585560007785   106.88165359   283.21816077
 F      4   3   2     2.557123639912   108.58158960    39.29417865
 F      5   4   3     2.511711655080   114.85995557    49.19714107
 F      6   5   4     2.576256671139   107.51408248   205.80280640
 F      6   5   4     2.569860374567   109.60627860   322.99015362
 F      7   6   5     2.581041703883   106.92265903   302.40519884
 F      7   6   5     2.587196745722   106.44748698    55.93441405
 O      8   7   6     2.352961260002   115.12475541   272.53739990
 O      8   7   6     2.352040786249   115.13605566    92.05086593
 O     24   8   7     5.241956269844   135.44885990   352.08116535
 H     25  24   8     1.826131261400    98.90084442   230.11759066
 H     25  24   8     1.859171314731     5.65220090    27.38392803
 H     23   8   7     3.364779065741   131.03054591     6.60076166
 O     28  23   8     1.860985913826   174.94195611   169.39496842
 H     29  28  23     1.825619632747   103.98787001   193.75057916

---------------------
BASIS SET INFORMATION
---------------------
There are 4 groups of distinct atoms

 Group   1 Type C   : 11s6p2d1f contracted to 5s3p2d1f pattern {62111/411/11/1}
 Group   2 Type F   : 11s6p2d1f contracted to 5s3p2d1f pattern {62111/411/11/1}
 Group   3 Type O   : 11s6p2d1f contracted to 5s3p2d1f pattern {62111/411/11/1}
 Group   4 Type H   : 5s1p contracted to 3s1p pattern {311/1}

Atom   0C    basis set group =>   1
Atom   1C    basis set group =>   1
Atom   2C    basis set group =>   1
Atom   3C    basis set group =>   1
Atom   4C    basis set group =>   1
Atom   5C    basis set group =>   1
Atom   6C    basis set group =>   1
Atom   7C    basis set group =>   1
Atom   8F    basis set group =>   2
Atom   9F    basis set group =>   2
Atom  10F    basis set group =>   2
Atom  11F    basis set group =>   2
Atom  12F    basis set group =>   2
Atom  13F    basis set group =>   2
Atom  14F    basis set group =>   2
Atom  15F    basis set group =>   2
Atom  16F    basis set group =>   2
Atom  17F    basis set group =>   2
Atom  18F    basis set group =>   2
Atom  19F    basis set group =>   2
Atom  20F    basis set group =>   2
Atom  21F    basis set group =>   2
Atom  22O    basis set group =>   3
Atom  23O    basis set group =>   3
Atom  24O    basis set group =>   3
Atom  25H    basis set group =>   4
Atom  26H    basis set group =>   4
Atom  27H    basis set group =>   4
Atom  28O    basis set group =>   3
Atom  29H    basis set group =>   4
---------------------------------
AUXILIARY/J BASIS SET INFORMATION
---------------------------------
There are 4 groups of distinct atoms

 Group   1 Type C   : 12s5p4d2f1g contracted to 6s4p3d1f1g pattern {711111/2111/211/2/1}
 Group   2 Type F   : 12s5p4d2f1g contracted to 6s4p3d1f1g pattern {711111/2111/211/2/1}
 Group   3 Type O   : 12s5p4d2f1g contracted to 6s4p3d1f1g pattern {711111/2111/211/2/1}
 Group   4 Type H   : 5s2p1d contracted to 3s1p1d pattern {311/2/1}

Atom   0C    basis set group =>   1
Atom   1C    basis set group =>   1
Atom   2C    basis set group =>   1
Atom   3C    basis set group =>   1
Atom   4C    basis set group =>   1
Atom   5C    basis set group =>   1
Atom   6C    basis set group =>   1
Atom   7C    basis set group =>   1
Atom   8F    basis set group =>   2
Atom   9F    basis set group =>   2
Atom  10F    basis set group =>   2
Atom  11F    basis set group =>   2
Atom  12F    basis set group =>   2
Atom  13F    basis set group =>   2
Atom  14F    basis set group =>   2
Atom  15F    basis set group =>   2
Atom  16F    basis set group =>   2
Atom  17F    basis set group =>   2
Atom  18F    basis set group =>   2
Atom  19F    basis set group =>   2
Atom  20F    basis set group =>   2
Atom  21F    basis set group =>   2
Atom  22O    basis set group =>   3
Atom  23O    basis set group =>   3
Atom  24O    basis set group =>   3
Atom  25H    basis set group =>   4
Atom  26H    basis set group =>   4
Atom  27H    basis set group =>   4
Atom  28O    basis set group =>   3
Atom  29H    basis set group =>   4


           ************************************************************
           *        Program running with 20 parallel MPI-processes    *
           *              working on a common directory               *
           ************************************************************
------------------------------------------------------------------------------
                             ORCA STARTUP CALCULATIONS
                           -- RI-GTO INTEGRALS CHOSEN --
------------------------------------------------------------------------------
------------------------------------------------------------------------------
                   ___                                                        
                  /   \      - P O W E R E D   B Y -                         
                 /     \                                                     
                 |  |  |   _    _      __       _____    __    __             
                 |  |  |  | |  | |    /  \     |  _  \  |  |  /  |          
                  \  \/   | |  | |   /    \    | | | |  |  | /  /          
                 / \  \   | |__| |  /  /\  \   | |_| |  |  |/  /          
                |  |  |   |  __  | /  /__\  \  |    /   |      \           
                |  |  |   | |  | | |   __   |  |    \   |  |\   \          
                \     /   | |  | | |  |  |  |  | |\  \  |  | \   \       
                 \___/    |_|  |_| |__|  |__|  |_| \__\ |__|  \__/        
                                                                              
                      - O R C A' S   B I G   F R I E N D -                    
                                      &                                       
                       - I N T E G R A L  F E E D E R -                       
                                                                              
 v1 FN, 2020, v2 2021, v3 2022-2024                                           
------------------------------------------------------------------------------


----------------------
SHARK INTEGRAL PACKAGE
----------------------

Number of atoms                             ...     30
Number of basis functions                   ...    830
Number of shells                            ...    302
Maximum angular momentum                    ...      3
Integral batch strategy                     ... SHARK/LIBINT Hybrid
RI-J (if used) integral strategy            ... SPLIT-RIJ (Revised 2003 algorithm where possible)
Printlevel                                  ...      1
Contraction scheme used                     ... SEGMENTED contraction
Prescreening option                         ... SCHWARTZ
   Thresh                                   ... 2.500e-11
   Tcut                                     ... 2.500e-12
   Tpresel                                  ... 2.500e-12 
Coulomb Range Separation                    ... NOT USED
Exchange Range Separation                   ... NOT USED
Multipole approximations                    ... NOT USED
Finite Nucleus Model                        ... NOT USED
CABS basis                                  ... NOT available
Auxiliary Coulomb fitting basis             ... AVAILABLE
   # of basis functions in Aux-J            ...   1318
   # of shells in Aux-J                     ...    410
   Maximum angular momentum in Aux-J        ...      4
Auxiliary J/K fitting basis                 ... NOT available
Auxiliary Correlation fitting basis         ... NOT available
Auxiliary 'external' fitting basis          ... NOT available

Checking pre-screening integrals            ... done (  0.0 sec) Dimension = 302
Check shell pair data                       ... done (  0.0 sec)
Shell pair information
Shell pair cut-off parameter TPreSel        ...   2.5e-12
Total number of shell pairs                 ...     45753
Shell pairs after pre-screening             ...     27393
Total number of primitive shell pairs       ...    148824
Primitive shell pairs kept                  ...     56572
          la=0 lb=0:   5592 shell pairs
          la=1 lb=0:   7653 shell pairs
          la=1 lb=1:   2558 shell pairs
          la=2 lb=0:   3998 shell pairs
          la=2 lb=1:   2801 shell pairs
          la=2 lb=2:    759 shell pairs
          la=3 lb=0:   1826 shell pairs
          la=3 lb=1:   1353 shell pairs
          la=3 lb=2:    684 shell pairs
          la=3 lb=3:    169 shell pairs

Calculating one electron integrals          ... done (  0.0 sec)
Calculating RI/J V-Matrix + Cholesky decomp.... done (  0.1 sec)
Calculating Nuclear repulsion               ... done (  0.0 sec) ENN=   3066.511759292322 Eh

Diagonalization of the overlap matrix:
Smallest eigenvalue                        ... 6.424e-05
Time for diagonalization                   ...    0.153 sec
Threshold for overlap eigenvalues          ... 1.000e-07
Number of eigenvalues below threshold      ... 0
Time for construction of square roots      ...    0.066 sec
Total time needed                          ...    0.228 sec

-------------------
DFT GRID GENERATION
-------------------

General Integration Accuracy     IntAcc      ... 4.388
Radial Grid Type                 RadialGrid  ... OptM3 with GC (2021)
Angular Grid (max. ang.)         AngularGrid ... 4 (Lebedev-302)
Angular grid pruning method      GridPruning ... 4 (adaptive)
Weight generation scheme         WeightScheme... mBecke (2022)
Basis function cutoff            BFCut       ... 1.0000e-11
Integration weight cutoff        WCut        ... 1.0000e-14
Partially contracted basis set               ... off
Rotationally invariant grid construction     ... off
Angular grids for H and He will be reduced by one unit

Total number of grid points                  ...   170517
Total number of batches                      ...     2679
Average number of points per batch           ...       63
Average number of grid points per atom       ...     5684

--------------------
COSX GRID GENERATION
--------------------

GRIDX 1
-------
General Integration Accuracy     IntAcc      ... 3.816
Radial Grid Type                 RadialGrid  ... OptM3 with GC (2021)
Angular Grid (max. ang.)         AngularGrid ... 1 (Lebedev-50)
Angular grid pruning method      GridPruning ... 4 (adaptive)
Weight generation scheme         WeightScheme... mBecke (2022)
Basis function cutoff            BFCut       ... 1.0000e-11
Integration weight cutoff        WCut        ... 1.0000e-14
Partially contracted basis set               ... on
Rotationally invariant grid construction     ... off
Angular grids for H and He will be reduced by one unit

Total number of grid points                  ...    21476
Total number of batches                      ...      181
Average number of points per batch           ...      118
Average number of grid points per atom       ...      716
UseSFitting                                  ... on

GRIDX 2
-------
General Integration Accuracy     IntAcc      ... 4.020
Radial Grid Type                 RadialGrid  ... OptM3 with GC (2021)
Angular Grid (max. ang.)         AngularGrid ... 2 (Lebedev-110)
Angular grid pruning method      GridPruning ... 4 (adaptive)
Weight generation scheme         WeightScheme... mBecke (2022)
Basis function cutoff            BFCut       ... 1.0000e-11
Integration weight cutoff        WCut        ... 1.0000e-14
Partially contracted basis set               ... on
Rotationally invariant grid construction     ... off
Angular grids for H and He will be reduced by one unit

Total number of grid points                  ...    49734
Total number of batches                      ...      399
Average number of points per batch           ...      124
Average number of grid points per atom       ...     1658
UseSFitting                                  ... on

GRIDX 3
-------
General Integration Accuracy     IntAcc      ... 4.338
Radial Grid Type                 RadialGrid  ... OptM3 with GC (2021)
Angular Grid (max. ang.)         AngularGrid ... 3 (Lebedev-194)
Angular grid pruning method      GridPruning ... 4 (adaptive)
Weight generation scheme         WeightScheme... mBecke (2022)
Basis function cutoff            BFCut       ... 1.0000e-11
Integration weight cutoff        WCut        ... 1.0000e-14
Partially contracted basis set               ... on
Rotationally invariant grid construction     ... off
Angular grids for H and He will be reduced by one unit

Total number of grid points                  ...   109866
Total number of batches                      ...      873
Average number of points per batch           ...      125
Average number of grid points per atom       ...     3662
UseSFitting                                  ... on
Initializing property integral containers    ... done (  0.0 sec)

SHARK setup successfully completed in   3.9 seconds

Maximum memory used throughout the entire STARTUP-calculation: 67.5 MB


           ************************************************************
           *        Program running with 20 parallel MPI-processes    *
           *              working on a common directory               *
           ************************************************************
-------------------------------------------------------------------------------
                                 ORCA GUESS
                   Start orbitals & Density for SCF / CASSCF
-------------------------------------------------------------------------------

------------
SCF SETTINGS
------------
Hamiltonian:
 Density Functional     Method          .... DFT(GTOs)
 Exchange Functional    Exchange        .... TPSS
 Correlation Functional Correlation     .... TPSS
 LDA part of GGA corr.  LDAOpt          .... PW91-LDA
 Gradients option       PostSCFGGA      .... off
 Hybrid DFT is turned on
   Fraction HF Exchange ScalHFX         ....  0.100000
   Scaling of DF-GGA-X  ScalDFX         ....  0.900000
   Scaling of DF-GGA-C  ScalDFC         ....  1.000000
   Scaling of DF-LDA-C  ScalLDAC        ....  1.000000
   Perturbative correction              ....  0.000000
   NL short-range parameter             ....  5.200000
 RI-approximation to the Coulomb term is turned on
   Number of AuxJ basis functions       .... 1318
   RIJ-COSX (HFX calculated with COS-X)).... on


General Settings:
 Integral files         IntName         .... rf_mecn_2H2O_freq_TP_con_02
 Hartree-Fock type      HFTyp           .... UHF
 Total Charge           Charge          ....   -1
 Multiplicity           Mult            ....    2
 Number of Electrons    NEL             ....  211
 Basis Dimension        Dim             ....  830
 Nuclear Repulsion      ENuc            ....   3066.5117592923 Eh

Convergence Acceleration:
 AO-DIIS                CNVDIIS         .... on
   Start iteration      DIISMaxIt       ....     0
   Startup error        DIISStart       ....  0.200000
   # of expansion vecs  DIISMaxEq       ....     5
   Bias factor          DIISBfac        ....   1.050
   Max. coefficient     DIISMaxC        ....  10.000
 MO-DIIS                CNVKDIIS        .... off
 Trust-Rad. Augm. Hess. CNVTRAH         .... auto
   Auto Start mean grad. ratio tolernc. ....  1.125000
   Auto Start start iteration           ....    50
   Auto Start num. interpolation iter.  ....    10
   Max. Number of Micro iterations      ....    24
   Max. Number of Macro iterations      .... Maxiter - #DIIS iter
   Number of Davidson start vectors     ....     2
   Converg. threshold    (grad. norm)   ....   1.000e-05
   Grad. Scal. Fac. for Micro threshold ....   0.100
   Minimum threshold for Micro iter.    ....   1.000e-02
   NR start threshold (gradient norm)   ....   1.000e-04
   Initial trust radius                 ....   0.400
   Minimum AH scaling param. (alpha)    ....   1.000
   Maximum AH scaling param. (alpha)    .... 1000.000
   Quad. conv. algorithm                .... NR
   White noise on init. David. guess    .... on
   Maximum white noise                  ....   0.010
   Pseudo random numbers                .... off
   Inactive MOs                         .... canonical
   Orbital update algorithm             .... Taylor
   Preconditioner                       .... Diag
   Full preconditioner red. dimension   ....   250
 SOSCF                  CNVSOSCF        .... on
   Start iteration      SOSCFMaxIt      ....   150
   Startup grad/error   SOSCFStart      ....  0.001000
   Hessian update       SOSCFHessUp     .... L-BFGS
 Level Shifting         CNVShift        .... on
   Level shift para.    LevelShift      ....    0.2500
   Turn off err/grad.   ShiftErr        ....    0.0000
 Zerner damping         CNVZerner       .... off
 Static damping         CNVDamp         .... on
   Fraction old density DampFac         ....    0.8500
   Max. Damping (<1)    DampMax         ....    0.9800
   Min. Damping (>=0)   DampMin         ....    0.0000
   Turn off err/grad.   DampErr         ....    0.0300

SCF Procedure:
 Maximum # iterations   MaxIter         ....  1500
 SCF integral mode      SCFMode         .... Direct
   Integral package                     .... SHARK and LIBINT hybrid scheme
 Reset frequency        DirectResetFreq ....    20
 Integral Threshold     Thresh          ....  2.500e-11 Eh
 Primitive CutOff       TCut            ....  2.500e-12 Eh

Convergence Tolerance:
 Convergence Check Mode ConvCheckMode   .... Total+1el-Energy
 Convergence forced     ConvForced      .... 0
 Energy Change          TolE            ....  1.000e-08 Eh
 1-El. energy change                    ....  1.000e-05 Eh
 Orbital Gradient       TolG            ....  1.000e-05
 Orbital Rotation angle TolX            ....  1.000e-05
 DIIS Error             TolErr          ....  5.000e-07

------------------------------
INITIAL GUESS: MODEL POTENTIAL
------------------------------
Loading Hartree-Fock densities                     ... done
Calculating cut-offs                               ... done
Initializing the effective Hamiltonian             ... done
Setting up the integral package (SHARK)            ... done
Starting the Coulomb interaction                   ... done (   0.2 sec)
Making the grid                                    ... done (   0.5 sec)
Mapping shells                                     ... done
Starting the XC term evaluation                    ... done (   0.1 sec)
  promolecular density results
     # of electrons  =    210.000129121
     EX              =   -214.662726039
     EC              =     -7.316800691
     EX+EC           =   -221.979526730
Transforming the Hamiltonian                       ... done (   0.1 sec)
Diagonalizing the Hamiltonian                      ... done (   0.2 sec)
Back transforming the eigenvectors                 ... done (   0.1 sec)
Now organizing SCF variables                       ... done
                      ------------------
                      INITIAL GUESS DONE (   1.3 sec)
                      ------------------
             **** ENERGY FILE WAS UPDATED (rf_mecn_2H2O_freq_TP_con_02.en.tmp) ****
Finished Guess after   2.3 sec
Maximum memory used throughout the entire GUESS-calculation: 56.3 MB


           ************************************************************
           *        Program running with 20 parallel MPI-processes    *
           *              working on a common directory               *
           ************************************************************

-------------------------------------------------------------------------------------------
                                      ORCA LEAN-SCF
                              memory conserving SCF solver
-------------------------------------------------------------------------------------------

--------------------
CPCM SOLVATION MODEL
--------------------
CPCM parameters:
  Epsilon                                         ...      35.6880
  Refrac                                          ...       1.3442
  Rsolv                                           ...       1.3000
  Surface type                                    ... GAUSSIAN VDW
  Discretization scheme                           ... Constant charge density
    Threshold for H atoms                         ...       5.0000 (charges/Ang^2)
    Threshold for non-H atoms                     ...       5.0000 (charges/Ang^2)
  Epsilon function type                           ...         CPCM
Solvent:                                          ... ACETONITRILE
SMD-CDS solvent descriptors:
  Soln                                            ...       1.3442
  Soln25                                          ...       1.3416
  Sola                                            ...       0.0700
  Solb                                            ...       0.3200
  Solg                                            ...      41.2500
  Solc                                            ...       0.0000
  Solh                                            ...       0.0000
Radii:
  Scheme                                          ... Element-dependent radii
  Radius for C  used is    3.4960 Bohr (=   1.8500 Ang.)
  Radius for F  used is    3.2692 Bohr (=   1.7300 Ang.)
  Radius for O  used is    4.0969 Bohr (=   2.1680 Ang.)
  Radius for H  used is    2.2677 Bohr (=   1.2000 Ang.)
Calculating surface                               ...        done! (  0.0s)
Cavity surface points                             ...         2614
Cavity Volume                                     ...    2567.4701
Cavity Surface-area                               ...    1323.9897
Calculating surface distance matrix               ...        done! (  0.1s)
Performing Cholesky decomposition & store         ...        done! (  0.2s)
Overall time for CPCM initialization              ...                 0.2s

----------------------------------------D-I-I-S--------------------------------------------
Iteration    Energy (Eh)           Delta-E    RMSDP     MaxDP     DIISErr   Damp  Time(sec)
-------------------------------------------------------------------------------------------
               ***  Starting incremental Fock matrix formation  ***
    1    -2006.2795531304232100     0.00e+00  2.31e-04  2.14e-02  1.64e-01  0.850   9.7
Warning: op=0 Small HOMO/LUMO gap (   0.063) - skipping pre-diagonalization
         Will do a full diagonalization
    2    -2006.4645182714252769    -1.85e-01  2.73e-04  4.46e-02  1.14e-01  0.850   6.6
                               ***Turning on AO-DIIS***
    3    -2006.5649569165993853    -1.00e-01  1.37e-04  2.48e-02  7.02e-02  0.850   5.6
    4    -2006.6250251041478805    -6.01e-02  7.70e-05  1.14e-02  5.23e-02  0.850   5.5
    5    -2006.6675704779540865    -4.25e-02  5.15e-05  4.12e-03  4.26e-02  0.850   5.2
    6    -2006.7011310122711620    -3.36e-02  4.10e-05  3.49e-03  3.61e-02  0.850   5.3
    7    -2006.7289394917020218    -2.78e-02  3.61e-05  3.42e-03  3.10e-02  0.850   5.2
    8    -2006.7523846351073189    -2.34e-02  3.20e-05  3.12e-03  2.64e-02  0.850   5.0
    9    -2006.7719773804005854    -1.96e-02  1.85e-04  1.80e-02  2.20e-02  0.000   5.0
   10    -2006.8749947084520500    -1.03e-01  1.44e-05  1.31e-03  3.41e-03  0.000   5.7
                              *** Initializing SOSCF ***
---------------------------------------S-O-S-C-F--------------------------------------
Iteration    Energy (Eh)           Delta-E    RMSDP     MaxDP     MaxGrad    Time(sec)
--------------------------------------------------------------------------------------
   11    -2006.8751507811043666    -1.56e-04  6.85e-06  9.20e-04  9.46e-04     5.5
               *** Restarting incremental Fock matrix formation ***
   12    -2006.8751555720541546    -4.79e-06  1.06e-05  9.99e-04  9.76e-04     9.4
   13    -2006.8751626573052818    -7.09e-06  6.18e-06  4.86e-04  3.64e-04     6.5
   14    -2006.8751714279119369    -8.77e-06  3.20e-06  3.09e-04  2.64e-04     6.3
   15    -2006.8751722521315060    -8.24e-07  1.42e-06  1.13e-04  1.07e-04     5.6
   16    -2006.8751722038673506     4.83e-08  1.24e-06  1.19e-04  1.28e-04     5.3
   17    -2006.8751725140250528    -3.10e-07  5.87e-07  4.28e-05  3.48e-05     5.2
   18    -2006.8751725283477754    -1.43e-08  4.01e-07  3.00e-05  3.81e-05     4.7
   19    -2006.8751725708702907    -4.25e-08  1.73e-07  2.19e-05  2.88e-06     4.6
   20    -2006.8751725732586237    -2.39e-09  7.77e-08  8.35e-06  3.50e-06     4.2
                 **** Energy Check signals convergence ****

               *****************************************************
               *                     SUCCESS                       *
               *           SCF CONVERGED AFTER  20 CYCLES          *
               *****************************************************

Recomputing exchange energy using gridx3       ... done (   10.636 sec)
Old exchange energy                            :    -21.691485898 Eh
New exchange energy                            :    -21.691505289 Eh
Exchange energy change after final integration :     -0.000019391 Eh
Total energy after final integration           :  -2006.875191964 Eh

SMD CDS free energy correction energy :                 2.65861     Kcal/mol
Total Energy after SMD CDS correction =             -2006.870955202 Eh
             **** ENERGY FILE WAS UPDATED (rf_mecn_2H2O_freq_TP_con_02.en.tmp) ****

----------------
TOTAL SCF ENERGY
----------------

Total Energy       :      -2006.87095520241905 Eh          -54609.73500 eV

Components:
Nuclear Repulsion  :       3066.51175929232204 Eh           83444.02718 eV
Electronic Energy  :      -5073.30718025552596 Eh         -138051.70679 eV
One Electron Energy:      -8918.30793997541332 Eh         -242679.49663 eV
Two Electron Energy:       3845.00075971988736 Eh          104627.78985 eV
CPCM Dielectric    :         -0.07975161005434 Eh              -2.17015 eV
SMD CDS (Gcds)     :          0.00423676143303 Eh               0.11529 eV

Virial components:
Potential Energy   :      -4006.86479096150651 Eh         -109032.33406 eV
Kinetic Energy     :       1999.99383575908769 Eh           54422.59906 eV
Virial Ratio       :          2.00343857031975

DFT components:
N(Alpha)           :      105.999983414075 electrons
N(Beta)            :      104.999978792714 electrons
N(Total)           :      210.999962206789 electrons
E(X)               :     -197.117285833004 Eh       
E(C)               :       -7.382441937940 Eh       
E(XC)              :     -204.499727770944 Eh       

CPCM Solvation Model Properties:
Surface-charge          :          0.99067240020685
Corrected charge        :          1.00000000000000
Outlying charge corr.   :          0.00000445913616 Eh               0.00012 eV
Free-energy (cav+disp)  :          0.00423676143303 Eh               0.11529 eV

---------------
SCF CONVERGENCE
---------------

  Last Energy change         ...    2.3883e-09  Tolerance :   1.0000e-08
  Last MAX-Density change    ...    8.3495e-06  Tolerance :   1.0000e-07
  Last RMS-Density change    ...    7.7749e-08  Tolerance :   5.0000e-09
  Last DIIS Error            ...    9.4603e-04  Tolerance :   5.0000e-07
  Last Orbital Gradient      ...    3.4993e-06  Tolerance :   1.0000e-05
  Last Orbital Rotation      ...    1.2262e-05  Tolerance :   1.0000e-05


----------------------
UHF SPIN CONTAMINATION
----------------------

Warning: in a DFT calculation there is little theoretical justification to 
         calculate <S**2> as in Hartree-Fock theory. We will do it anyways
         but you should keep in mind that the values have only limited relevance

Expectation value of <S**2>     :     0.755574
Ideal value S*(S+1) for S=0.5   :     0.750000
Deviation                       :     0.005574

----------------
ORBITAL ENERGIES
----------------
                 SPIN UP ORBITALS
  NO   OCC          E(Eh)            E(eV) 
   0   1.0000     -24.665826      -671.1913 
   1   1.0000     -24.659964      -671.0317 
   2   1.0000     -24.658863      -671.0018 
   3   1.0000     -24.658296      -670.9863 
   4   1.0000     -24.657699      -670.9701 
   5   1.0000     -24.657255      -670.9580 
   6   1.0000     -24.656786      -670.9453 
   7   1.0000     -24.656615      -670.9406 
   8   1.0000     -24.652863      -670.8385 
   9   1.0000     -24.644196      -670.6027 
  10   1.0000     -24.637315      -670.4154 
  11   1.0000     -24.636562      -670.3949 
  12   1.0000     -24.622205      -670.0043 
  13   1.0000     -24.621994      -669.9985 
  14   1.0000     -19.014949      -517.4231 
  15   1.0000     -19.013742      -517.3902 
  16   1.0000     -19.010717      -517.3079 
  17   1.0000     -19.010680      -517.3069 
  18   1.0000     -10.394351      -282.8447 
  19   1.0000     -10.341707      -281.4121 
  20   1.0000     -10.339718      -281.3580 
  21   1.0000     -10.338467      -281.3240 
  22   1.0000     -10.321054      -280.8502 
  23   1.0000     -10.288659      -279.9686 
  24   1.0000     -10.257549      -279.1221 
  25   1.0000     -10.210759      -277.8489 
  26   1.0000      -1.320841       -35.9419 
  27   1.0000      -1.292464       -35.1697 
  28   1.0000      -1.276475       -34.7346 
  29   1.0000      -1.271125       -34.5891 
  30   1.0000      -1.264985       -34.4220 
  31   1.0000      -1.254103       -34.1259 
  32   1.0000      -1.239329       -33.7238 
  33   1.0000      -1.235390       -33.6167 
  34   1.0000      -1.230304       -33.4783 
  35   1.0000      -1.226643       -33.3786 
  36   1.0000      -1.219616       -33.1874 
  37   1.0000      -1.211916       -32.9779 
  38   1.0000      -1.203246       -32.7420 
  39   1.0000      -1.183823       -32.2135 
  40   1.0000      -1.020076       -27.7577 
  41   1.0000      -0.951207       -25.8837 
  42   1.0000      -0.948260       -25.8035 
  43   1.0000      -0.934718       -25.4350 
  44   1.0000      -0.828336       -22.5402 
  45   1.0000      -0.806899       -21.9569 
  46   1.0000      -0.770142       -20.9566 
  47   1.0000      -0.732775       -19.9398 
  48   1.0000      -0.692547       -18.8452 
  49   1.0000      -0.663021       -18.0417 
  50   1.0000      -0.636636       -17.3238 
  51   1.0000      -0.617939       -16.8150 
  52   1.0000      -0.615430       -16.7467 
  53   1.0000      -0.608053       -16.5460 
  54   1.0000      -0.594531       -16.1780 
  55   1.0000      -0.591421       -16.0934 
  56   1.0000      -0.589920       -16.0525 
  57   1.0000      -0.581786       -15.8312 
  58   1.0000      -0.574450       -15.6316 
  59   1.0000      -0.571086       -15.5400 
  60   1.0000      -0.563809       -15.3420 
  61   1.0000      -0.553587       -15.0639 
  62   1.0000      -0.551421       -15.0049 
  63   1.0000      -0.542910       -14.7733 
  64   1.0000      -0.526344       -14.3225 
  65   1.0000      -0.499713       -13.5979 
  66   1.0000      -0.490595       -13.3498 
  67   1.0000      -0.483602       -13.1595 
  68   1.0000      -0.478239       -13.0135 
  69   1.0000      -0.474433       -12.9100 
  70   1.0000      -0.472628       -12.8609 
  71   1.0000      -0.468200       -12.7404 
  72   1.0000      -0.466037       -12.6815 
  73   1.0000      -0.457621       -12.4525 
  74   1.0000      -0.451813       -12.2945 
  75   1.0000      -0.450858       -12.2685 
  76   1.0000      -0.447495       -12.1770 
  77   1.0000      -0.443290       -12.0625 
  78   1.0000      -0.441911       -12.0250 
  79   1.0000      -0.433955       -11.8085 
  80   1.0000      -0.432801       -11.7771 
  81   1.0000      -0.430409       -11.7120 
  82   1.0000      -0.428062       -11.6482 
  83   1.0000      -0.422081       -11.4854 
  84   1.0000      -0.419663       -11.4196 
  85   1.0000      -0.417560       -11.3624 
  86   1.0000      -0.415009       -11.2930 
  87   1.0000      -0.412027       -11.2118 
  88   1.0000      -0.410286       -11.1645 
  89   1.0000      -0.409179       -11.1343 
  90   1.0000      -0.405178       -11.0255 
  91   1.0000      -0.399043       -10.8585 
  92   1.0000      -0.396437       -10.7876 
  93   1.0000      -0.388064       -10.5598 
  94   1.0000      -0.383637       -10.4393 
  95   1.0000      -0.380346       -10.3497 
  96   1.0000      -0.352831        -9.6010 
  97   1.0000      -0.337195        -9.1755 
  98   1.0000      -0.335473        -9.1287 
  99   1.0000      -0.329968        -8.9789 
 100   1.0000      -0.262838        -7.1522 
 101   1.0000      -0.260196        -7.0803 
 102   1.0000      -0.257350        -7.0028 
 103   1.0000      -0.250847        -6.8259 
 104   1.0000      -0.238100        -6.4790 
 105   1.0000      -0.233639        -6.3576 
 106   0.0000      -0.017395        -0.4733 
 107   0.0000       0.002579         0.0702 
 108   0.0000       0.009050         0.2463 
 109   0.0000       0.029191         0.7943 
 110   0.0000       0.057394         1.5618 
 111   0.0000       0.063703         1.7334 
 112   0.0000       0.072961         1.9854 
 113   0.0000       0.083438         2.2705 
 114   0.0000       0.094846         2.5809 
 115   0.0000       0.101565         2.7637 
 116   0.0000       0.114924         3.1272 

                 SPIN DOWN ORBITALS
  NO   OCC          E(Eh)            E(eV) 
   0   1.0000     -24.661556      -671.0750 
   1   1.0000     -24.659966      -671.0318 
   2   1.0000     -24.658860      -671.0017 
   3   1.0000     -24.658276      -670.9858 
   4   1.0000     -24.657701      -670.9702 
   5   1.0000     -24.657146      -670.9551 
   6   1.0000     -24.656779      -670.9451 
   7   1.0000     -24.656588      -670.9399 
   8   1.0000     -24.652784      -670.8364 
   9   1.0000     -24.642903      -670.5675 
  10   1.0000     -24.636910      -670.4044 
  11   1.0000     -24.636181      -670.3846 
  12   1.0000     -24.622196      -670.0040 
  13   1.0000     -24.621992      -669.9985 
  14   1.0000     -19.014948      -517.4230 
  15   1.0000     -19.013740      -517.3902 
  16   1.0000     -19.010553      -517.3034 
  17   1.0000     -19.010477      -517.3014 
  18   1.0000     -10.394318      -282.8438 
  19   1.0000     -10.341640      -281.4103 
  20   1.0000     -10.339347      -281.3479 
  21   1.0000     -10.339177      -281.3433 
  22   1.0000     -10.322027      -280.8766 
  23   1.0000     -10.287852      -279.9467 
  24   1.0000     -10.241970      -278.6982 
  25   1.0000     -10.210665      -277.8463 
  26   1.0000      -1.320812       -35.9411 
  27   1.0000      -1.291966       -35.1562 
  28   1.0000      -1.275958       -34.7206 
  29   1.0000      -1.269557       -34.5464 
  30   1.0000      -1.263147       -34.3720 
  31   1.0000      -1.248128       -33.9633 
  32   1.0000      -1.239003       -33.7150 
  33   1.0000      -1.235347       -33.6155 
  34   1.0000      -1.230280       -33.4776 
  35   1.0000      -1.226436       -33.3730 
  36   1.0000      -1.219487       -33.1839 
  37   1.0000      -1.210241       -32.9323 
  38   1.0000      -1.202300       -32.7163 
  39   1.0000      -1.183734       -32.2110 
  40   1.0000      -1.019739       -27.7485 
  41   1.0000      -0.951150       -25.8821 
  42   1.0000      -0.948252       -25.8032 
  43   1.0000      -0.934393       -25.4261 
  44   1.0000      -0.820519       -22.3274 
  45   1.0000      -0.798813       -21.7368 
  46   1.0000      -0.768965       -20.9246 
  47   1.0000      -0.726613       -19.7721 
  48   1.0000      -0.689418       -18.7600 
  49   1.0000      -0.662354       -18.0236 
  50   1.0000      -0.632709       -17.2169 
  51   1.0000      -0.616468       -16.7749 
  52   1.0000      -0.614382       -16.7182 
  53   1.0000      -0.607892       -16.5416 
  54   1.0000      -0.593182       -16.1413 
  55   1.0000      -0.590346       -16.0641 
  56   1.0000      -0.584144       -15.8954 
  57   1.0000      -0.580496       -15.7961 
  58   1.0000      -0.573260       -15.5992 
  59   1.0000      -0.569019       -15.4838 
  60   1.0000      -0.562874       -15.3166 
  61   1.0000      -0.552121       -15.0240 
  62   1.0000      -0.550080       -14.9684 
  63   1.0000      -0.541286       -14.7291 
  64   1.0000      -0.525800       -14.3077 
  65   1.0000      -0.491210       -13.3665 
  66   1.0000      -0.483410       -13.1543 
  67   1.0000      -0.480388       -13.0720 
  68   1.0000      -0.474518       -12.9123 
  69   1.0000      -0.474266       -12.9054 
  70   1.0000      -0.469648       -12.7798 
  71   1.0000      -0.466368       -12.6905 
  72   1.0000      -0.464050       -12.6274 
  73   1.0000      -0.456362       -12.4182 
  74   1.0000      -0.450728       -12.2649 
  75   1.0000      -0.449715       -12.2374 
  76   1.0000      -0.446798       -12.1580 
  77   1.0000      -0.442908       -12.0521 
  78   1.0000      -0.441503       -12.0139 
  79   1.0000      -0.433204       -11.7881 
  80   1.0000      -0.431809       -11.7501 
  81   1.0000      -0.427303       -11.6275 
  82   1.0000      -0.426355       -11.6017 
  83   1.0000      -0.421872       -11.4797 
  84   1.0000      -0.419312       -11.4100 
  85   1.0000      -0.417085       -11.3495 
  86   1.0000      -0.414580       -11.2813 
  87   1.0000      -0.411669       -11.2021 
  88   1.0000      -0.409809       -11.1515 
  89   1.0000      -0.408421       -11.1137 
  90   1.0000      -0.404666       -11.0115 
  91   1.0000      -0.398449       -10.8424 
  92   1.0000      -0.395745       -10.7688 
  93   1.0000      -0.387756       -10.5514 
  94   1.0000      -0.382646       -10.4123 
  95   1.0000      -0.379319       -10.3218 
  96   1.0000      -0.349958        -9.5228 
  97   1.0000      -0.337053        -9.1717 
  98   1.0000      -0.334680        -9.1071 
  99   1.0000      -0.328816        -8.9475 
 100   1.0000      -0.262680        -7.1479 
 101   1.0000      -0.260181        -7.0799 
 102   1.0000      -0.250591        -6.8189 
 103   1.0000      -0.240053        -6.5322 
 104   1.0000      -0.237584        -6.4650 
 105   0.0000      -0.127552        -3.4709 
 106   0.0000      -0.012897        -0.3510 
 107   0.0000       0.004728         0.1287 
 108   0.0000       0.012742         0.3467 
 109   0.0000       0.033920         0.9230 
 110   0.0000       0.057991         1.5780 
 111   0.0000       0.066732         1.8159 
 112   0.0000       0.073962         2.0126 
 113   0.0000       0.088429         2.4063 
 114   0.0000       0.100358         2.7309 
 115   0.0000       0.112895         3.0720 
*Only the first 10 virtual orbitals were printed.

                    ********************************
                    * MULLIKEN POPULATION ANALYSIS *
                    ********************************

--------------------------------------------
MULLIKEN ATOMIC CHARGES AND SPIN POPULATIONS
--------------------------------------------
   0 C :    0.409030    0.001322
   1 C :    0.294409    0.002943
   2 C :    0.282240    0.009396
   3 C :    0.326608   -0.002587
   4 C :    0.090290    0.856567
   5 C :    0.327551   -0.035315
   6 C :    0.277539    0.032133
   7 C :    0.295979    0.003376
   8 F :   -0.136241   -0.000052
   9 F :   -0.134246    0.000028
  10 F :   -0.133348    0.000372
  11 F :   -0.147658   -0.000100
  12 F :   -0.145024    0.000150
  13 F :   -0.155908    0.000053
  14 F :   -0.153298    0.002100
  15 F :   -0.162134    0.024078
  16 F :   -0.157049    0.000186
  17 F :   -0.137149    0.080343
  18 F :   -0.171433    0.006829
  19 F :   -0.169696    0.006261
  20 F :   -0.197750   -0.000638
  21 F :   -0.199520   -0.000116
  22 O :   -0.498958    0.005676
  23 O :   -0.501835    0.006974
  24 O :   -0.735214    0.000018
  25 H :    0.333012   -0.000003
  26 H :    0.351636   -0.000018
  27 H :    0.347236   -0.000039
  28 O :   -0.731337    0.000026
  29 H :    0.332271    0.000038
Sum of atomic charges         :   -1.0000000
Sum of atomic spin populations:    1.0000000

-----------------------------------------------------
MULLIKEN REDUCED ORBITAL CHARGES AND SPIN POPULATIONS
-----------------------------------------------------
CHARGE
  0 C s       :     3.021683  s :     3.021683
      pz      :     0.651434  p :     2.166588
      px      :     0.676617
      py      :     0.838538
      dz2     :     0.083570  d :     0.362302
      dxz     :     0.073831
      dyz     :     0.067877
      dx2y2   :     0.073933
      dxy     :     0.063091
      f0      :     0.006867  f :     0.040396
      f+1     :     0.006812
      f-1     :     0.004488
      f+2     :     0.006095
      f-2     :     0.007217
      f+3     :     0.004869
      f-3     :     0.004048

  1 C s       :     3.103707  s :     3.103707
      pz      :     0.603949  p :     2.277267
      px      :     0.747915
      py      :     0.925403
      dz2     :     0.078763  d :     0.296148
      dxz     :     0.055939
      dyz     :     0.065630
      dx2y2   :     0.035947
      dxy     :     0.059868
      f0      :     0.006289  f :     0.028470
      f+1     :     0.004351
      f-1     :     0.003402
      f+2     :     0.005097
      f-2     :     0.005011
      f+3     :     0.002298
      f-3     :     0.002021

  2 C s       :     3.136245  s :     3.136245
      pz      :     0.650622  p :     2.252130
      px      :     0.724739
      py      :     0.876769
      dz2     :     0.072823  d :     0.300955
      dxz     :     0.062673
      dyz     :     0.058803
      dx2y2   :     0.047390
      dxy     :     0.059266
      f0      :     0.004899  f :     0.028430
      f+1     :     0.006067
      f-1     :     0.003276
      f+2     :     0.004700
      f-2     :     0.003687
      f+3     :     0.003167
      f-3     :     0.002634

  3 C s       :     3.068422  s :     3.068422
      pz      :     0.673505  p :     2.269506
      px      :     0.690139
      py      :     0.905862
      dz2     :     0.059244  d :     0.307588
      dxz     :     0.074007
      dyz     :     0.068059
      dx2y2   :     0.043014
      dxy     :     0.063265
      f0      :     0.004430  f :     0.027876
      f+1     :     0.007192
      f-1     :     0.003640
      f+2     :     0.003163
      f-2     :     0.002811
      f+3     :     0.002915
      f-3     :     0.003724

  4 C s       :     3.236810  s :     3.236810
      pz      :     0.988507  p :     2.496360
      px      :     0.612613
      py      :     0.895241
      dz2     :     0.014320  d :     0.158606
      dxz     :     0.035989
      dyz     :     0.014244
      dx2y2   :     0.030538
      dxy     :     0.063514
      f0      :     0.002217  f :     0.017933
      f+1     :     0.002114
      f-1     :     0.001509
      f+2     :     0.002996
      f-2     :     0.001049
      f+3     :     0.002957
      f-3     :     0.005092

  5 C s       :     3.068018  s :     3.068018
      pz      :     0.905192  p :     2.273317
      px      :     0.601918
      py      :     0.766207
      dz2     :     0.059865  d :     0.303288
      dxz     :     0.059466
      dyz     :     0.050274
      dx2y2   :     0.069552
      dxy     :     0.064131
      f0      :     0.002349  f :     0.027827
      f+1     :     0.004131
      f-1     :     0.003504
      f+2     :     0.004365
      f-2     :     0.003508
      f+3     :     0.004438
      f-3     :     0.005533

  6 C s       :     3.142311  s :     3.142311
      pz      :     0.864384  p :     2.277961
      px      :     0.590486
      py      :     0.823092
      dz2     :     0.049103  d :     0.275088
      dxz     :     0.052255
      dyz     :     0.039516
      dx2y2   :     0.069526
      dxy     :     0.064688
      f0      :     0.002413  f :     0.027101
      f+1     :     0.003431
      f-1     :     0.003212
      f+2     :     0.003998
      f-2     :     0.003359
      f+3     :     0.004665
      f-3     :     0.006024

  7 C s       :     3.032543  s :     3.032543
      pz      :     0.815211  p :     2.382099
      px      :     0.697475
      py      :     0.869413
      dz2     :     0.012489  d :     0.264929
      dxz     :     0.070012
      dyz     :     0.026518
      dx2y2   :     0.079528
      dxy     :     0.076382
      f0      :     0.002179  f :     0.024451
      f+1     :     0.002300
      f-1     :     0.001145
      f+2     :     0.002248
      f-2     :     0.003461
      f+3     :     0.005865
      f-3     :     0.007252

  8 F s       :     3.912726  s :     3.912726
      pz      :     1.655834  p :     5.206585
      px      :     1.664622
      py      :     1.886129
      dz2     :     0.003122  d :     0.016171
      dxz     :     0.006609
      dyz     :     0.002057
      dx2y2   :     0.002397
      dxy     :     0.001986
      f0      :     0.000087  f :     0.000759
      f+1     :     0.000235
      f-1     :     0.000035
      f+2     :     0.000191
      f-2     :     0.000118
      f+3     :     0.000046
      f-3     :     0.000047

  9 F s       :     3.911270  s :     3.911270
      pz      :     1.591981  p :     5.205908
      px      :     1.801136
      py      :     1.812790
      dz2     :     0.004615  d :     0.016296
      dxz     :     0.004492
      dyz     :     0.004193
      dx2y2   :     0.001233
      dxy     :     0.001764
      f0      :     0.000126  f :     0.000771
      f+1     :     0.000187
      f-1     :     0.000165
      f+2     :     0.000094
      f-2     :     0.000154
      f+3     :     0.000024
      f-3     :     0.000021

 10 F s       :     3.911174  s :     3.911174
      pz      :     1.837669  p :     5.205183
      px      :     1.665350
      py      :     1.702164
      dz2     :     0.002016  d :     0.016222
      dxz     :     0.002857
      dyz     :     0.002332
      dx2y2   :     0.003351
      dxy     :     0.005666
      f0      :     0.000082  f :     0.000769
      f+1     :     0.000077
      f-1     :     0.000056
      f+2     :     0.000052
      f-2     :     0.000172
      f+3     :     0.000145
      f-3     :     0.000186

 11 F s       :     3.917496  s :     3.917496
      pz      :     1.583468  p :     5.213483
      px      :     1.737103
      py      :     1.892911
      dz2     :     0.004385  d :     0.015968
      dxz     :     0.005923
      dyz     :     0.002638
      dx2y2   :     0.001460
      dxy     :     0.001562
      f0      :     0.000117  f :     0.000710
      f+1     :     0.000260
      f-1     :     0.000066
      f+2     :     0.000122
      f-2     :     0.000106
      f+3     :     0.000018
      f-3     :     0.000022

 12 F s       :     3.915603  s :     3.915603
      pz      :     1.625435  p :     5.212615
      px      :     1.715567
      py      :     1.871612
      dz2     :     0.003642  d :     0.016083
      dxz     :     0.005831
      dyz     :     0.002772
      dx2y2   :     0.001779
      dxy     :     0.002058
      f0      :     0.000094  f :     0.000723
      f+1     :     0.000223
      f-1     :     0.000070
      f+2     :     0.000131
      f-2     :     0.000140
      f+3     :     0.000029
      f-3     :     0.000036

 13 F s       :     3.922562  s :     3.922562
      pz      :     1.528622  p :     5.216658
      px      :     1.831075
      py      :     1.856961
      dz2     :     0.005790  d :     0.015980
      dxz     :     0.004187
      dyz     :     0.004120
      dx2y2   :     0.000819
      dxy     :     0.001064
      f0      :     0.000181  f :     0.000709
      f+1     :     0.000186
      f-1     :     0.000170
      f+2     :     0.000062
      f-2     :     0.000094
      f+3     :     0.000009
      f-3     :     0.000008

 14 F s       :     3.918758  s :     3.918758
      pz      :     1.769021  p :     5.217907
      px      :     1.606547
      py      :     1.842339
      dz2     :     0.002176  d :     0.015929
      dxz     :     0.005024
      dyz     :     0.001817
      dx2y2   :     0.003213
      dxy     :     0.003699
      f0      :     0.000078  f :     0.000705
      f+1     :     0.000119
      f-1     :     0.000030
      f+2     :     0.000133
      f-2     :     0.000154
      f+3     :     0.000080
      f-3     :     0.000110

 15 F s       :     3.916942  s :     3.916942
      pz      :     1.468506  p :     5.229640
      px      :     1.885106
      py      :     1.876028
      dz2     :     0.007344  d :     0.014889
      dxz     :     0.002843
      dyz     :     0.004010
      dx2y2   :     0.000331
      dxy     :     0.000360
      f0      :     0.000287  f :     0.000663
      f+1     :     0.000124
      f-1     :     0.000197
      f+2     :     0.000025
      f-2     :     0.000027
      f+3     :     0.000002
      f-3     :     0.000001

 16 F s       :     3.922312  s :     3.922312
      pz      :     1.837454  p :     5.218224
      px      :     1.487712
      py      :     1.893059
      dz2     :     0.002021  d :     0.015814
      dxz     :     0.004362
      dyz     :     0.000580
      dx2y2   :     0.005188
      dxy     :     0.003664
      f0      :     0.000077  f :     0.000699
      f+1     :     0.000113
      f-1     :     0.000009
      f+2     :     0.000150
      f-2     :     0.000052
      f+3     :     0.000160
      f-3     :     0.000138

 17 F s       :     3.920882  s :     3.920882
      pz      :     1.834716  p :     5.198285
      px      :     1.466993
      py      :     1.896577
      dz2     :     0.002169  d :     0.017240
      dxz     :     0.004992
      dyz     :     0.000259
      dx2y2   :     0.005909
      dxy     :     0.003911
      f0      :     0.000077  f :     0.000742
      f+1     :     0.000136
      f-1     :     0.000010
      f+2     :     0.000134
      f-2     :     0.000021
      f+3     :     0.000208
      f-3     :     0.000157

 18 F s       :     3.918304  s :     3.918304
      pz      :     1.828355  p :     5.237432
      px      :     1.731864
      py      :     1.677213
      dz2     :     0.002101  d :     0.015022
      dxz     :     0.002473
      dyz     :     0.003073
      dx2y2   :     0.002704
      dxy     :     0.004670
      f0      :     0.000077  f :     0.000675
      f+1     :     0.000056
      f-1     :     0.000071
      f+2     :     0.000050
      f-2     :     0.000174
      f+3     :     0.000132
      f-3     :     0.000115

 19 F s       :     3.919340  s :     3.919340
      pz      :     1.864304  p :     5.234497
      px      :     1.496511
      py      :     1.873681
      dz2     :     0.002109  d :     0.015177
      dxz     :     0.004102
      dyz     :     0.000576
      dx2y2   :     0.004952
      dxy     :     0.003439
      f0      :     0.000071  f :     0.000682
      f+1     :     0.000124
      f-1     :     0.000011
      f+2     :     0.000122
      f-2     :     0.000048
      f+3     :     0.000165
      f-3     :     0.000141

 20 F s       :     3.923452  s :     3.923452
      pz      :     1.834994  p :     5.258764
      px      :     1.751330
      py      :     1.672440
      dz2     :     0.002149  d :     0.014869
      dxz     :     0.002324
      dyz     :     0.003036
      dx2y2   :     0.002804
      dxy     :     0.004556
      f0      :     0.000070  f :     0.000665
      f+1     :     0.000050
      f-1     :     0.000073
      f+2     :     0.000051
      f-2     :     0.000165
      f+3     :     0.000145
      f-3     :     0.000111

 21 F s       :     3.918010  s :     3.918010
      pz      :     1.875258  p :     5.266201
      px      :     1.507267
      py      :     1.883675
      dz2     :     0.002058  d :     0.014654
      dxz     :     0.003764
      dyz     :     0.000512
      dx2y2   :     0.004760
      dxy     :     0.003560
      f0      :     0.000061  f :     0.000656
      f+1     :     0.000117
      f-1     :     0.000011
      f+2     :     0.000110
      f-2     :     0.000042
      f+3     :     0.000163
      f-3     :     0.000153

 22 O s       :     3.839787  s :     3.839787
      pz      :     1.564798  p :     4.631387
      px      :     1.479484
      py      :     1.587105
      dz2     :     0.002484  d :     0.026017
      dxz     :     0.004511
      dyz     :     0.004245
      dx2y2   :     0.007091
      dxy     :     0.007686
      f0      :     0.000200  f :     0.001768
      f+1     :     0.000138
      f-1     :     0.000103
      f+2     :     0.000018
      f-2     :     0.000373
      f+3     :     0.000477
      f-3     :     0.000458

 23 O s       :     3.835447  s :     3.835447
      pz      :     1.543674  p :     4.638748
      px      :     1.332910
      py      :     1.762163
      dz2     :     0.003191  d :     0.025867
      dxz     :     0.008140
      dyz     :     0.000784
      dx2y2   :     0.006841
      dxy     :     0.006911
      f0      :     0.000148  f :     0.001773
      f+1     :     0.000317
      f-1     :     0.000014
      f+2     :     0.000370
      f-2     :     0.000076
      f+3     :     0.000401
      f-3     :     0.000446

 24 O s       :     3.806250  s :     3.806250
      pz      :     1.869823  p :     4.907550
      px      :     1.396632
      py      :     1.641096
      dz2     :     0.003001  d :     0.020096
      dxz     :     0.000977
      dyz     :     0.003966
      dx2y2   :     0.001812
      dxy     :     0.010340
      f0      :     0.000260  f :     0.001317
      f+1     :     0.000259
      f-1     :     0.000109
      f+2     :     0.000048
      f-2     :     0.000293
      f+3     :     0.000060
      f-3     :     0.000289

 25 H s       :     0.622062  s :     0.622062
      pz      :     0.016401  p :     0.044926
      px      :     0.013678
      py      :     0.014846

 26 H s       :     0.595862  s :     0.595862
      pz      :     0.013617  p :     0.052502
      px      :     0.023674
      py      :     0.015212

 27 H s       :     0.599376  s :     0.599376
      pz      :     0.015093  p :     0.053388
      px      :     0.027763
      py      :     0.010532

 28 O s       :     3.802333  s :     3.802333
      pz      :     1.795058  p :     4.907685
      px      :     1.548801
      py      :     1.563825
      dz2     :     0.002073  d :     0.020010
      dxz     :     0.001780
      dyz     :     0.004692
      dx2y2   :     0.010114
      dxy     :     0.001352
      f0      :     0.000335  f :     0.001309
      f+1     :     0.000111
      f-1     :     0.000070
      f+2     :     0.000472
      f-2     :     0.000079
      f+3     :     0.000174
      f-3     :     0.000068

 29 H s       :     0.622521  s :     0.622521
      pz      :     0.016165  p :     0.045208
      px      :     0.011942
      py      :     0.017101


SPIN
  0 C s       :     0.000623  s :     0.000623
      pz      :     0.000094  p :     0.000649
      px      :     0.000345
      py      :     0.000210
      dz2     :    -0.000005  d :     0.000042
      dxz     :     0.000009
      dyz     :    -0.000001
      dx2y2   :    -0.000015
      dxy     :     0.000055
      f0      :     0.000000  f :     0.000008
      f+1     :    -0.000001
      f-1     :    -0.000000
      f+2     :    -0.000000
      f-2     :    -0.000000
      f+3     :     0.000003
      f-3     :     0.000006

  1 C s       :     0.000117  s :     0.000117
      pz      :     0.000449  p :     0.002338
      px      :     0.001317
      py      :     0.000572
      dz2     :     0.000038  d :     0.000471
      dxz     :     0.000042
      dyz     :     0.000109
      dx2y2   :     0.000308
      dxy     :    -0.000028
      f0      :     0.000003  f :     0.000017
      f+1     :     0.000002
      f-1     :     0.000001
      f+2     :     0.000000
      f-2     :     0.000005
      f+3     :    -0.000002
      f-3     :     0.000010

  2 C s       :    -0.001644  s :    -0.001644
      pz      :     0.008864  p :     0.010064
      px      :     0.002696
      py      :    -0.001496
      dz2     :     0.000097  d :     0.000931
      dxz     :     0.000139
      dyz     :     0.000307
      dx2y2   :     0.000239
      dxy     :     0.000149
      f0      :     0.000003  f :     0.000046
      f+1     :     0.000003
      f-1     :     0.000027
      f+2     :     0.000001
      f-2     :     0.000004
      f+3     :     0.000003
      f-3     :     0.000005

  3 C s       :    -0.013250  s :    -0.013250
      pz      :     0.021294  p :    -0.008826
      px      :    -0.006474
      py      :    -0.023646
      dz2     :     0.003330  d :     0.018287
      dxz     :     0.002813
      dyz     :     0.010264
      dx2y2   :     0.003010
      dxy     :    -0.001130
      f0      :     0.000456  f :     0.001202
      f+1     :     0.000014
      f-1     :     0.000018
      f+2     :     0.000076
      f-2     :     0.000576
      f+3     :     0.000011
      f-3     :     0.000049

  4 C s       :     0.057780  s :     0.057780
      pz      :     0.665192  p :     0.797240
      px      :     0.040709
      py      :     0.091338
      dz2     :    -0.000726  d :     0.003747
      dxz     :     0.002691
      dyz     :     0.000450
      dx2y2   :     0.000203
      dxy     :     0.001128
      f0      :    -0.000693  f :    -0.002199
      f+1     :    -0.000548
      f-1     :    -0.000461
      f+2     :    -0.000194
      f-2     :    -0.000079
      f+3     :    -0.000226
      f-3     :     0.000002

  5 C s       :    -0.010794  s :    -0.010794
      pz      :    -0.021622  p :    -0.044152
      px      :    -0.003654
      py      :    -0.018875
      dz2     :     0.009954  d :     0.018410
      dxz     :     0.000216
      dyz     :     0.009252
      dx2y2   :    -0.000568
      dxy     :    -0.000444
      f0      :     0.000034  f :     0.001221
      f+1     :     0.000043
      f-1     :     0.000613
      f+2     :     0.000255
[...]
 35:    303.97   0.000035    0.18  0.000036  (-0.003915 -0.001449  0.004334)
 36:    326.94   0.000152    0.77  0.000145  ( 0.008217  0.006046  0.006382)
 37:    337.43   0.000331    1.67  0.000306  ( 0.007679  0.000958  0.015694)
 38:    339.97   0.000358    1.81  0.000329  (-0.017856  0.002660 -0.001702)
 39:    351.11   0.000180    0.91  0.000160  (-0.005347 -0.000592 -0.011451)
 40:    362.73   0.003263   16.49  0.002807  (-0.047407 -0.018984 -0.014116)
 41:    365.25   0.000058    0.29  0.000050  (-0.000282  0.006966  0.001052)
 42:    392.93   0.007590   38.36  0.006028  (-0.067152  0.000276  0.038969)
 43:    405.01   0.005032   25.43  0.003877  (-0.053465  0.013116  0.029095)
 44:    411.50   0.008386   42.38  0.006360  ( 0.077542  0.017159 -0.007270)
 45:    439.65   0.010042   50.75  0.007128  (-0.069931 -0.018252 -0.043637)
 46:    451.75   0.006959   35.17  0.004807  ( 0.046442  0.046032  0.023052)
 47:    501.96   0.001656    8.37  0.001030  (-0.012772 -0.015213 -0.025198)
 48:    518.76   0.005041   25.48  0.003033  ( 0.032873 -0.044062 -0.003258)
 49:    541.30   0.001775    8.97  0.001023  (-0.002920  0.006428 -0.031201)
 50:    553.85   0.005065   25.60  0.002854  (-0.016182 -0.039941  0.031572)
 51:    566.58   0.003536   17.87  0.001947  (-0.029998 -0.020973  0.024651)
 52:    571.80   0.008178   41.33  0.004463  ( 0.005405 -0.060128 -0.028614)
 53:    588.16   0.006637   33.54  0.003521  ( 0.001247 -0.055811 -0.020123)
 54:    609.84   0.005125   25.90  0.002623  ( 0.008179  0.049535  0.010105)
 55:    644.37   0.000900    4.55  0.000436  (-0.004035 -0.014657  0.014313)
 56:    676.75   0.024734  125.00  0.011405  (-0.009987  0.103883  0.022672)
 57:    690.81   0.026827  135.57  0.012119  ( 0.025912  0.067429 -0.083070)
 58:    692.44   0.004521   22.85  0.002038  ( 0.019979  0.015056 -0.037574)
 59:    704.91   0.026480  133.82  0.011723  ( 0.039749  0.040271  0.092309)
 60:    714.74   0.020524  103.72  0.008961  (-0.030176  0.056816 -0.069444)
 61:    761.03   0.006666   33.69  0.002733  (-0.018133  0.046510 -0.015537)
 62:    797.73   0.024534  123.99  0.009597  ( 0.040769  0.075440  0.047372)
 63:    866.47   0.011377   57.50  0.004098  (-0.006755  0.043286 -0.046672)
 64:    969.92   0.000155    0.78  0.000050  (-0.000744 -0.003866 -0.005869)
 65:   1034.37   0.047744  241.28  0.014404  (-0.023748  0.081564  0.084778)
 66:   1084.48   0.067502  341.13  0.019424  (-0.077501 -0.056396  0.101178)
 67:   1097.74   0.054059  273.19  0.015368  (-0.098125  0.067563 -0.034274)
 68:   1104.43   0.012624   63.80  0.003567  (-0.047299  0.030176 -0.020476)
 69:   1108.86   0.021094  106.60  0.005936  (-0.076898 -0.000727 -0.004752)
 70:   1121.58   0.065638  331.71  0.018263  ( 0.116976  0.055397 -0.038865)
 71:   1135.25   0.041811  211.30  0.011493  ( 0.028488 -0.033837 -0.097657)
 72:   1140.89   0.007487   37.84  0.002048  ( 0.026233  0.020057  0.030942)
 73:   1150.39   0.093045  470.21  0.025240  ( 0.057131  0.041321  0.142369)
 74:   1158.79   0.111329  562.61  0.029981  (-0.171664  0.015143  0.016821)
 75:   1173.21   0.044392  224.34  0.011808  ( 0.007386 -0.029985 -0.104183)
 76:   1175.16   0.055855  282.27  0.014832  ( 0.079554  0.006561  0.091981)
 77:   1196.61   0.008712   44.03  0.002272  (-0.027909  0.035746 -0.014676)
 78:   1244.72   0.003958   20.00  0.000992  ( 0.004672  0.024361  0.019415)
 79:   1306.03   0.026739  135.13  0.006389  (-0.037319  0.063699 -0.030639)
 80:   1321.03   0.012452   62.93  0.002941  (-0.030146  0.045059  0.001563)
 81:   1348.18   0.066271  334.90  0.015340  ( 0.041707  0.099893  0.060179)
 82:   1381.84   0.013250   66.96  0.002992  (-0.007750  0.051373  0.017120)
 83:   1661.31   0.027367  138.30  0.005141  ( 0.030786 -0.063389  0.013216)
 84:   1672.84   0.053853  272.15  0.010046  (-0.081898  0.057657  0.003793)
 85:   1703.15   0.191075  965.61  0.035010  (-0.179389  0.047095 -0.024736)
 86:   3410.69   0.327310  1654.09  0.029947  (-0.166985  0.032209 -0.032029)
 87:   3437.96   0.077141  389.84  0.007002  ( 0.074996 -0.035017 -0.012312)
 88:   3789.47   0.015846   80.08  0.001305  ( 0.033917  0.009151 -0.008416)
 89:   3794.85   0.011430   57.76  0.000940  ( 0.021226  0.015904  0.015378)

* The epsilon (eps) is given for a Dirac delta lineshape.
** The dipole moment derivative (T) already includes vibrational overlap.

The first frequency considered to be a vibration is 6
The total number of vibrations considered is 84


--------------------------
THERMOCHEMISTRY AT 298.15K
--------------------------

Temperature         ...   298.15 K
Pressure            ...     1.00 atm
Total Mass          ...   430.09 AMU
Quasi RRHO          ...     True
Cut-Off Frequency   ...     1.00 cm^-1

Throughout the following assumptions are being made:
  (1) The electronic state is orbitally nondegenerate
      but the spin degeneracy is treated
  (2) There are no thermally accessible electronically excited states
  (3) Hindered rotations indicated by low frequency modes are not
      treated as such but are treated as vibrations and this may
      cause some error
  (4) All equations used are the standard statistical mechanics
      equations for an ideal gas
  (5) All vibrations are strictly harmonic

freq.      17.61  E(vib)   ...       0.57 
freq.      20.20  E(vib)   ...       0.56 
freq.      23.62  E(vib)   ...       0.56 
freq.      33.86  E(vib)   ...       0.55 
freq.      43.11  E(vib)   ...       0.53 
freq.      48.14  E(vib)   ...       0.53 
freq.      56.31  E(vib)   ...       0.52 
freq.      57.80  E(vib)   ...       0.51 
freq.      58.46  E(vib)   ...       0.51 
freq.      59.37  E(vib)   ...       0.51 
freq.      80.30  E(vib)   ...       0.49 
freq.      87.08  E(vib)   ...       0.48 
freq.      93.44  E(vib)   ...       0.47 
freq.     104.48  E(vib)   ...       0.46 
freq.     123.70  E(vib)   ...       0.43 
freq.     148.74  E(vib)   ...       0.41 
freq.     154.76  E(vib)   ...       0.40 
freq.     158.27  E(vib)   ...       0.39 
freq.     176.75  E(vib)   ...       0.38 
freq.     181.65  E(vib)   ...       0.37 
freq.     189.85  E(vib)   ...       0.36 
freq.     199.65  E(vib)   ...       0.35 
freq.     208.94  E(vib)   ...       0.34 
freq.     216.51  E(vib)   ...       0.34 
freq.     231.22  E(vib)   ...       0.32 
freq.     236.21  E(vib)   ...       0.32 
freq.     265.66  E(vib)   ...       0.29 
freq.     273.68  E(vib)   ...       0.28 
freq.     278.38  E(vib)   ...       0.28 
freq.     303.97  E(vib)   ...       0.26 
freq.     326.94  E(vib)   ...       0.24 
freq.     337.43  E(vib)   ...       0.24 
freq.     339.97  E(vib)   ...       0.23 
freq.     351.11  E(vib)   ...       0.23 
freq.     362.73  E(vib)   ...       0.22 
freq.     365.25  E(vib)   ...       0.22 
freq.     392.93  E(vib)   ...       0.20 
freq.     405.01  E(vib)   ...       0.19 
freq.     411.50  E(vib)   ...       0.19 
freq.     439.65  E(vib)   ...       0.17 
freq.     451.75  E(vib)   ...       0.16 
freq.     501.96  E(vib)   ...       0.14 
freq.     518.76  E(vib)   ...       0.13 
freq.     541.30  E(vib)   ...       0.12 
freq.     553.85  E(vib)   ...       0.12 
freq.     566.58  E(vib)   ...       0.11 
freq.     571.80  E(vib)   ...       0.11 
freq.     588.16  E(vib)   ...       0.10 
freq.     609.84  E(vib)   ...       0.10 
freq.     644.37  E(vib)   ...       0.09 
freq.     676.75  E(vib)   ...       0.08 
freq.     690.81  E(vib)   ...       0.07 
freq.     692.44  E(vib)   ...       0.07 
freq.     704.91  E(vib)   ...       0.07 
freq.     714.74  E(vib)   ...       0.07 
freq.     761.03  E(vib)   ...       0.06 
freq.     797.73  E(vib)   ...       0.05 
freq.     866.47  E(vib)   ...       0.04 
freq.     969.92  E(vib)   ...       0.03 
freq.    1034.37  E(vib)   ...       0.02 
freq.    1084.48  E(vib)   ...       0.02 
freq.    1097.74  E(vib)   ...       0.02 
freq.    1104.43  E(vib)   ...       0.02 
freq.    1108.86  E(vib)   ...       0.02 
freq.    1121.58  E(vib)   ...       0.01 
freq.    1135.25  E(vib)   ...       0.01 
freq.    1140.89  E(vib)   ...       0.01 
freq.    1150.39  E(vib)   ...       0.01 
freq.    1158.79  E(vib)   ...       0.01 
freq.    1173.21  E(vib)   ...       0.01 
freq.    1175.16  E(vib)   ...       0.01 
freq.    1196.61  E(vib)   ...       0.01 
freq.    1244.72  E(vib)   ...       0.01 
freq.    1306.03  E(vib)   ...       0.01 
freq.    1321.03  E(vib)   ...       0.01 
freq.    1348.18  E(vib)   ...       0.01 
freq.    1381.84  E(vib)   ...       0.01 
freq.    1661.31  E(vib)   ...       0.00 
freq.    1672.84  E(vib)   ...       0.00 
freq.    1703.15  E(vib)   ...       0.00 
freq.    3410.69  E(vib)   ...       0.00 
freq.    3437.96  E(vib)   ...       0.00 
freq.    3789.47  E(vib)   ...       0.00 
freq.    3794.85  E(vib)   ...       0.00 

------------
INNER ENERGY
------------

The inner energy is: U= E(el) + E(ZPE) + E(vib) + E(rot) + E(trans)
    E(el)   - is the total energy from the electronic structure calculation
              = E(kin-el) + E(nuc-el) + E(el-el) + E(nuc-nuc)
    E(ZPE)  - the the zero temperature vibrational energy from the frequency calculation
    E(vib)  - the the finite temperature correction to E(ZPE) due to population
              of excited vibrational states
    E(rot)  - is the rotational thermal energy
    E(trans)- is the translational thermal energy

Summary of contributions to the inner energy U:
Electronic energy                ...  -2006.90571517 Eh
Zero point energy                ...      0.13906222 Eh      87.26 kcal/mol
Thermal vibrational correction   ...      0.02680998 Eh      16.82 kcal/mol
Thermal rotational correction    ...      0.00141627 Eh       0.89 kcal/mol
Thermal translational correction ...      0.00141627 Eh       0.89 kcal/mol
-----------------------------------------------------------------------
Total thermal energy                  -2006.73701043 Eh


Summary of corrections to the electronic energy:
(perhaps to be used in another calculation)
Total thermal correction                  0.02964253 Eh      18.60 kcal/mol
Non-thermal (ZPE) correction              0.13906222 Eh      87.26 kcal/mol
-----------------------------------------------------------------------
Total correction                          0.16870475 Eh     105.86 kcal/mol


--------
ENTHALPY
--------

The enthalpy is H = U + kB*T
                kB is Boltzmann's constant
Total thermal energy              ...  -2006.73701043 Eh 
Thermal Enthalpy correction       ...      0.00094421 Eh       0.59 kcal/mol
-----------------------------------------------------------------------
Total Enthalpy                    ...  -2006.73606622 Eh


Note: Only C1 symmetry has been detected, increase convergence thresholds 
      if your molecule has a higher symmetry. Symmetry factor of 1.0 is   
      used for the rotational entropy correction. 
 

Note: Rotational entropy computed according to Herzberg 
Infrared and Raman Spectra, Chapter V,1, Van Nostrand Reinhold, 1945 
Point Group:  C1, Symmetry Number:   1  
Rotational constants in cm-1:     0.011913     0.003878     0.003580 

Vibrational entropy computed according to the QRRHO of S. Grimme
Chem.Eur.J. 2012 18 9955 using a reference frequency of 100.0 cm-1


-------
ENTROPY
-------

The entropy contributions are T*S = T*(S(el)+S(vib)+S(rot)+S(trans))
     S(el)   - electronic entropy
     S(vib)  - vibrational entropy
     S(rot)  - rotational entropy
     S(trans)- translational entropy
The entropies will be listed as multiplied by the temperature to get
units of energy

Electronic entropy                ...      0.00065446 Eh      0.41 kcal/mol
Vibrational entropy               ...      0.04972319 Eh     31.20 kcal/mol
Rotational entropy                ...      0.01688249 Eh     10.59 kcal/mol
Translational entropy             ...      0.02093733 Eh     13.14 kcal/mol
-----------------------------------------------------------------------
Final entropy term                ...      0.08819746 Eh     55.34 kcal/mol

In case the symmetry of your molecule has not been determined correctly
or in case you have a reason to use a different symmetry number we print 
out the resulting rotational entropy values for sn=1,12:

 non-linear molecules -----------------------------------
|  sn= 1 | S(rot)=       0.01688249 Eh     10.59 kcal/mol|
|  sn= 2 | S(rot)=       0.01622803 Eh     10.18 kcal/mol|
|  sn= 3 | S(rot)=       0.01584520 Eh      9.94 kcal/mol|
|  sn= 4 | S(rot)=       0.01557357 Eh      9.77 kcal/mol|
|  sn= 5 | S(rot)=       0.01536289 Eh      9.64 kcal/mol|
|  sn= 6 | S(rot)=       0.01519074 Eh      9.53 kcal/mol|
|  sn= 7 | S(rot)=       0.01504519 Eh      9.44 kcal/mol|
|  sn= 8 | S(rot)=       0.01491912 Eh      9.36 kcal/mol|
|  sn= 9 | S(rot)=       0.01480791 Eh      9.29 kcal/mol|
|  sn=10 | S(rot)=       0.01470843 Eh      9.23 kcal/mol|
|  sn=11 | S(rot)=       0.01461844 Eh      9.17 kcal/mol|
|  sn=12 | S(rot)=       0.01453628 Eh      9.12 kcal/mol|
 linear molecules ---------------------------------------
|  Dinfh | S(rot)=       0.01064376 Eh      6.68 kcal/mol|
|  Cinfv | S(rot)=       0.01129822 Eh      7.09 kcal/mol|
 --------------------------------------------------------


-------------------
GIBBS FREE ENERGY
-------------------

The Gibbs free energy is G = H - T*S

Total enthalpy                    ...  -2006.73606622 Eh 
Total entropy correction          ...     -0.08819746 Eh    -55.34 kcal/mol
-----------------------------------------------------------------------
Final Gibbs free energy         ...  -2006.82426367 Eh

For completeness - the Gibbs free energy minus the electronic energy
G-E(el)                           ...      0.08145150 Eh     51.11 kcal/mol


Maximum memory used throughout the entire PROP-calculation: 707.7 MB

--------------------------------
SUGGESTED CITATIONS FOR THIS RUN
--------------------------------

Below you find a list of papers that are relevant to this ORCA run
We neither can nor want to force you to cite these papers, but we appreciate if you do
You receive ORCA, which is the product of decades of hard work by many enthusiastic individuals, for free
The only thing we kindly ask in return is that you cite our papers,
We deeply appreciate it, if you show your appreciation for ORCA by not just citing the generic ORCA reference.

Please note that relegating all ORCA citations to the supporting information does *not* help us.
SI sections are not indexed - citations you put there will not count into any citation statistics
But we need these citations in order to attract the funding resources that allow us to do what we are doing

Therefore, if you are a happy ORCA user, please consider citing a few of the papers listed below in the main body of your paper

In addition to the list printed below, the program has created the file rf_mecn_2H2O_freq_TP_con_02.bibtex that contains the list in bibtex format
You can import this file easily into all common literature databanks and citation aid programs


List of essential papers. We consider these as the minimum necessary citations

  1. Neese,F.
     Software update: the ORCA program system, version 5.0
     WIRES Comput. Molec. Sci., 2022 12(1)e1606
     doi.org/10.1002/wcms.1606

List of papers to cite with high priority. The work reported in these papers was absolutely
necessary for this run to complete.
Our perspective: the developers of density functionals and basis sets usually get cited in chemistry papers
Good! But without the algorithms to do something with them, the functionals or basis sets would not do anything.
Hence, in our opinion, the algorithm design and method developments papers are equally worthy of getting cited

  1. Neese,F.
     An improvement of the resolution of the identity approximation for the formation of the Coulomb matrix
     J. Comp. Chem., 2003 24(14)1740-1747
     doi.org/10.1002/jcc.10318
  2. Neese,F.; Wennmohs,F.; Hansen,A.; Becker,U.
     Efficient, approximate and parallel Hartree-Fock and hybrid DFT calculations. A 'chain-of-spheres' algorithm for the Hartree-Fock exchange
     Chem. Phys., 2009 356(1-3)98-109
     doi.org/10.1016/j.chemphys.2008.10.036
  3. Bykov,D.; Petrenko,T.; Izsak,R.; Kossmann,S.; Becker,U.; Valeev,E.; Neese,F.
     Efficient implementation of the analytic second derivatives of Hartree-Fock and hybrid DFT energies: a detailed analysis of different approximations
     Molec. Phys., 2015 113 1961-1977
     doi.org/10.1080/00268976.2015.1025114
  4. Garcia-Rates,M.; Neese,F.
     Efficient implementation of the analytical second derivatives of hartree-fock and hybrid DFT energies within the framework of the conductor-like polarizable continuum model
     J. Comput. Chem., 2019 40 1816-1828
     doi.org/10.1002/jcc.25833
  5. Garcia-Rates,M.; Neese,F.
     Effect of the Solute Cavity on the Solvation Energy and its Derivatives within the Framework of the Gaussian Charge Scheme
     J. Comput. Chem., 2020 41 922-939
     doi.org/10.1002/jcc.26139
  6. Helmich-Paris,B.; de Souza,B.; Neese,F.; Izsák,R.
     An improved chain of spheres for exchange algorithm
     J. Chem. Phys., 2021 155 104109
     doi.org/doi: 10.1063/5.0058766.
  7. Neese,F.
     The SHARK Integral Generation and Digestion System
     J. Comp. Chem., 2022  1-16
     doi.org/10.1002/jcc.26942
  8. Grimme,S.; Antony,J.; Ehrlich,S.; Krieg,H.
     A consistent and accurate ab initio parametrization of density functional dispersion correction (DFT-D) for the 94 elements H-Pu
     J. Chem. Phys., 2010 132 154104
     doi.org/10.1063/1.3382344
  9. Grimme,S.; Ehrlich,S.; Goerigk,L.
     Effect of the damping function in dispersion corrected density functional theory
     J. Comput. Chem., 2011 32(7)1456-1465
     doi.org/10.1002/jcc.21759

List of suggested additional citations. These are papers that are important in the 'surrounding' of 
of this run, or papers that preceded the highly important papers. If you like your results we are grateful for a citation.

  1. Izsak,R.; Neese,F.
     An overlap fitted chain of spheres exchange method
     J. Chem. Phys., 2011 135 144105
     doi.org/10.1063/1.3646921
  2. Izsak,R.; Hansen,A.; Neese,F.
     The resolution of identity and chain of spheres approximations for the LPNO-CCSD singles Fock term
     Molec. Phys., 2012 110 2413-2417
     doi.org/10.1080/00268976.2012.687466
  3. Neese,F.
     The ORCA program system
     WIRES Comput. Molec. Sci., 2012 2(1)73-78
     doi.org/10.1002/wcms.81
  4. Izsak,R.; Neese,F.; Klopper,W.
     Robust fitting techniques in the chain of spheres approximation to the Fock exchange: The role of the complementary space
     J. Chem. Phys., 2013 139 
     doi.org/10.1063/1.4819264
  5. Neese,F.
     Software update: the ORCA program system, version 4.0
     WIRES Comput. Molec. Sci., 2018 8(1)1-6
     doi.org/10.1002/wcms.1327
  6. Neese,F.; Wennmohs,F.; Becker,U.; Riplinger,C.
     The ORCA quantum chemistry program package
     J. Chem. Phys., 2020 152 Art. No. L224108
     doi.org/10.1063/5.0004608

List of optional additional citations

  1. Neese,F.
     Approximate second-order SCF convergence for spin unrestricted wavefunctions
     Chem. Phys. Lett., 2000 325(1-3)93-98
     doi.org/10.1016/s0009-2614(00)00662-x

Timings for individual modules:

Sum of individual times          ...     1844.985 sec (=  30.750 min)
Startup calculation              ...        4.486 sec (=   0.075 min)   0.2 %
SCF iterations                   ...      133.133 sec (=   2.219 min)   7.2 %
Property integrals               ...      532.785 sec (=   8.880 min)  28.9 %
SCF Response                     ...      884.306 sec (=  14.738 min)  47.9 %
Property calculations            ...      290.275 sec (=   4.838 min)  15.7 %
                             ****ORCA TERMINATED NORMALLY****
TOTAL RUN TIME: 0 days 0 hours 30 minutes 46 seconds 99 msec
