
                                 *****************
                                 * O   R   C   A *
                                 *****************

                                            #,                                       
                                            ###                                      
                                            ####                                     
                                            #####                                    
                                            ######                                   
                                           ########,                                 
                                     ,,################,,,,,                         
                               ,,#################################,,                 
                          ,,##########################################,,             
                       ,#########################################, ''#####,          
                    ,#############################################,,   '####,        
                  ,##################################################,,,,####,       
                ,###########''''           ''''###############################       
              ,#####''   ,,,,##########,,,,          '''####'''          '####       
            ,##' ,,,,###########################,,,                        '##       
           ' ,,###''''                  '''############,,,                           
         ,,##''                                '''############,,,,        ,,,,,,###''
      ,#''                                            '''#######################'''  
     '                                                          ''''####''''         
             ,#######,   #######,   ,#######,      ##                                
            ,#'     '#,  ##    ##  ,#'     '#,    #''#        ,####,   ,####,        
            ##       ##  ##   ,#'  ##            #'  '#       #'       #'  '#        
            ##       ##  #######   ##           ,######,      #####,   #    #        
            '#,     ,#'  ##    ##  '#,     ,#' ,#      #,     #,   #   #,  ,#        
             '#######'   ##     ##  '#######'  #'      '#     '####' # '####'        



                #########################################################
                #                        -***-                          #
                #          Department of theory and spectroscopy        #
                #                                                       #
                #                      Frank Neese                      #
                #                                                       #
                #     Directorship, Architecture, Infrastructure        #
                #                    SHARK, DRIVERS                     #
                #        Core code/Algorithms in most modules           #
                #                                                       #
                #        Max Planck Institute fuer Kohlenforschung      #
                #                Kaiser Wilhelm Platz 1                 #
                #                 D-45470 Muelheim/Ruhr                 #
                #                      Germany                          #
                #                                                       #
                #                  All rights reserved                  #
                #                        -***-                          #
                #########################################################


                         Program Version 6.0.1  -  RELEASE   -


 With contributions from (in alphabetic order):
[Max-Planck-Institut fuer Kohlenforschung]                               
  Daniel Aravena         : Magnetic Suceptibility                        
  Michael Atanasov       : Ab Initio Ligand Field Theory (pilot matlab implementation)
  Alexander A. Auer      : GIAO ZORA, VPT2 properties, NMR spectrum      
  Ute Becker             : All parallelization in ORCA, NUMFREQ, NUMCALC 
  Giovanni Bistoni       : ED, misc. LED, open-shell LED, HFLD           
  Martin Brehm           : Molecular dynamics                            
  Dmytro Bykov           : pre 5.0 version of the SCF Hessian            
  Marcos Casanova-Páez   : Triplet and SCS-CIS(D). UHF-(DLPNO)-IP/EA/STEOM-CCSD. UHF-CVS-IP/STEOM-CCSD   
  Vijay G. Chilkuri      : MRCI spin determinant printing, contributions to CSF-ICE 
  Pauline Colinet        : FMM embedding                                 
  Dipayan Datta          : RHF DLPNO-CCSD density                        
  Achintya Kumar Dutta   : EOM-CC, STEOM-CC                              
  Nicolas Foglia         : Exact transition moments, OPA infrastructure, MCD improvements    
  Dmitry Ganyushin       : Spin-Orbit,Spin-Spin,Magnetic field MRCI      
  Miquel Garcia-Rates    : C-PCM and meta-GGA Hessian, CCSD/C-PCM, Gaussian charge scheme 
  Tiago L. C. Gouveia    : GS-ROHF, GS-ROCIS                             
  Yang Guo               : DLPNO-NEVPT2, F12-NEVPT2, CIM, IAO-localization        
  Andreas Hansen         : Spin unrestricted coupled pair/coupled cluster methods 
  Ingolf Harden          : AUTO-CI MPn and infrastructure                
  Benjamin Helmich-Paris : MC-RPA, TRAH-(SCF,CASSCF), AVAS, COSX integrals, SCF dyn. polar. 
  Lee Huntington         : MR-EOM, pCC                                   
  Robert Izsak           : Overlap fitted RIJCOSX, COSX-SCS-MP3, EOM     
  Riya Kayal             : Wick's Theorem for AUTO-CI, AUTO-CI UHF-CCSDT 
  Emily Kempfer          : AUTO-CI, RHF CISDT and CCSDT                  
  Christian Kollmar      : KDIIS, OOCD, Brueckner-CCSD(T), CCSD density, CASPT2, CASPT2-K, improved NEVPT2 
  Axel Koslowski         : Symmetry handling                             
  Simone Kossmann        : meta-GGA functionals, TD-DFT gradient, OOMP2, (MP2 Hessian; deprecated post 5.0) 
  Lucas Lang             : DCDCAS                                        
  Marvin Lechner         : AUTO-CI (C++ implementation), FIC-MRCC        
  Spencer Leger          : CASSCF response                               
  Dagmar Lenk            : GEPOL surface, SMD, ORCA-2-JSON               
  Dimitrios Liakos       : Extrapolation schemes; Compound Job, initial MDCI parallelization 
  Dimitrios Manganas     : Further ROCIS development; embedding schemes. LFT, Crystal Embedding 
  Dimitrios Pantazis     : SARC Basis sets                               
  Anastasios Papadopoulos: AUTO-CI, single reference methods and gradients 
  Taras Petrenko         : pre 6.0 DFT Hessian and TD-DFT gradient, (ASA, deprecated), ECA, 1-Electron XAS/XES, NRVS 
  Peter Pinski           : DLPNO-MP2, DLPNO-MP2 Gradient                 
  Christoph Reimann      : Effective Core Potentials                     
  Marius Retegan         : Local ZFS, SOC                                
  Christoph Riplinger    : Optimizer, TS searches, QM/MM, DLPNO-CCSD(T), (RO)-DLPNO pert. Triples 
  Michael Roemelt        : Original ROCIS implementation                 
  Masaaki Saitow         : Open-shell DLPNO-CCSD energy and density      
  Barbara Sandhoefer     : DKH picture change effects                    
  Kantharuban Sivalingam : CASSCF convergence/infrastructure, NEVPT2 and variants, FIC-MRCI 
  Bernardo de Souza      : ESD, SOC TD-DFT                               
  Georgi L. Stoychev     : AutoAux, RI-MP2 NMR, DLPNO-MP2 response, X2C  
  Van Anh Tran           : RI-MP2 g-tensors                              
  Willem Van den Heuvel  : Paramagnetic NMR                              
  Zikuan Wang            : NOTCH, Electric field optimization            
  Frank Wennmohs         : Technical directorship and infrastructure     
  Hang Xu                : AUTO-CI-Response properties                   
                                                                         
[FACCTs GmbH]                                                            
  Markus Bursch, Miquel Garcia-Rates, Christoph Riplinger, Bernardo de Souza, Georgi L. Stoychev 
                                                                 
  APM, Basis sets (HGBS, AHGBS, def-TZVP (Ac-Lr), def2-XVPD (La-Lu)), CI-OPT, improved COSX, DLPNO-Multilevel,           
  DOCKER, DRACO, updates on ESD, GOAT, IRC, LR-CPCM, MBIS, meta-GGA TD-DFT gradient, ML-optimized integration grids, 
  MM, NACMEs, nearIR, NEB, NEB-TS, NL-DFT gradient (VV10), 2- and 3-layer-ONIOM, interface openCOSMO-RS, QMMM,   
  Crystal-QMMM, SF, symmetry and pop. for TD-DFT, r2SCAN hybrids, SOLVATOR                                   
                                                                         
[Other institutions]                                                     
  V. Asgeirsson          : NEB                                           
  Christoph Bannwarth    : sTDA-DFT, sTD-DFT, PBEh-3c, B97-3c, D3        
  Sebastian Ehlert       : rSCAN, r2SCAN, r2SCAN-3c, D4, dhf basis sets  
  Marvin Friede          : D4 for Fr, Ra, Ac-Lr                          
  Lars Goerigk           : TD-DFT with DH, B97 family of functionals     
  Stefan Grimme          : VdW corrections, initial TS optimization, DFT functionals, gCP, sTDA/sTD-DF 
  Waldemar Hujo          : DFT-NL                                        
  H. Jonsson             : NEB                                           
  Holger Kruse           : gCP                                           
  Marcel Mueller         : wB97X-3c, vDZP basis set                      
  Hagen Neugebauer       : wr2SCAN                                       
  Tobias Risthaus        : range-separated hybrid DFT                    
  Lukas Wittmann         : regularized MP2, r2SCAN double-hybrids, wr2SCAN        
                                                                         
We gratefully acknowledge several colleagues who have allowed us to      
interface, adapt or use parts of their codes:                            
  Ed Valeev, F. Pavosevic, A. Kumar             : LibInt (2-el integral package), F12 methods 
  Garnet Chan, S. Sharma, J. Yang, R. Olivares  : DMRG                   
  Ulf Ekstrom                                   : XCFun DFT Library      
  Mihaly Kallay                                 : mrcc  (arbitrary order and MRCC methods)
  Frank Weinhold                                : gennbo (NPA and NBO analysis)           
  Simon Mueller                                 : openCOSMO-RS                            
  Christopher J. Cramer and Donald G. Truhlar   : smd solvation model                     
  S Lehtola, MJT Oliveira, MAL Marques          : LibXC Library                           
  Liviu Ungur et al                             : ANISO software                          


 Your calculation uses the libint2 library for the computation of 2-el integrals
 For citations please refer to: http://libint.valeyev.net

 Your ORCA version has been built with support for libXC version: 6.2.2
 For citations please refer to: https://libxc.gitlab.io

 This ORCA versions uses:
   CBLAS   interface :  Fast vector & matrix operations
   LAPACKE interface :  Fast linear algebra routines
   SCALAPACK package :  Parallel linear algebra routines
   Shared memory     :  Shared parallel matrices
   BLAS/LAPACK       :  OpenBLAS 0.3.27  USE64BITINT DYNAMIC_ARCH NO_AFFINITY SkylakeX SINGLE_THREADED
        Core in use  :  SkylakeX
   Copyright (c) 2011-2014, The OpenBLAS Project


NOTE: MaxCore=8000 MB was set to SCF,MP2,MDCI,CIPSI,MRCI and CIS
      => If you want to overwrite this, your respective input block should be placed after the MaxCore statement
Your calculation utilizes the atom-pairwise dispersion correction
with the Becke-Johnson damping scheme (D3BJ)


Your calculation utilizes the SMD solvation module
Please cite in your paper:
A.V. Marenich, C.J. Cramer, D.G. Truhlar J. Phys. Chem. B, 113, (2009), 6378 

Warning: RI is on but no J-basis has been assigned. Assigning Def2/J (nothing to worry about!)
================================================================================

----- Orbital basis set information -----
Your calculation utilizes the basis: def2-TZVP
   F. Weigend and R. Ahlrichs, Phys. Chem. Chem. Phys. 7, 3297 (2005).

----- AuxJ basis set information -----
Your calculation utilizes the auxiliary basis: def2/J
   F. Weigend, Phys. Chem. Chem. Phys. 8, 1057 (2006).

================================================================================
                                        WARNINGS
                       Please study these warnings very carefully!
================================================================================


WARNING: your system is open-shell and RHF/RKS was chosen
  ===> : WILL SWITCH to UHF/UKS


WARNING: Geometry Optimization
  ===> : Switching off AutoStart
         For restart on a previous wavefunction, please use MOREAD

================================================================================
                                       INPUT FILE
================================================================================
NAME = rf_mecn_opt_TP_C5_P_B.inp
|  1> !TPSSh def2-TZVP opt d3 TightSCF SlowConv defgrid2
|  2>  
|  3> %pal
|  4> nprocs 20
|  5> end
|  6>  
|  7> %scf
|  8> MaxIter 1500
|  9> end
| 10>  
| 11> %maxcore 8000
| 12>  
| 13> !CPCM
| 14> %cpcm smd true
| 15> SMDsolvent "ACETONITRILE"
| 16> end
| 17>  
| 18> * xyz 0 2
| 19> 6        4.790427000     -0.033865800     -0.529943200
| 20> 8        5.449345000     -1.206924000     -0.894594600
| 21> 8        4.978223000      1.323071000     -0.737377200
| 22> 6        3.506687600     -0.338741600      0.376153800
| 23> 6        2.222300000      0.400524800     -0.110681600
| 24> 6        0.900506800     -0.386389800      0.175703000
| 25> 6       -0.395261200      0.487294000      0.065549000
| 26> 6       -1.705693600     -0.364773800     -0.068373600
| 27> 6       -3.005136200      0.445344800      0.258164000
| 28> 6       -4.319880200     -0.214526000     -0.270540800
| 29> 9        3.211587400     -1.692050400      0.412735200
| 30> 9        3.741061800      0.055285800      1.689948800
| 31> 9        2.125696800      1.616867800      0.483236600
| 32> 9        2.314152400      0.589704000     -1.455769200
| 33> 9        0.794028800     -1.413561400     -0.700839000
| 34> 9        0.958350600     -0.884509000      1.435093400
| 35> 9       -0.299075000      1.289512600     -1.020910800
| 36> 9       -1.641790400     -1.418189000      0.779523800
| 37> 9       -1.792381400     -0.831391600     -1.336863600
| 38> 9       -2.918792200      1.679227200     -0.295171200
| 39> 9       -3.119771000      0.573779800      1.598579800
| 40> 9       -4.383115600     -1.504377600      0.089127600
| 41> 9       -5.365669800      0.430528600      0.260394200
| 42> 9       -4.396020400     -0.128550600     -1.602941800
| 43> 1        5.903122371     -2.014774547     -1.145719253
| 44> *
| 45> 
| 46>                          ****END OF INPUT****
================================================================================

                       *****************************
                       * Geometry Optimization Run *
                       *****************************

Geometry optimization settings:
Update method            Update   .... BFGS
Choice of coordinates    CoordSys .... (2022) Redundant Internals
Initial Hessian          InHess   .... Almloef's Model
Max. no of cycles        MaxIter  .... 75

Convergence Tolerances:
Energy Change            TolE     ....  5.0000e-06 Eh
Max. Gradient            TolMAXG  ....  3.0000e-04 Eh/bohr
RMS Gradient             TolRMSG  ....  1.0000e-04 Eh/bohr
Max. Displacement        TolMAXD  ....  4.0000e-03 bohr
RMS Displacement         TolRMSD  ....  2.0000e-03 bohr
Strict Convergence                .... False

------------------------------------------------------------------------------
                        ORCA OPTIMIZATION COORDINATE SETUP
------------------------------------------------------------------------------

The optimization will be done in redundant internal coordinates (2022)
Making redundant internal coordinates   ...  (2022 redundants) done
Evaluating the initial hessian          ...  (Almloef) done
Evaluating the coordinates              ...  done
Calculating the B-matrix                .... done
Calculating the G-matrix                .... done
Diagonalizing the G-matrix              .... done
Small eigenvalue found = 4.627e-03
Small eigenvalue found = 1.286e-02
Small eigenvalue found = 2.876e-02
The first mode is                       ....   39
The number of degrees of freedom        ....   69

    -----------------------------------------------------------------
                    Redundant Internal Coordinates


    -----------------------------------------------------------------
         Definition                    Initial Value    Approx d2E/dq
    -----------------------------------------------------------------
      1. B(O   1,C   0)                  1.3940         0.551454   
      2. B(O   2,C   0)                  1.3855         0.568952   
      3. B(C   3,C   0)                  1.6006         0.288221   
      4. B(C   4,C   3)                  1.5599         0.334759   
      5. B(C   5,C   4)                  1.5647         0.328824   
      6. B(C   6,C   5)                  1.5667         0.326486   
      7. B(C   7,C   6)                  1.5688         0.323927   
      8. B(C   8,C   7)                  1.5657         0.327637   
      9. B(C   9,C   8)                  1.5632         0.330714   
     10. B(F  10,C   3)                  1.3856         0.528443   
     11. B(F  11,C   3)                  1.3915         0.517117   
     12. B(F  12,C   4)                  1.3570         0.586881   
     13. B(F  13,C   4)                  1.3614         0.577499   
     14. B(F  14,C   5)                  1.3545         0.592326   
     15. B(F  15,C   5)                  1.3556         0.590092   
     16. B(F  16,C   6)                  1.3540         0.593567   
     17. B(F  17,C   7)                  1.3538         0.593973   
     18. B(F  18,C   7)                  1.3544         0.592672   
     19. B(F  19,C   8)                  1.3550         0.591238   
     20. B(F  20,C   8)                  1.3514         0.599114   
     21. B(F  21,C   9)                  1.3406         0.623533   
     22. B(F  22,C   9)                  1.3385         0.628179   
     23. B(F  23,C   9)                  1.3373         0.630929   
     24. B(H  24,O   1)                  0.9600         0.519956   
     25. A(O   1,C   0,O   2)          136.1318         0.413163   
     26. A(O   1,C   0,C   3)          111.5249         0.369222   
     27. A(O   2,C   0,C   3)          112.3347         0.371210   
     28. L(C   0,O   1,H  24,C   3, 2) 180.0000         0.362759   
     29. L(C   0,O   1,H  24,C   3, 1) 180.0000         0.362759   
     30. A(F  10,C   3,F  11)          106.7094         0.399684   
     31. A(C   4,C   3,F  11)          107.4072         0.373095   
     32. A(C   0,C   3,F  11)          110.2099         0.363632   
     33. A(C   4,C   3,F  10)          107.2033         0.374492   
     34. A(C   0,C   3,F  10)          111.8265         0.364982   
     35. A(C   0,C   3,C   4)          113.1687         0.341363   
     36. A(C   3,C   4,F  12)          110.2926         0.381351   
     37. A(F  12,C   4,F  13)          108.2194         0.415201   
     38. A(C   3,C   4,C   5)          113.5839         0.349005   
     39. A(C   5,C   4,F  13)          107.9208         0.379109   
     40. A(C   3,C   4,F  13)          108.5818         0.380286   
     41. A(C   5,C   4,F  12)          108.0911         0.380169   
     42. A(C   4,C   5,C   6)          113.9128         0.347536   
     43. A(F  14,C   5,F  15)          109.0206         0.417483   
     44. A(C   6,C   5,F  15)          107.7906         0.380059   
     45. A(C   4,C   5,F  15)          108.5900         0.380529   
     46. A(C   6,C   5,F  14)          108.2026         0.380308   
     47. A(C   4,C   5,F  14)          109.2282         0.380779   
     48. A(C   5,C   6,C   7)          113.2023         0.346660   
     49. A(C   7,C   6,F  16)          108.2186         0.379927   
     50. A(C   5,C   6,F  16)          109.1523         0.380446   
     51. A(C   8,C   7,F  18)          108.6915         0.380579   
     52. A(C   6,C   7,F  18)          108.6955         0.379828   
     53. A(C   8,C   7,F  17)          108.1296         0.380723   
     54. A(F  17,C   7,F  18)          108.7561         0.418014   
     55. A(C   6,C   7,F  17)          109.2524         0.379972   
     56. A(C   6,C   7,C   8)          113.2298         0.346865   
     57. A(F  19,C   8,F  20)          108.8987         0.418476   
     58. A(C   7,C   8,C   9)          114.1471         0.348078   
     59. A(C   9,C   8,F  20)          107.7127         0.381912   
     60. A(C   7,C   8,F  20)          109.0521         0.381293   
     61. A(C   9,C   8,F  19)          107.4499         0.381036   
     62. A(C   7,C   8,F  19)          109.4572         0.380419   
     63. A(F  22,C   9,F  23)          108.6464         0.426961   
     64. A(F  21,C   9,F  23)          109.0552         0.426394   
     65. A(C   8,C   9,F  23)          110.9604         0.385362   
     66. A(F  21,C   9,F  22)          108.6877         0.426061   
     67. A(C   8,C   9,F  22)          108.6349         0.385069   
     68. A(C   8,C   9,F  21)          110.7995         0.384572   
     69. D(F  10,C   3,C   0,O   1)     -9.8890         0.006601   
     70. D(F  11,C   3,C   0,O   1)    108.6317         0.006601   
     71. D(F  10,C   3,C   0,O   2)    171.0025         0.006601   
     72. D(F  11,C   3,C   0,O   2)    -70.4768         0.006601   
     73. D(C   4,C   3,C   0,O   1)   -131.0839         0.006601   
     74. D(C   4,C   3,C   0,O   2)     49.8076         0.006601   
     75. D(C   5,C   4,C   3,C   0)    148.6429         0.009100   
     76. D(F  12,C   4,C   3,F  11)     32.0233         0.009100   
     77. D(F  12,C   4,C   3,F  10)    146.3851         0.009100   
     78. D(F  12,C   4,C   3,C   0)    -89.8453         0.009100   
     79. D(C   5,C   4,C   3,F  11)    -89.4885         0.009100   
     80. D(C   5,C   4,C   3,F  10)     24.8733         0.009100   
     81. D(C   6,C   5,C   4,F  13)    -75.6292         0.008811   
     82. D(C   6,C   5,C   4,F  12)     41.2001         0.008811   
     83. D(C   6,C   5,C   4,C   3)    163.9326         0.008811   
     84. D(F  14,C   5,C   4,F  13)     45.4721         0.008811   
     85. D(F  14,C   5,C   4,F  12)    162.3014         0.008811   
     86. D(F  14,C   5,C   4,C   3)    -74.9661         0.008811   
     87. D(F  16,C   6,C   5,C   4)     42.3872         0.008172   
     88. D(C   7,C   6,C   5,F  15)    -76.4529         0.008172   
     89. D(C   7,C   6,C   5,F  14)     41.3107         0.008172   
     90. D(F  16,C   6,C   5,F  14)    -79.2837         0.008172   
     91. D(C   7,C   6,C   5,C   4)    162.9815         0.008172   
     92. D(F  18,C   7,C   6,C   5)    -76.7446         0.008059   
     93. D(F  17,C   7,C   6,F  16)    162.9167         0.008059   
     94. D(F  17,C   7,C   6,C   5)     41.7939         0.008059   
     95. D(C   8,C   7,C   6,F  16)    -76.5134         0.008059   
     96. D(C   8,C   7,C   6,C   5)    162.3638         0.008059   
     97. D(C   9,C   8,C   7,F  18)     41.5227         0.008755   
     98. D(C   9,C   8,C   7,F  17)    -76.3785         0.008755   
     99. D(C   9,C   8,C   7,C   6)    162.4166         0.008755   
    100. D(F  19,C   8,C   7,F  18)    -78.9355         0.008755   
    101. D(F  19,C   8,C   7,F  17)    163.1633         0.008755   
    102. D(F  19,C   8,C   7,C   6)     41.9584         0.008755   
    103. D(F  22,C   9,C   8,F  20)     48.1091         0.008903   
    104. D(F  22,C   9,C   8,F  19)    -69.0724         0.008903   
    105. D(F  22,C   9,C   8,C   7)    169.3552         0.008903   
    106. D(F  21,C   9,C   8,F  20)    -71.2185         0.008903   
    107. D(F  21,C   9,C   8,F  19)    171.5999         0.008903   
    108. D(F  21,C   9,C   8,C   7)     50.0276         0.008903   
    -----------------------------------------------------------------

Number of atoms                         .... 25
Number of degrees of freedom            .... 108


         *************************************************************
         *                GEOMETRY OPTIMIZATION CYCLE   1            *
         *************************************************************
---------------------------------
CARTESIAN COORDINATES (ANGSTROEM)
---------------------------------
  C      4.790427   -0.033866   -0.529943
  O      5.449345   -1.206924   -0.894595
  O      4.978223    1.323071   -0.737377
  C      3.506688   -0.338742    0.376154
  C      2.222300    0.400525   -0.110682
  C      0.900507   -0.386390    0.175703
  C     -0.395261    0.487294    0.065549
  C     -1.705694   -0.364774   -0.068374
  C     -3.005136    0.445345    0.258164
  C     -4.319880   -0.214526   -0.270541
  F      3.211587   -1.692050    0.412735
  F      3.741062    0.055286    1.689949
  F      2.125697    1.616868    0.483237
  F      2.314152    0.589704   -1.455769
  F      0.794029   -1.413561   -0.700839
  F      0.958351   -0.884509    1.435093
  F     -0.299075    1.289513   -1.020911
  F     -1.641790   -1.418189    0.779524
  F     -1.792381   -0.831392   -1.336864
  F     -2.918792    1.679227   -0.295171
  F     -3.119771    0.573780    1.598580
  F     -4.383116   -1.504378    0.089128
  F     -5.365670    0.430529    0.260394
  F     -4.396020   -0.128551   -1.602942
  H      5.903122   -2.014775   -1.145719

----------------------------
CARTESIAN COORDINATES (A.U.)
----------------------------
  NO LB      ZA    FRAG     MASS         X           Y           Z
   0 C     6.0000    0    12.011    9.052595   -0.063997   -1.001448
   1 O     8.0000    0    15.999   10.297770   -2.280756   -1.690539
   2 O     8.0000    0    15.999    9.407478    2.500242   -1.393441
   3 C     6.0000    0    12.011    6.626679   -0.640129    0.710828
   4 C     6.0000    0    12.011    4.199538    0.756882   -0.209158
   5 C     6.0000    0    12.011    1.701711   -0.730171    0.332031
   6 C     6.0000    0    12.011   -0.746935    0.920852    0.123870
   7 C     6.0000    0    12.011   -3.223294   -0.689323   -0.129207
   8 C     6.0000    0    12.011   -5.678884    0.841580    0.487859
   9 C     6.0000    0    12.011   -8.163391   -0.405395   -0.511248
  10 F     9.0000    0    18.998    6.069021   -3.197512    0.779956
  11 F     9.0000    0    18.998    7.069582    0.104475    3.193540
  12 F     9.0000    0    18.998    4.016985    3.055437    0.913185
  13 F     9.0000    0    18.998    4.373114    1.114379   -2.751005
  14 F     9.0000    0    18.998    1.500497   -2.671244   -1.324394
  15 F     9.0000    0    18.998    1.811020   -1.671480    2.711934
  16 F     9.0000    0    18.998   -0.565170    2.436826   -1.929242
  17 F     9.0000    0    18.998   -3.102534   -2.679989    1.473086
  18 F     9.0000    0    18.998   -3.387110   -1.571102   -2.526306
  19 F     9.0000    0    18.998   -5.515718    3.173280   -0.557793
  20 F     9.0000    0    18.998   -5.895513    1.084287    3.020878
  21 F     9.0000    0    18.998   -8.282888   -2.842862    0.168427
  22 F     9.0000    0    18.998  -10.139646    0.813581    0.492074
  23 F     9.0000    0    18.998   -8.307275   -0.242925   -3.029121
  24 H     1.0000    0     1.008   11.155285   -3.807372   -2.165096

--------------------------------
INTERNAL COORDINATES (ANGSTROEM)
--------------------------------
 C      0   0   0     0.000000000000     0.00000000     0.00000000
 O      1   0   0     1.393990356793     0.00000000     0.00000000
 O      1   2   0     1.385486802956   136.13177198     0.00000000
 C      1   2   3     1.600608594862   111.52489317   181.18992567
 C      4   1   2     1.559863783763   113.16872737   228.91614990
 C      5   4   1     1.564732561934   113.58394786   148.64287440
 C      6   5   4     1.566675459667   113.91280616   163.93256239
 C      7   6   5     1.568817348692   113.20226571   162.98152714
 C      8   7   6     1.565717094808   113.22984595   162.36375422
 C      9   8   7     1.563173062643   114.14707705   162.41661495
 F      4   1   2     1.385592665621   111.82651119   350.11101305
 F      4   1   2     1.391490625050   110.20991618   108.63170802
 F      5   4   1     1.357041377479   110.29260564   270.15468021
 F      5   4   1     1.361428031433   108.58179722    28.57841973
 F      6   5   4     1.354527570075   109.22822656   285.03385927
 F      6   5   4     1.355556277776   108.59004089    43.81583148
 F      7   6   5     1.353957667090   109.15230848    42.38718856
 F      8   7   6     1.353771473879   109.25240264    41.79387651
 F      8   7   6     1.354368423305   108.69554158   283.25540020
 F      9   8   7     1.355028009646   109.45719767    41.95842364
 F      9   8   7     1.351425618925   109.05210362   282.91820052
 F     10   9   8     1.340551089588   110.79953142    50.02756898
 F     10   9   8     1.338530275591   108.63493714   169.35523750
 F     10   9   8     1.337341214598   110.96044107   288.72891896
 H      2   1   3     0.960000000033   180.00000000     0.00000000

---------------------------
INTERNAL COORDINATES (A.U.)
---------------------------
 C      0   0   0     0.000000000000     0.00000000     0.00000000
 O      1   0   0     2.634260007667     0.00000000     0.00000000
 O      1   2   0     2.618190619750   136.13177198     0.00000000
 C      1   2   3     3.024711891890   111.52489317   181.18992567
 C      4   1   2     2.947715357535   113.16872737   228.91614990
 C      5   4   1     2.956916014884   113.58394786   148.64287440
 C      6   5   4     2.960587559506   113.91280616   163.93256239
 C      7   6   5     2.964635143173   113.20226571   162.98152714
 C      8   7   6     2.958776512386   113.22984595   162.36375422
 C      9   8   7     2.953968988318   114.14707705   162.41661495
 F      4   1   2     2.618390671194   111.82651119   350.11101305
 F      4   1   2     2.629536199263   110.20991618   108.63170802
 F      5   4   1     2.564436555835   110.29260564   270.15468021
 F      5   4   1     2.572726130452   108.58179722    28.57841973
 F      6   5   4     2.559686148288   109.22822656   285.03385927
 F      6   5   4     2.561630124115   108.59004089    43.81583148
 F      7   6   5     2.558609187723   109.15230848    42.38718856
 F      8   7   6     2.558257333546   109.25240264    41.79387651
 F      8   7   6     2.559385404477   108.69554158   283.25540020
 F      9   8   7     2.560631842023   109.45719767    41.95842364
 F      9   8   7     2.553824310132   109.05210362   282.91820052
 F     10   9   8     2.533274427850   110.79953142    50.02756898
 F     10   9   8     2.529455642830   108.63493714   169.35523750
 F     10   9   8     2.527208643196   110.96044107   288.72891896
 H      2   1   3     1.814137088628   180.00000000     0.00000000

---------------------
BASIS SET INFORMATION
---------------------
There are 4 groups of distinct atoms

 Group   1 Type C   : 11s6p2d1f contracted to 5s3p2d1f pattern {62111/411/11/1}
 Group   2 Type O   : 11s6p2d1f contracted to 5s3p2d1f pattern {62111/411/11/1}
 Group   3 Type F   : 11s6p2d1f contracted to 5s3p2d1f pattern {62111/411/11/1}
 Group   4 Type H   : 5s1p contracted to 3s1p pattern {311/1}

Atom   0C    basis set group =>   1
Atom   1O    basis set group =>   2
Atom   2O    basis set group =>   2
Atom   3C    basis set group =>   1
Atom   4C    basis set group =>   1
Atom   5C    basis set group =>   1
Atom   6C    basis set group =>   1
Atom   7C    basis set group =>   1
Atom   8C    basis set group =>   1
Atom   9C    basis set group =>   1
Atom  10F    basis set group =>   3
Atom  11F    basis set group =>   3
Atom  12F    basis set group =>   3
Atom  13F    basis set group =>   3
Atom  14F    basis set group =>   3
Atom  15F    basis set group =>   3
Atom  16F    basis set group =>   3
Atom  17F    basis set group =>   3
Atom  18F    basis set group =>   3
Atom  19F    basis set group =>   3
Atom  20F    basis set group =>   3
Atom  21F    basis set group =>   3
Atom  22F    basis set group =>   3
Atom  23F    basis set group =>   3
Atom  24H    basis set group =>   4
---------------------------------
AUXILIARY/J BASIS SET INFORMATION
---------------------------------
There are 4 groups of distinct atoms

 Group   1 Type C   : 12s5p4d2f1g contracted to 6s4p3d1f1g pattern {711111/2111/211/2/1}
 Group   2 Type O   : 12s5p4d2f1g contracted to 6s4p3d1f1g pattern {711111/2111/211/2/1}
 Group   3 Type F   : 12s5p4d2f1g contracted to 6s4p3d1f1g pattern {711111/2111/211/2/1}
 Group   4 Type H   : 5s2p1d contracted to 3s1p1d pattern {311/2/1}

Atom   0C    basis set group =>   1
Atom   1O    basis set group =>   2
Atom   2O    basis set group =>   2
Atom   3C    basis set group =>   1
Atom   4C    basis set group =>   1
Atom   5C    basis set group =>   1
Atom   6C    basis set group =>   1
Atom   7C    basis set group =>   1
Atom   8C    basis set group =>   1
Atom   9C    basis set group =>   1
Atom  10F    basis set group =>   3
Atom  11F    basis set group =>   3
Atom  12F    basis set group =>   3
Atom  13F    basis set group =>   3
Atom  14F    basis set group =>   3
Atom  15F    basis set group =>   3
Atom  16F    basis set group =>   3
Atom  17F    basis set group =>   3
Atom  18F    basis set group =>   3
Atom  19F    basis set group =>   3
Atom  20F    basis set group =>   3
Atom  21F    basis set group =>   3
Atom  22F    basis set group =>   3
Atom  23F    basis set group =>   3
Atom  24H    basis set group =>   4


           ************************************************************
           *        Program running with 20 parallel MPI-processes    *
           *              working on a common directory               *
           ************************************************************
------------------------------------------------------------------------------
                             ORCA STARTUP CALCULATIONS
                           -- RI-GTO INTEGRALS CHOSEN --
------------------------------------------------------------------------------
------------------------------------------------------------------------------
                   ___                                                        
                  /   \      - P O W E R E D   B Y -                         
                 /     \                                                     
                 |  |  |   _    _      __       _____    __    __             
                 |  |  |  | |  | |    /  \     |  _  \  |  |  /  |          
                  \  \/   | |  | |   /    \    | | | |  |  | /  /          
                 / \  \   | |__| |  /  /\  \   | |_| |  |  |/  /          
                |  |  |   |  __  | /  /__\  \  |    /   |      \           
                |  |  |   | |  | | |   __   |  |    \   |  |\   \          
                \     /   | |  | | |  |  |  |  | |\  \  |  | \   \       
                 \___/    |_|  |_| |__|  |__|  |_| \__\ |__|  \__/        
                                                                              
                      - O R C A' S   B I G   F R I E N D -                    
                                      &                                       
                       - I N T E G R A L  F E E D E R -                       
                                                                              
 v1 FN, 2020, v2 2021, v3 2022-2024                                           
------------------------------------------------------------------------------


----------------------
SHARK INTEGRAL PACKAGE
----------------------

Number of atoms                             ...     25
Number of basis functions                   ...    750
Number of shells                            ...    268
Maximum angular momentum                    ...      3
Integral batch strategy                     ... SHARK/LIBINT Hybrid
RI-J (if used) integral strategy            ... SPLIT-RIJ (Revised 2003 algorithm where possible)
Printlevel                                  ...      1
Contraction scheme used                     ... SEGMENTED contraction
Prescreening option                         ... SCHWARTZ
   Thresh                                   ... 2.500e-11
   Tcut                                     ... 2.500e-12
   Tpresel                                  ... 2.500e-12 
Coulomb Range Separation                    ... NOT USED
Exchange Range Separation                   ... NOT USED
Multipole approximations                    ... NOT USED
Finite Nucleus Model                        ... NOT USED
CABS basis                                  ... NOT available
Auxiliary Coulomb fitting basis             ... AVAILABLE
   # of basis functions in Aux-J            ...   1187
   # of shells in Aux-J                     ...    365
   Maximum angular momentum in Aux-J        ...      4
Auxiliary J/K fitting basis                 ... NOT available
Auxiliary Correlation fitting basis         ... NOT available
Auxiliary 'external' fitting basis          ... NOT available

Checking pre-screening integrals            ... done (  0.0 sec) Dimension = 268
Check shell pair data                       ... done (  0.0 sec)
Shell pair information
Shell pair cut-off parameter TPreSel        ...   2.5e-12
Total number of shell pairs                 ...     36046
Shell pairs after pre-screening             ...     21880
Total number of primitive shell pairs       ...    118872
Primitive shell pairs kept                  ...     46445
          la=0 lb=0:   4176 shell pairs
          la=1 lb=0:   5973 shell pairs
          la=1 lb=1:   2067 shell pairs
          la=2 lb=0:   3244 shell pairs
          la=2 lb=1:   2375 shell pairs
          la=2 lb=2:    671 shell pairs
          la=3 lb=0:   1475 shell pairs
          la=3 lb=1:   1140 shell pairs
          la=3 lb=2:    611 shell pairs
          la=3 lb=3:    148 shell pairs

Calculating one electron integrals          ... done (  0.0 sec)
Calculating RI/J V-Matrix + Cholesky decomp.... done (  0.1 sec)
Calculating Nuclear repulsion               ... done (  0.0 sec) ENN=   2610.863627261027 Eh

Diagonalization of the overlap matrix:
Smallest eigenvalue                        ... 6.750e-05
Time for diagonalization                   ...    0.161 sec
Threshold for overlap eigenvalues          ... 1.000e-07
Number of eigenvalues below threshold      ... 0
Time for construction of square roots      ...    0.085 sec
Total time needed                          ...    0.254 sec

-------------------
DFT GRID GENERATION
-------------------

General Integration Accuracy     IntAcc      ... 4.388
Radial Grid Type                 RadialGrid  ... OptM3 with GC (2021)
Angular Grid (max. ang.)         AngularGrid ... 4 (Lebedev-302)
Angular grid pruning method      GridPruning ... 4 (adaptive)
Weight generation scheme         WeightScheme... mBecke (2022)
Basis function cutoff            BFCut       ... 1.0000e-11
Integration weight cutoff        WCut        ... 1.0000e-14
Partially contracted basis set               ... off
Rotationally invariant grid construction     ... off
Angular grids for H and He will be reduced by one unit

Total number of grid points                  ...   148757
Total number of batches                      ...     2334
Average number of points per batch           ...       63
Average number of grid points per atom       ...     5950

--------------------
COSX GRID GENERATION
--------------------

GRIDX 1
-------
General Integration Accuracy     IntAcc      ... 3.816
Radial Grid Type                 RadialGrid  ... OptM3 with GC (2021)
Angular Grid (max. ang.)         AngularGrid ... 1 (Lebedev-50)
Angular grid pruning method      GridPruning ... 4 (adaptive)
Weight generation scheme         WeightScheme... mBecke (2022)
Basis function cutoff            BFCut       ... 1.0000e-11
Integration weight cutoff        WCut        ... 1.0000e-14
Partially contracted basis set               ... on
Rotationally invariant grid construction     ... off
Angular grids for H and He will be reduced by one unit

Total number of grid points                  ...    18718
Total number of batches                      ...      158
Average number of points per batch           ...      118
Average number of grid points per atom       ...      749
UseSFitting                                  ... on

GRIDX 2
-------
General Integration Accuracy     IntAcc      ... 4.020
Radial Grid Type                 RadialGrid  ... OptM3 with GC (2021)
Angular Grid (max. ang.)         AngularGrid ... 2 (Lebedev-110)
Angular grid pruning method      GridPruning ... 4 (adaptive)
Weight generation scheme         WeightScheme... mBecke (2022)
Basis function cutoff            BFCut       ... 1.0000e-11
Integration weight cutoff        WCut        ... 1.0000e-14
Partially contracted basis set               ... on
Rotationally invariant grid construction     ... off
Angular grids for H and He will be reduced by one unit

Total number of grid points                  ...    44130
Total number of batches                      ...      360
Average number of points per batch           ...      122
Average number of grid points per atom       ...     1765
UseSFitting                                  ... on

GRIDX 3
-------
General Integration Accuracy     IntAcc      ... 4.338
Radial Grid Type                 RadialGrid  ... OptM3 with GC (2021)
Angular Grid (max. ang.)         AngularGrid ... 3 (Lebedev-194)
Angular grid pruning method      GridPruning ... 4 (adaptive)
Weight generation scheme         WeightScheme... mBecke (2022)
Basis function cutoff            BFCut       ... 1.0000e-11
Integration weight cutoff        WCut        ... 1.0000e-14
Partially contracted basis set               ... on
Rotationally invariant grid construction     ... off
Angular grids for H and He will be reduced by one unit

Total number of grid points                  ...    97719
Total number of batches                      ...      772
Average number of points per batch           ...      126
Average number of grid points per atom       ...     3909
UseSFitting                                  ... on
Initializing property integral containers    ... done (  0.0 sec)

SHARK setup successfully completed in   3.9 seconds

Maximum memory used throughout the entire STARTUP-calculation: 56.7 MB


           ************************************************************
           *        Program running with 20 parallel MPI-processes    *
           *              working on a common directory               *
           ************************************************************
-------------------------------------------------------------------------------
                                 ORCA GUESS
                   Start orbitals & Density for SCF / CASSCF
-------------------------------------------------------------------------------

------------
SCF SETTINGS
------------
Hamiltonian:
 Density Functional     Method          .... DFT(GTOs)
 Exchange Functional    Exchange        .... TPSS
 Correlation Functional Correlation     .... TPSS
 LDA part of GGA corr.  LDAOpt          .... PW91-LDA
 Gradients option       PostSCFGGA      .... off
 Hybrid DFT is turned on
   Fraction HF Exchange ScalHFX         ....  0.100000
   Scaling of DF-GGA-X  ScalDFX         ....  0.900000
   Scaling of DF-GGA-C  ScalDFC         ....  1.000000
   Scaling of DF-LDA-C  ScalLDAC        ....  1.000000
   Perturbative correction              ....  0.000000
   NL short-range parameter             ....  5.200000
 RI-approximation to the Coulomb term is turned on
   Number of AuxJ basis functions       .... 1187
   RIJ-COSX (HFX calculated with COS-X)).... on


General Settings:
 Integral files         IntName         .... rf_mecn_opt_TP_C5_P_B
 Hartree-Fock type      HFTyp           .... UHF
 Total Charge           Charge          ....    0
 Multiplicity           Mult            ....    2
 Number of Electrons    NEL             ....  191
 Basis Dimension        Dim             ....  750
 Nuclear Repulsion      ENuc            ....   2610.8636272610 Eh

Convergence Acceleration:
 AO-DIIS                CNVDIIS         .... on
   Start iteration      DIISMaxIt       ....     0
   Startup error        DIISStart       ....  0.200000
   # of expansion vecs  DIISMaxEq       ....     5
   Bias factor          DIISBfac        ....   1.050
   Max. coefficient     DIISMaxC        ....  10.000
 MO-DIIS                CNVKDIIS        .... off
 Trust-Rad. Augm. Hess. CNVTRAH         .... auto
   Auto Start mean grad. ratio tolernc. ....  1.125000
   Auto Start start iteration           ....    50
   Auto Start num. interpolation iter.  ....    10
   Max. Number of Micro iterations      ....    24
   Max. Number of Macro iterations      .... Maxiter - #DIIS iter
   Number of Davidson start vectors     ....     2
   Converg. threshold    (grad. norm)   ....   1.000e-05
   Grad. Scal. Fac. for Micro threshold ....   0.100
   Minimum threshold for Micro iter.    ....   1.000e-02
   NR start threshold (gradient norm)   ....   1.000e-04
   Initial trust radius                 ....   0.400
   Minimum AH scaling param. (alpha)    ....   1.000
   Maximum AH scaling param. (alpha)    .... 1000.000
   Quad. conv. algorithm                .... NR
   White noise on init. David. guess    .... on
   Maximum white noise                  ....   0.010
   Pseudo random numbers                .... off
   Inactive MOs                         .... canonical
   Orbital update algorithm             .... Taylor
   Preconditioner                       .... Diag
   Full preconditioner red. dimension   ....   250
 SOSCF                  CNVSOSCF        .... on
   Start iteration      SOSCFMaxIt      ....   150
   Startup grad/error   SOSCFStart      ....  0.001000
   Hessian update       SOSCFHessUp     .... L-BFGS
 Level Shifting         CNVShift        .... on
   Level shift para.    LevelShift      ....    0.2500
   Turn off err/grad.   ShiftErr        ....    0.0000
 Zerner damping         CNVZerner       .... off
 Static damping         CNVDamp         .... on
   Fraction old density DampFac         ....    0.8500
   Max. Damping (<1)    DampMax         ....    0.9800
   Min. Damping (>=0)   DampMin         ....    0.0000
   Turn off err/grad.   DampErr         ....    0.0300

SCF Procedure:
 Maximum # iterations   MaxIter         ....  1500
 SCF integral mode      SCFMode         .... Direct
   Integral package                     .... SHARK and LIBINT hybrid scheme
 Reset frequency        DirectResetFreq ....    20
 Integral Threshold     Thresh          ....  2.500e-11 Eh
 Primitive CutOff       TCut            ....  2.500e-12 Eh

Convergence Tolerance:
 Convergence Check Mode ConvCheckMode   .... Total+1el-Energy
 Convergence forced     ConvForced      .... 0
 Energy Change          TolE            ....  1.000e-08 Eh
 1-El. energy change                    ....  1.000e-05 Eh
 Orbital Gradient       TolG            ....  1.000e-05
 Orbital Rotation angle TolX            ....  1.000e-05
 DIIS Error             TolErr          ....  5.000e-07

------------------------------
INITIAL GUESS: MODEL POTENTIAL
------------------------------
Loading Hartree-Fock densities                     ... done
Calculating cut-offs                               ... done
Initializing the effective Hamiltonian             ... done
Setting up the integral package (SHARK)            ... done
Starting the Coulomb interaction                   ... done (   0.2 sec)
Making the grid                                    ... done (   0.5 sec)
Mapping shells                                     ... done
Starting the XC term evaluation                    ... done (   0.2 sec)
  promolecular density results
     # of electrons  =    190.999588269
     EX              =   -197.375237853
     EC              =     -6.682716716
     EX+EC           =   -204.057954569
Transforming the Hamiltonian                       ... done (   0.1 sec)
Diagonalizing the Hamiltonian                      ... done (   0.1 sec)
Back transforming the eigenvectors                 ... done (   0.0 sec)
Now organizing SCF variables                       ... done
                      ------------------
                      INITIAL GUESS DONE (   1.2 sec)
                      ------------------
             **** ENERGY FILE WAS UPDATED (rf_mecn_opt_TP_C5_P_B.en.tmp) ****
Finished Guess after   2.1 sec
Maximum memory used throughout the entire GUESS-calculation: 45.6 MB


           ************************************************************
           *        Program running with 20 parallel MPI-processes    *
           *              working on a common directory               *
           ************************************************************

-------------------------------------------------------------------------------------------
                                      ORCA LEAN-SCF
                              memory conserving SCF solver
-------------------------------------------------------------------------------------------

--------------------
CPCM SOLVATION MODEL
--------------------
CPCM parameters:
  Epsilon                                         ...      35.6880
  Refrac                                          ...       1.3442
  Rsolv                                           ...       1.3000
  Surface type                                    ... GAUSSIAN VDW
  Discretization scheme                           ... Constant charge density
    Threshold for H atoms                         ...       5.0000 (charges/Ang^2)
    Threshold for non-H atoms                     ...       5.0000 (charges/Ang^2)
  Epsilon function type                           ...         CPCM
Solvent:                                          ... ACETONITRILE
SMD-CDS solvent descriptors:
  Soln                                            ...       1.3442
  Soln25                                          ...       1.3416
  Sola                                            ...       0.0700
  Solb                                            ...       0.3200
  Solg                                            ...      41.2500
  Solc                                            ...       0.0000
  Solh                                            ...       0.0000
Radii:
  Scheme                                          ... Element-dependent radii
  Radius for C  used is    3.4960 Bohr (=   1.8500 Ang.)
  Radius for O  used is    4.0969 Bohr (=   2.1680 Ang.)
  Radius for F  used is    3.2692 Bohr (=   1.7300 Ang.)
  Radius for H  used is    2.2677 Bohr (=   1.2000 Ang.)
Calculating surface                               ...        done! (  0.0s)
Cavity surface points                             ...         2172
Cavity Volume                                     ...    2133.8459
Cavity Surface-area                               ...    1120.6189
Calculating surface distance matrix               ...        done! (  0.0s)
Performing Cholesky decomposition & store         ...        done! (  0.1s)
Overall time for CPCM initialization              ...                 0.1s

----------------------------------------D-I-I-S--------------------------------------------
Iteration    Energy (Eh)           Delta-E    RMSDP     MaxDP     DIISErr   Damp  Time(sec)
-------------------------------------------------------------------------------------------
               ***  Starting incremental Fock matrix formation  ***
    1    -1853.8447004039317108     0.00e+00  2.01e-04  1.64e-02  1.43e-01  0.850   7.7
Warning: op=1 Small HOMO/LUMO gap (   0.029) - skipping pre-diagonalization
         Will do a full diagonalization
    2    -1853.9877940939459222    -1.43e-01  1.89e-04  1.49e-02  8.60e-02  0.850   5.4
                               ***Turning on AO-DIIS***
    3    -1854.0566038102697348    -6.88e-02  7.97e-05  4.41e-03  4.89e-02  0.850   4.5
    4    -1854.0968424081511330    -4.02e-02  4.97e-05  5.23e-03  3.43e-02  0.850   4.4
    5    -1854.1253337257185194    -2.85e-02  4.01e-05  5.30e-03  2.68e-02  0.850   4.2
    6    -1854.1480572578411739    -2.27e-02  2.38e-04  3.34e-02  2.47e-02  0.000   3.9
    7    -1854.2705609909216946    -1.23e-01  4.21e-05  4.15e-03  5.14e-03  0.000   4.4
    8    -1854.2708468619002815    -2.86e-04  1.16e-05  1.35e-03  3.79e-03  0.000   4.0
    9    -1854.2709540153382477    -1.07e-04  4.77e-06  3.65e-04  1.03e-03  0.000   3.6
                              *** Initializing SOSCF ***
---------------------------------------S-O-S-C-F--------------------------------------
Iteration    Energy (Eh)           Delta-E    RMSDP     MaxDP     MaxGrad    Time(sec)
--------------------------------------------------------------------------------------
   10    -1854.2709718687437999    -1.79e-05  2.68e-06  3.43e-04  2.49e-04     4.0
               *** Restarting incremental Fock matrix formation ***
   11    -1854.2709824570929413    -1.06e-05  2.81e-06  2.70e-04  1.56e-04     7.2
   12    -1854.2709822696160700     1.87e-07  2.11e-06  1.96e-04  4.48e-04     4.7
   13    -1854.2709838730797856    -1.60e-06  1.62e-06  8.80e-05  2.09e-04     4.4
   14    -1854.2709835595924233     3.13e-07  8.70e-07  6.07e-05  1.24e-04     4.2
   15    -1854.2709842688818753    -7.09e-07  3.63e-07  2.85e-05  1.85e-05     4.1
   16    -1854.2709842722761096    -3.39e-09  1.84e-07  1.82e-05  2.51e-05     3.7
                 **** Energy Check signals convergence ****

               *****************************************************
               *                     SUCCESS                       *
               *           SCF CONVERGED AFTER  16 CYCLES          *
               *****************************************************

Recomputing exchange energy using gridx3       ... done (    8.372 sec)
Old exchange energy                            :    -19.880879124 Eh
New exchange energy                            :    -19.880886806 Eh
Exchange energy change after final integration :     -0.000007682 Eh
Total energy after final integration           :  -1854.270991954 Eh

SMD CDS free energy correction energy :                 3.65834     Kcal/mol
Total Energy after SMD CDS correction =             -1854.265162015 Eh
             **** ENERGY FILE WAS UPDATED (rf_mecn_opt_TP_C5_P_B.en.tmp) ****

----------------
TOTAL SCF ENERGY
----------------

Total Energy       :      -1854.26516201506070 Eh          -50457.12025 eV

Components:
Nuclear Repulsion  :       2610.86362726102743 Eh           71045.21117 eV
Electronic Energy  :      -4465.11768973660037 Eh         -121502.02938 eV
One Electron Energy:      -7773.76529964852489 Eh         -211534.90803 eV
Two Electron Energy:       3308.64760991192497 Eh           90032.87865 eV
CPCM Dielectric    :         -0.01692179670362 Eh              -0.46047 eV
SMD CDS (Gcds)     :          0.00582993876917 Eh               0.15864 eV

Virial components:
Potential Energy   :      -3701.13615966989073 Eh         -100713.03506 eV
Kinetic Energy     :       1846.87099765482981 Eh           50255.91481 eV
Virial Ratio       :          2.00400361712844

DFT components:
N(Alpha)           :       95.999985226228 electrons
N(Beta)            :       94.999974259220 electrons
N(Total)           :      190.999959485448 electrons
E(X)               :     -180.726984310182 Eh       
E(C)               :       -6.697937288203 Eh       
E(XC)              :     -187.424921598384 Eh       

CPCM Solvation Model Properties:
Surface-charge          :         -0.00881147981741
Corrected charge        :          0.00000000000000
Outlying charge corr.   :          0.00000422050327 Eh               0.00011 eV
Free-energy (cav+disp)  :          0.00582993876917 Eh               0.15864 eV

---------------
SCF CONVERGENCE
---------------

  Last Energy change         ...    3.3942e-09  Tolerance :   1.0000e-08
  Last MAX-Density change    ...    1.8169e-05  Tolerance :   1.0000e-07
  Last RMS-Density change    ...    1.8435e-07  Tolerance :   5.0000e-09
  Last DIIS Error            ...    2.4949e-04  Tolerance :   5.0000e-07
  Last Orbital Gradient      ...    2.5062e-05  Tolerance :   1.0000e-05
  Last Orbital Rotation      ...    2.4289e-05  Tolerance :   1.0000e-05


----------------------
UHF SPIN CONTAMINATION
----------------------

Warning: in a DFT calculation there is little theoretical justification to 
         calculate <S**2> as in Hartree-Fock theory. We will do it anyways
         but you should keep in mind that the values have only limited relevance

Expectation value of <S**2>     :     0.753889
Ideal value S*(S+1) for S=0.5   :     0.750000
Deviation                       :     0.003889

----------------
ORBITAL ENERGIES
----------------
                 SPIN UP ORBITALS
  NO   OCC          E(Eh)            E(eV) 
   0   1.0000     -24.666068      -671.1978 
   1   1.0000     -24.661126      -671.0634 
   2   1.0000     -24.660362      -671.0426 
   3   1.0000     -24.659354      -671.0151 
   4   1.0000     -24.658894      -671.0026 
   5   1.0000     -24.658785      -670.9996 
   6   1.0000     -24.658692      -670.9971 
   7   1.0000     -24.657354      -670.9607 
   8   1.0000     -24.657257      -670.9581 
   9   1.0000     -24.655866      -670.9202 
  10   1.0000     -24.653112      -670.8453 
  11   1.0000     -24.652162      -670.8194 
  12   1.0000     -24.648464      -670.7188 
  13   1.0000     -24.648460      -670.7187 
  14   1.0000     -19.130246      -520.5605 
  15   1.0000     -19.098321      -519.6917 
  16   1.0000     -10.395536      -282.8769 
  17   1.0000     -10.345448      -281.5140 
  18   1.0000     -10.344549      -281.4895 
  19   1.0000     -10.342861      -281.4435 
  20   1.0000     -10.341663      -281.4110 
  21   1.0000     -10.341077      -281.3950 
  22   1.0000     -10.340021      -281.3663 
  23   1.0000     -10.282254      -279.7944 
  24   1.0000      -1.320315       -35.9276 
  25   1.0000      -1.292847       -35.1802 
  26   1.0000      -1.286387       -35.0044 
  27   1.0000      -1.275280       -34.7021 
  28   1.0000      -1.270072       -34.5604 
  29   1.0000      -1.256775       -34.1986 
  30   1.0000      -1.252752       -34.0891 
  31   1.0000      -1.235475       -33.6190 
  32   1.0000      -1.230674       -33.4883 
  33   1.0000      -1.226536       -33.3757 
  34   1.0000      -1.225209       -33.3396 
  35   1.0000      -1.219951       -33.1966 
  36   1.0000      -1.216843       -33.1120 
  37   1.0000      -1.203823       -32.7577 
  38   1.0000      -1.066444       -29.0194 
  39   1.0000      -0.979464       -26.6526 
  40   1.0000      -0.826277       -22.4841 
  41   1.0000      -0.809389       -22.0246 
  42   1.0000      -0.785354       -21.3706 
  43   1.0000      -0.748638       -20.3715 
  44   1.0000      -0.715706       -19.4754 
  45   1.0000      -0.685107       -18.6427 
  46   1.0000      -0.659731       -17.9522 
  47   1.0000      -0.644908       -17.5488 
  48   1.0000      -0.619522       -16.8580 
  49   1.0000      -0.612082       -16.6556 
  50   1.0000      -0.608688       -16.5632 
  51   1.0000      -0.602880       -16.4052 
  52   1.0000      -0.599178       -16.3045 
  53   1.0000      -0.594206       -16.1692 
  54   1.0000      -0.584293       -15.8994 
  55   1.0000      -0.582900       -15.8615 
  56   1.0000      -0.573379       -15.6024 
  57   1.0000      -0.568544       -15.4709 
  58   1.0000      -0.560415       -15.2497 
  59   1.0000      -0.554342       -15.0844 
  60   1.0000      -0.551455       -15.0059 
  61   1.0000      -0.543974       -14.8023 
  62   1.0000      -0.501049       -13.6342 
  63   1.0000      -0.483110       -13.1461 
  64   1.0000      -0.480790       -13.0829 
  65   1.0000      -0.479114       -13.0374 
  66   1.0000      -0.474937       -12.9237 
  67   1.0000      -0.472016       -12.8442 
  68   1.0000      -0.469761       -12.7828 
  69   1.0000      -0.465962       -12.6795 
  70   1.0000      -0.458403       -12.4738 
  71   1.0000      -0.454186       -12.3590 
  72   1.0000      -0.451962       -12.2985 
  73   1.0000      -0.449273       -12.2253 
  74   1.0000      -0.446048       -12.1376 
  75   1.0000      -0.442855       -12.0507 
  76   1.0000      -0.438469       -11.9313 
  77   1.0000      -0.433350       -11.7920 
  78   1.0000      -0.431458       -11.7406 
  79   1.0000      -0.430367       -11.7109 
  80   1.0000      -0.423269       -11.5177 
  81   1.0000      -0.422601       -11.4996 
  82   1.0000      -0.418925       -11.3995 
  83   1.0000      -0.416943       -11.3456 
  84   1.0000      -0.415018       -11.2932 
  85   1.0000      -0.412827       -11.2336 
  86   1.0000      -0.411661       -11.2019 
  87   1.0000      -0.408267       -11.1095 
  88   1.0000      -0.405966       -11.0469 
  89   1.0000      -0.392438       -10.6788 
  90   1.0000      -0.365476        -9.9451 
  91   1.0000      -0.343452        -9.3458 
  92   1.0000      -0.329082        -8.9548 
  93   1.0000      -0.325811        -8.8658 
  94   1.0000      -0.298053        -8.1104 
  95   1.0000      -0.289056        -7.8656 
  96   0.0000      -0.110373        -3.0034 
  97   0.0000      -0.033176        -0.9028 
  98   0.0000      -0.012547        -0.3414 
  99   0.0000       0.007883         0.2145 
 100   0.0000       0.015376         0.4184 
 101   0.0000       0.031364         0.8534 
 102   0.0000       0.061418         1.6713 
 103   0.0000       0.080792         2.1985 
 104   0.0000       0.092260         2.5105 
 105   0.0000       0.094674         2.5762 
 106   0.0000       0.104450         2.8422 

                 SPIN DOWN ORBITALS
  NO   OCC          E(Eh)            E(eV) 
   0   1.0000     -24.661867      -671.0835 
   1   1.0000     -24.661124      -671.0633 
   2   1.0000     -24.660358      -671.0425 
   3   1.0000     -24.659354      -671.0151 
   4   1.0000     -24.658764      -670.9991 
   5   1.0000     -24.658666      -670.9964 
   6   1.0000     -24.657834      -670.9738 
   7   1.0000     -24.657238      -670.9576 
   8   1.0000     -24.655939      -670.9222 
   9   1.0000     -24.655768      -670.9176 
  10   1.0000     -24.653110      -670.8452 
  11   1.0000     -24.652143      -670.8189 
  12   1.0000     -24.648464      -670.7188 
  13   1.0000     -24.648458      -670.7186 
  14   1.0000     -19.130248      -520.5605 
  15   1.0000     -19.098321      -519.6917 
  16   1.0000     -10.395551      -282.8773 
  17   1.0000     -10.345226      -281.5079 
  18   1.0000     -10.344559      -281.4898 
  19   1.0000     -10.342648      -281.4378 
  20   1.0000     -10.341639      -281.4103 
  21   1.0000     -10.341145      -281.3969 
  22   1.0000     -10.340025      -281.3664 
  23   1.0000     -10.265914      -279.3497 
  24   1.0000      -1.320287       -35.9268 
  25   1.0000      -1.291457       -35.1423 
  26   1.0000      -1.285894       -34.9910 
  27   1.0000      -1.274753       -34.6878 
  28   1.0000      -1.269212       -34.5370 
  29   1.0000      -1.256213       -34.1833 
  30   1.0000      -1.245931       -33.9035 
  31   1.0000      -1.235177       -33.6109 
  32   1.0000      -1.230670       -33.4882 
  33   1.0000      -1.225558       -33.3491 
  34   1.0000      -1.224604       -33.3232 
  35   1.0000      -1.219469       -33.1834 
  36   1.0000      -1.216079       -33.0912 
  37   1.0000      -1.203812       -32.7574 
  38   1.0000      -1.066448       -29.0195 
  39   1.0000      -0.979465       -26.6526 
  40   1.0000      -0.819116       -22.2893 
  41   1.0000      -0.809111       -22.0170 
  42   1.0000      -0.777757       -21.1638 
  43   1.0000      -0.747125       -20.3303 
  44   1.0000      -0.713654       -19.4195 
  45   1.0000      -0.682738       -18.5782 
  46   1.0000      -0.658348       -17.9146 
  47   1.0000      -0.641663       -17.4605 
  48   1.0000      -0.618139       -16.8204 
  49   1.0000      -0.610085       -16.6013 
  50   1.0000      -0.608314       -16.5531 
  51   1.0000      -0.601859       -16.3774 
  52   1.0000      -0.598058       -16.2740 
  53   1.0000      -0.593091       -16.1388 
  54   1.0000      -0.583157       -15.8685 
  55   1.0000      -0.581114       -15.8129 
  56   1.0000      -0.571560       -15.5529 
  57   1.0000      -0.566984       -15.4284 
  58   1.0000      -0.559679       -15.2297 
  59   1.0000      -0.550786       -14.9877 
  60   1.0000      -0.548655       -14.9297 
  61   1.0000      -0.543104       -14.7786 
  62   1.0000      -0.484102       -13.1731 
  63   1.0000      -0.481513       -13.1026 
  64   1.0000      -0.479232       -13.0406 
  65   1.0000      -0.477451       -12.9921 
  66   1.0000      -0.474218       -12.9041 
  67   1.0000      -0.470196       -12.7947 
  68   1.0000      -0.466883       -12.7045 
  69   1.0000      -0.464192       -12.6313 
  70   1.0000      -0.457805       -12.4575 
  71   1.0000      -0.453678       -12.3452 
  72   1.0000      -0.448750       -12.2111 
  73   1.0000      -0.447170       -12.1681 
  74   1.0000      -0.445403       -12.1200 
  75   1.0000      -0.439938       -11.9713 
  76   1.0000      -0.436881       -11.8881 
  77   1.0000      -0.432385       -11.7658 
  78   1.0000      -0.430357       -11.7106 
  79   1.0000      -0.427753       -11.6398 
  80   1.0000      -0.422915       -11.5081 
  81   1.0000      -0.422092       -11.4857 
  82   1.0000      -0.418431       -11.3861 
  83   1.0000      -0.416510       -11.3338 
  84   1.0000      -0.414646       -11.2831 
  85   1.0000      -0.412481       -11.2242 
  86   1.0000      -0.410619       -11.1735 
  87   1.0000      -0.407928       -11.1003 
  88   1.0000      -0.405378       -11.0309 
  89   1.0000      -0.391058       -10.6412 
  90   1.0000      -0.363756        -9.8983 
  91   1.0000      -0.342547        -9.3212 
  92   1.0000      -0.326809        -8.8929 
  93   1.0000      -0.325703        -8.8628 
  94   1.0000      -0.297740        -8.1019 
  95   0.0000      -0.149420        -4.0659 
  96   0.0000      -0.110310        -3.0017 
  97   0.0000      -0.030419        -0.8277 
  98   0.0000      -0.009408        -0.2560 
  99   0.0000       0.012071         0.3285 
 100   0.0000       0.018017         0.4903 
 101   0.0000       0.035449         0.9646 
 102   0.0000       0.068299         1.8585 
 103   0.0000       0.084704         2.3049 
 104   0.0000       0.092776         2.5246 
 105   0.0000       0.097900         2.6640 
*Only the first 10 virtual orbitals were printed.

                    ********************************
                    * MULLIKEN POPULATION ANALYSIS *
                    ********************************

--------------------------------------------
MULLIKEN ATOMIC CHARGES AND SPIN POPULATIONS
--------------------------------------------
   0 C :    0.340307   -0.000156
   1 O :   -0.428749   -0.000049
   2 O :   -0.367909    0.000002
   3 C :    0.344241   -0.000397
   4 C :    0.306598   -0.006952
   5 C :    0.328986    0.012172
   6 C :    0.078122    0.849664
   7 C :    0.333597    0.007094
   8 C :    0.304009    0.001891
   9 C :    0.408254   -0.000179
  10 F :   -0.164412    0.000080
  11 F :   -0.165461   -0.000043
  12 F :   -0.154256    0.001294
  13 F :   -0.158808    0.000228
  14 F :   -0.148046    0.029414
  15 F :   -0.157841   -0.000030
  16 F :   -0.137943    0.081690
  17 F :   -0.156024    0.000538
  18 F :   -0.148746    0.023094
  19 F :   -0.151946    0.000291
  20 F :   -0.150987    0.000237
  21 F :   -0.137873    0.000041
  22 F :   -0.134371    0.000027
  23 F :   -0.134545    0.000058
  24 H :    0.453804   -0.000010
Sum of atomic charges         :   -0.0000000
Sum of atomic spin populations:    1.0000000

-----------------------------------------------------
MULLIKEN REDUCED ORBITAL CHARGES AND SPIN POPULATIONS
-----------------------------------------------------
CHARGE
  0 C s       :     3.173129  s :     3.173129
      pz      :     0.790479  p :     2.252948
      px      :     0.801087
      py      :     0.661383
      dz2     :     0.016464  d :     0.215558
      dxz     :     0.015270
      dyz     :     0.059807
      dx2y2   :     0.054525
      dxy     :     0.069492
      f0      :     0.001777  f :     0.018057
      f+1     :     0.001068
      f-1     :     0.002333
      f+2     :     0.002564
      f-2     :     0.001954
      f+3     :     0.003872
      f-3     :     0.004489

  1 O s       :     3.667439  s :     3.667439
      pz      :     1.716556  p :     4.744549
      px      :     1.685052
      py      :     1.342941
      dz2     :     0.001650  d :     0.013920
      dxz     :     0.001192
      dyz     :     0.003042
      dx2y2   :     0.003131
      dxy     :     0.004905
      f0      :     0.000275  f :     0.002841
      f+1     :     0.000128
      f-1     :     0.000381
      f+2     :     0.000245
      f-2     :     0.000431
      f+3     :     0.000941
      f-3     :     0.000439

  2 O s       :     3.884481  s :     3.884481
      pz      :     1.533570  p :     4.458242
      px      :     1.688129
      py      :     1.236543
      dz2     :     0.003113  d :     0.023871
      dxz     :     0.000327
      dyz     :     0.006322
      dx2y2   :     0.008801
      dxy     :     0.005308
      f0      :     0.000118  f :     0.001315
      f+1     :     0.000012
      f-1     :     0.000225
      f+2     :     0.000230
      f-2     :     0.000030
      f+3     :     0.000297
      f-3     :     0.000404

  3 C s       :     3.095926  s :     3.095926
      pz      :     0.687821  p :     2.260937
      px      :     0.920850
      py      :     0.652266
      dz2     :     0.048304  d :     0.273229
      dxz     :     0.055324
      dyz     :     0.067584
      dx2y2   :     0.046833
      dxy     :     0.055184
      f0      :     0.005379  f :     0.025668
      f+1     :     0.003635
      f-1     :     0.003959
      f+2     :     0.003698
      f-2     :     0.002114
      f+3     :     0.003831
      f-3     :     0.003052

  4 C s       :     3.103953  s :     3.103953
      pz      :     0.618685  p :     2.266737
      px      :     0.937091
      py      :     0.710961
      dz2     :     0.063173  d :     0.294780
      dxz     :     0.061900
      dyz     :     0.070603
      dx2y2   :     0.036646
      dxy     :     0.062458
      f0      :     0.003623  f :     0.027932
      f+1     :     0.004975
      f-1     :     0.008098
      f+2     :     0.002404
      f-2     :     0.002708
      f+3     :     0.003626
      f-3     :     0.002498

  5 C s       :     3.125914  s :     3.125914
      pz      :     0.595961  p :     2.210439
      px      :     0.901777
      py      :     0.712701
      dz2     :     0.076359  d :     0.306384
      dxz     :     0.066568
      dyz     :     0.061769
      dx2y2   :     0.037316
      dxy     :     0.064371
      f0      :     0.005125  f :     0.028277
      f+1     :     0.004419
      f-1     :     0.006117
      f+2     :     0.003392
      f-2     :     0.004419
      f+3     :     0.002617
      f-3     :     0.002189

  6 C s       :     3.330193  s :     3.330193
      pz      :     0.759428  p :     2.425007
      px      :     0.905642
      py      :     0.759936
      dz2     :     0.038678  d :     0.150798
      dxz     :     0.029119
      dyz     :     0.023510
      dx2y2   :     0.022347
      dxy     :     0.037144
      f0      :     0.003294  f :     0.015880
      f+1     :     0.002525
      f-1     :     0.002218
      f+2     :     0.001836
      f-2     :     0.002869
      f+3     :     0.001617
      f-3     :     0.001521

  7 C s       :     3.099929  s :     3.099929
      pz      :     0.589534  p :     2.231137
      px      :     0.935050
      py      :     0.706554
      dz2     :     0.074832  d :     0.307155
      dxz     :     0.067215
      dyz     :     0.063016
      dx2y2   :     0.038101
      dxy     :     0.063991
      f0      :     0.004906  f :     0.028182
      f+1     :     0.004352
      f-1     :     0.006411
      f+2     :     0.003203
      f-2     :     0.004435
      f+3     :     0.002736
      f-3     :     0.002138

  8 C s       :     3.102564  s :     3.102564
      pz      :     0.626339  p :     2.272089
      px      :     0.942667
      py      :     0.703083
      dz2     :     0.060253  d :     0.293245
      dxz     :     0.061963
      dyz     :     0.072985
      dx2y2   :     0.037286
      dxy     :     0.060758
      f0      :     0.003600  f :     0.028092
      f+1     :     0.005014
      f-1     :     0.008318
      f+2     :     0.002390
      f-2     :     0.002452
      f+3     :     0.003871
      f-3     :     0.002448

  9 C s       :     3.024788  s :     3.024788
      pz      :     0.665952  p :     2.166586
      px      :     0.822211
      py      :     0.678423
      dz2     :     0.067488  d :     0.360281
      dxz     :     0.070787
      dyz     :     0.087719
      dx2y2   :     0.065185
      dxy     :     0.069101
      f0      :     0.004467  f :     0.040091
      f+1     :     0.008023
      f-1     :     0.008939
      f+2     :     0.004493
      f-2     :     0.003166
      f+3     :     0.007544
      f-3     :     0.003459

 10 F s       :     3.922224  s :     3.922224
      pz      :     1.891390  p :     5.227002
      px      :     1.882387
      py      :     1.453225
      dz2     :     0.002050  d :     0.014553
      dxz     :     0.000306
      dyz     :     0.002789
      dx2y2   :     0.005518
      dxy     :     0.003890
      f0      :     0.000050  f :     0.000633
      f+1     :     0.000015
      f-1     :     0.000127
      f+2     :     0.000071
      f-2     :     0.000018
      f+3     :     0.000169
      f-3     :     0.000182

 11 F s       :     3.921584  s :     3.921584
      pz      :     1.468566  p :     5.229182
      px      :     1.897693
      py      :     1.862923
      dz2     :     0.006363  d :     0.014073
      dxz     :     0.003312
      dyz     :     0.003532
      dx2y2   :     0.000429
      dxy     :     0.000437
      f0      :     0.000225  f :     0.000622
      f+1     :     0.000135
      f-1     :     0.000182
      f+2     :     0.000037
      f-2     :     0.000038
      f+3     :     0.000003
      f-3     :     0.000003

 12 F s       :     3.919018  s :     3.919018
      pz      :     1.804535  p :     5.218868
      px      :     1.900266
      py      :     1.514067
      dz2     :     0.001992  d :     0.015669
      dxz     :     0.000771
      dyz     :     0.005059
      dx2y2   :     0.004673
      dxy     :     0.003175
      f0      :     0.000079  f :     0.000700
      f+1     :     0.000004
      f-1     :     0.000121
      f+2     :     0.000188
      f-2     :     0.000064
      f+3     :     0.000107
      f-3     :     0.000138

 13 F s       :     3.920897  s :     3.920897
      pz      :     1.441696  p :     5.221691
      px      :     1.902822
      py      :     1.877173
      dz2     :     0.008002  d :     0.015533
      dxz     :     0.003584
      dyz     :     0.003393
      dx2y2   :     0.000271
      dxy     :     0.000283
      f0      :     0.000344  f :     0.000687
      f+1     :     0.000152
      f-1     :     0.000162
      f+2     :     0.000011
      f-2     :     0.000017
      f+3     :     0.000001
      f-3     :     0.000001

 14 F s       :     3.917799  s :     3.917799
      pz      :     1.701536  p :     5.213841
      px      :     1.894044
      py      :     1.618261
      dz2     :     0.002589  d :     0.015709
      dxz     :     0.001553
      dyz     :     0.006174
      dx2y2   :     0.002925
      dxy     :     0.002469
      f0      :     0.000078  f :     0.000696
      f+1     :     0.000013
      f-1     :     0.000189
      f+2     :     0.000194
      f-2     :     0.000103
      f+3     :     0.000058
      f-3     :     0.000062

 15 F s       :     3.917838  s :     3.917838
      pz      :     1.495362  p :     5.223660
      px      :     1.904175
      py      :     1.824122
      dz2     :     0.006514  d :     0.015647
      dxz     :     0.003106
      dyz     :     0.004647
      dx2y2   :     0.000596
      dxy     :     0.000785
      f0      :     0.000235  f :     0.000696
      f+1     :     0.000106
      f-1     :     0.000240
      f+2     :     0.000051
      f-2     :     0.000057
      f+3     :     0.000005
      f-3     :     0.000004

 16 F s       :     3.923756  s :     3.923756
      pz      :     1.573665  p :     5.197367
      px      :     1.905277
      py      :     1.718424
      dz2     :     0.004743  d :     0.016142
      dxz     :     0.002291
      dyz     :     0.005745
      dx2y2   :     0.001809
      dxy     :     0.001555
      f0      :     0.000117  f :     0.000678
      f+1     :     0.000044
      f-1     :     0.000237
      f+2     :     0.000139
      f-2     :     0.000094
      f+3     :     0.000023
      f-3     :     0.000024

 17 F s       :     3.919029  s :     3.919029
      pz      :     1.713339  p :     5.220435
      px      :     1.901184
      py      :     1.605911
      dz2     :     0.002448  d :     0.015858
      dxz     :     0.001467
      dyz     :     0.006229
      dx2y2   :     0.003176
      dxy     :     0.002538
      f0      :     0.000078  f :     0.000703
      f+1     :     0.000010
      f-1     :     0.000181
      f+2     :     0.000203
      f-2     :     0.000098
      f+3     :     0.000063
      f-3     :     0.000070

 18 F s       :     3.918860  s :     3.918860
      pz      :     1.490943  p :     5.213409
      px      :     1.897415
      py      :     1.825051
      dz2     :     0.006630  d :     0.015779
      dxz     :     0.003303
      dyz     :     0.004596
      dx2y2   :     0.000567
      dxy     :     0.000684
      f0      :     0.000243  f :     0.000698
      f+1     :     0.000115
      f-1     :     0.000233
      f+2     :     0.000046
      f-2     :     0.000054
      f+3     :     0.000004
      f-3     :     0.000003

 19 F s       :     3.918820  s :     3.918820
      pz      :     1.814739  p :     5.216664
      px      :     1.898918
      py      :     1.503007
      dz2     :     0.001991  d :     0.015762
      dxz     :     0.000630
      dyz     :     0.004891
      dx2y2   :     0.004906
      dxy     :     0.003345
      f0      :     0.000079  f :     0.000700
      f+1     :     0.000004
      f-1     :     0.000119
      f+2     :     0.000182
      f-2     :     0.000055
      f+3     :     0.000114
      f-3     :     0.000148

 20 F s       :     3.916590  s :     3.916590
      pz      :     1.437762  p :     5.217772
      px      :     1.899510
      py      :     1.880500
      dz2     :     0.008298  d :     0.015911
      dxz     :     0.003841
      dyz     :     0.003373
      dx2y2   :     0.000195
      dxy     :     0.000203
      f0      :     0.000364  f :     0.000715
      f+1     :     0.000168
      f-1     :     0.000159
      f+2     :     0.000009
      f-2     :     0.000013
      f+3     :     0.000001
      f-3     :     0.000001

 21 F s       :     3.913092  s :     3.913092
      pz      :     1.854450  p :     5.208011
      px      :     1.888669
      py      :     1.464892
[...]
      f-3     :    -0.000002

 15 F s       :     0.000124  s :     0.000124
      pz      :    -0.000535  p :     0.006317
      px      :    -0.000466
      py      :     0.007318
      dz2     :    -0.000053  d :    -0.000083
      dxz     :    -0.000125
      dyz     :     0.000063
      dx2y2   :     0.000014
      dxy     :     0.000018
      f0      :    -0.000004  f :    -0.000008
      f+1     :    -0.000005
      f-1     :    -0.000000
      f+2     :     0.000002
      f-2     :    -0.000000
      f+3     :    -0.000000
      f-3     :     0.000000

 16 F s       :     0.002339  s :     0.002339
      pz      :     0.022547  p :     0.095971
      px      :     0.000246
      py      :     0.073178
      dz2     :     0.005778  d :     0.010274
      dxz     :     0.000191
      dyz     :     0.002311
      dx2y2   :     0.001653
      dxy     :     0.000340
      f0      :     0.000353  f :     0.000539
      f+1     :     0.000019
      f-1     :     0.000001
      f+2     :     0.000115
      f-2     :     0.000019
      f+3     :     0.000013
      f-3     :     0.000017

 17 F s       :     0.000915  s :     0.000915
      pz      :     0.006025  p :     0.007411
      px      :    -0.000249
      py      :     0.001636
      dz2     :    -0.000024  d :    -0.000154
      dxz     :     0.000026
      dyz     :     0.000011
      dx2y2   :    -0.000028
      dxy     :    -0.000140
      f0      :    -0.000000  f :    -0.000009
      f+1     :     0.000001
      f-1     :    -0.000002
      f+2     :    -0.000001
      f-2     :    -0.000003
      f+3     :    -0.000005
      f-3     :    -0.000001

 18 F s       :     0.000950  s :     0.000950
      pz      :     0.004570  p :     0.010734
      px      :     0.006291
      py      :    -0.000127
      dz2     :    -0.000083  d :    -0.000088
      dxz     :    -0.000009
      dyz     :    -0.000017
      dx2y2   :     0.000016
      dxy     :     0.000004
      f0      :    -0.000005  f :    -0.000006
      f+1     :     0.000000
      f-1     :    -0.000000
      f+2     :    -0.000001
      f-2     :    -0.000001
      f+3     :     0.000001
      f-3     :     0.000000

 19 F s       :     0.000082  s :     0.000082
      pz      :     0.000630  p :     0.000349
      px      :     0.000164
      py      :    -0.000445
      dz2     :     0.000021  d :     0.000175
      dxz     :     0.000025
      dyz     :     0.000021
      dx2y2   :     0.000120
      dxy     :    -0.000011
      f0      :     0.000000  f :     0.000011
      f+1     :     0.000001
      f-1     :     0.000004
      f+2     :     0.000000
      f-2     :     0.000002
      f+3     :    -0.000000
      f-3     :     0.000005

 20 F s       :     0.000204  s :     0.000204
      pz      :    -0.000035  p :     0.000550
      px      :     0.000152
      py      :     0.000433
      dz2     :     0.000025  d :     0.000203
      dxz     :     0.000020
      dyz     :     0.000042
      dx2y2   :     0.000083
      dxy     :     0.000034
      f0      :     0.000002  f :     0.000012
      f+1     :     0.000001
      f-1     :     0.000002
      f+2     :     0.000004
      f-2     :     0.000003
      f+3     :     0.000001
      f-3     :     0.000000

 21 F s       :    -0.000002  s :    -0.000002
      pz      :     0.000015  p :     0.000024
      px      :    -0.000044
      py      :     0.000053
      dz2     :     0.000000  d :     0.000025
      dxz     :    -0.000002
      dyz     :     0.000002
      dx2y2   :     0.000000
      dxy     :     0.000024
      f0      :     0.000000  f :     0.000001
      f+1     :    -0.000000
      f-1     :     0.000000
      f+2     :     0.000000
      f-2     :     0.000000
      f+3     :     0.000001
      f-3     :     0.000000

 22 F s       :     0.000123  s :     0.000123
      pz      :     0.000290  p :     0.002216
      px      :     0.001856
      py      :     0.000070
      dz2     :     0.000001  d :     0.000078
      dxz     :     0.000025
      dyz     :     0.000002
      dx2y2   :     0.000009
      dxy     :     0.000041
      f0      :     0.000000  f :     0.000004
      f+1     :     0.000000
      f-1     :     0.000000
      f+2     :     0.000000
      f-2     :     0.000002
      f+3     :     0.000001
      f-3     :     0.000001

 23 F s       :    -0.000002  s :    -0.000002
      pz      :    -0.000031  p :    -0.000006
      px      :    -0.000147
      py      :     0.000172
      dz2     :     0.000008  d :     0.000023
      dxz     :     0.000011
      dyz     :     0.000000
      dx2y2   :    -0.000001
      dxy     :     0.000005
      f0      :     0.000001  f :     0.000001
      f+1     :     0.000000
      f-1     :     0.000000
      f+2     :     0.000000
      f-2     :     0.000000
      f+3     :    -0.000000
      f-3     :     0.000000

 24 H s       :     0.000024  s :     0.000024
      pz      :     0.000001  p :    -0.000000
      px      :    -0.000001
      py      :    -0.000000



                      *****************************
                      * MAYER POPULATION ANALYSIS *
                      *****************************

  NA   - Mulliken gross atomic population
  ZA   - Total nuclear charge
  QA   - Mulliken gross atomic charge
  VA   - Mayer's total valence
  BVA  - Mayer's bonded valence
  FA   - Mayer's free valence

  ATOM       NA         ZA         QA         VA         BVA        FA
  0 C      5.7752     6.0000     0.2248     4.4040     4.4040     0.0000
  1 O      8.3388     8.0000    -0.3388     2.1973     2.1973     0.0000
  2 O      8.2892     8.0000    -0.2892     2.2134     2.2134     0.0000
  3 C      5.6185     6.0000     0.3815     4.1734     4.1734     0.0000
  4 C      5.7323     6.0000     0.2677     4.1579     4.1579     0.0001
  5 C      5.6799     6.0000     0.3201     4.2894     4.2862     0.0032
  6 C      5.8658     6.0000     0.1342     3.9536     3.3678     0.5857
  7 C      5.6915     6.0000     0.3085     4.2842     4.2811     0.0031
  8 C      5.7082     6.0000     0.2918     4.1895     4.1888     0.0007
  9 C      5.5884     6.0000     0.4116     4.5700     4.5700     0.0000
 10 F      9.1592     9.0000    -0.1592     1.1613     1.1613     0.0000
 11 F      9.1560     9.0000    -0.1560     1.1679     1.1679     0.0000
 12 F      9.1573     9.0000    -0.1573     1.1724     1.1724     0.0000
 13 F      9.1572     9.0000    -0.1572     1.1699     1.1699     0.0000
 14 F      9.1613     9.0000    -0.1613     1.1497     1.1486     0.0011
 15 F      9.1571     9.0000    -0.1571     1.1631     1.1631     0.0001
 16 F      9.1257     9.0000    -0.1257     1.2258     1.2141     0.0117
 17 F      9.1537     9.0000    -0.1537     1.1689     1.1688     0.0001
 18 F      9.1539     9.0000    -0.1539     1.1699     1.1698     0.0002
 19 F      9.1534     9.0000    -0.1534     1.1722     1.1722     0.0000
 20 F      9.1519     9.0000    -0.1519     1.1757     1.1757     0.0000
 21 F      9.1368     9.0000    -0.1368     1.1877     1.1877     0.0000
 22 F      9.1350     9.0000    -0.1350     1.1881     1.1881     0.0000
 23 F      9.1359     9.0000    -0.1359     1.1892     1.1892     0.0000
 24 H      0.6178     1.0000     0.3822     0.8791     0.8791     0.0000

  Mayer bond orders larger than 0.100000
B(  0-C ,  1-O ) :   1.3127 B(  0-C ,  2-O ) :   2.0716 B(  0-C ,  3-C ) :   0.9024 
B(  1-O , 24-H ) :   0.8195 B(  3-C ,  4-C ) :   0.9510 B(  3-C , 10-F ) :   1.1020 
B(  3-C , 11-F ) :   1.1208 B(  4-C ,  5-C ) :   0.9380 B(  4-C , 12-F ) :   1.0929 
B(  4-C , 13-F ) :   1.0788 B(  5-C ,  6-C ) :   1.0664 B(  5-C , 14-F ) :   1.0790 
B(  5-C , 15-F ) :   1.0754 B(  6-C ,  7-C ) :   1.0282 B(  6-C , 16-F ) :   1.1351 
B(  7-C ,  8-C ) :   0.9325 B(  7-C , 17-F ) :   1.1025 B(  7-C , 18-F ) :   1.0952 
B(  8-C ,  9-C ) :   0.9677 B(  8-C , 19-F ) :   1.0879 B(  8-C , 20-F ) :   1.0959 
B(  9-C , 21-F ) :   1.1657 B(  9-C , 22-F ) :   1.1576 B(  9-C , 23-F ) :   1.1675 


-------
TIMINGS
-------

Total SCF time: 0 days 0 hours 0 min 47 sec 

Total time                  ....      47.037 sec
Sum of individual times     ....      45.676 sec  ( 97.1%)

SCF preparation             ....       1.276 sec  (  2.7%)
Fock matrix formation       ....      39.188 sec  ( 83.3%)
  Startup                   ....       0.168 sec  (  0.4% of F)
  Split-RI-J                ....       2.461 sec  (  6.3% of F)
  Chain of spheres X        ....      25.082 sec  ( 64.0% of F)
  XC integration            ....       8.661 sec  ( 22.1% of F)
    Basis function eval.    ....       0.566 sec  (  6.5% of XC)
    Density eval.           ....       2.579 sec  ( 29.8% of XC)
    XC-Functional eval.     ....       0.107 sec  (  1.2% of XC)
    XC-Potential eval.      ....       2.468 sec  ( 28.5% of XC)
  CPCM terms                ....       2.385 sec  (  6.1% of F)
Diagonalization             ....       0.000 sec  (  0.0%)
Density matrix formation    ....       0.516 sec  (  1.1%)
Total Energy calculation    ....       0.294 sec  (  0.6%)
Population analysis         ....       0.458 sec  (  1.0%)
Orbital Transformation      ....       0.468 sec  (  1.0%)
Orbital Orthonormalization  ....       0.000 sec  (  0.0%)
DIIS solution               ....       0.615 sec  (  1.3%)
SOSCF solution              ....       2.860 sec  (  6.1%)
Finished LeanSCF after  47.5 sec

Maximum memory used throughout the entire LEANSCF-calculation: 109.4 MB


-------------------------------------------------------------------------------
                          DFT DISPERSION CORRECTION                            
                                                                               
                              DFTD3 V3.1  Rev 1                                
                          USING Becke-Johnson damping                          
-------------------------------------------------------------------------------
The TPSSH functional is recognized
Active option DFTDOPT                   ...         4   

molecular C6(AA) [au] = 6514.610555 


            DFT-D V3
 parameters
 s6 scaling factor         :     1.0000 
 a1 scaling factor         :     0.4529 
 s8 scaling factor         :     2.2382 
 a2 scaling factor         :     4.6550 
 ad hoc parameters k1-k3   :    16.0000     1.3333    -4.0000 

 Edisp/kcal,au: -18.662366347145  -0.029740370668 
 E6   /kcal   :  -9.049594271 
 E8   /kcal   :  -9.612772076 
 % E8         :  51.508859579 

-------------------------   ----------------
Dispersion correction           -0.029740371
-------------------------   ----------------


-------------------------   --------------------
FINAL SINGLE POINT ENERGY     -1854.409446524882
-------------------------   --------------------

                                *** OPTIMIZATION RUN DONE ***



           ************************************************************
           *        Program running with 20 parallel MPI-processes    *
           *              working on a common directory               *
           ************************************************************

------------------------------------------------------------------------------
                              ORCA PROPERTY CALCULATIONS
------------------------------------------------------------------------------

GBWName                                 ... rf_mecn_opt_TP_C5_P_B.gbw
Number of atoms                         ...     25
Number of basis functions               ...    750
Max core memory                         ...   8000 MB

Electric properties:
Dipole moment                           ... YES
Quadrupole moment                       ...  NO
Static polarizability (Dipole/Dipole)   ...  NO
Static polarizability (Dipole/Quad.)    ...  NO
Static polarizability (Quad./Quad.)     ...  NO
Static polarizability (Velocity)        ...  NO

Atomic electric properties:
Dipole moment                           ...  NO
Quadrupole moment                       ...  NO
Static polarizability                   ...  NO

Choice of electric origin               ... Center of mass
Position of electric origin             ...    -0.036987    -0.302947    -0.133447

General magnetic properties:
Magnetizability                         ...  NO

EPR properties:
g-Tensor (aka g-matrix)                 ...  NO
Zero-Field splitting spin-orbit         ...  NO
Zero-field splitting spin-spin          ...  NO
Hyperfine couplings                     ...  NO (   0 nuclei)
Quadrupole couplings                    ...  NO (   0 nuclei)
Contact density                         ...  NO (   0 nuclei)

NMR properties:
Chemical shifts                         ...  NO (   0 nuclei)
Spin-rotation constants                 ...  NO (   0 nuclei)
Spin-spin couplings                     ...  NO (   0 nuclei,    0 pairs)

Choice of magnetic origin               ... GIAO
Position of magnetic origin             ...     0.000000     0.000000     0.000000

Properties with geometric perturbations:
SCF Hessian                             ...  NO
IR spectrum                             ...  NO
VCD spectrum                            ...  NO
X-ray spectroscopy properties:
SCF XES/XAS/RIXS spectra                ...  NO


-------------
DIPOLE MOMENT
-------------

Method             : SCF
Type of density    : Electron Density
Multiplicity       :   2
Irrep              :   0
Energy             : -1854.3797061542143183 Eh
Relativity type    : 
Basis              : AO
                                X                 Y                 Z
Electronic contribution:    -14.094935227      -1.490440067      -0.031593394
Nuclear contribution   :     15.069885102       1.332389035      -0.739262066
                        -----------------------------------------
Total Dipole Moment    :      0.974949876      -0.158051032      -0.770855460
                        -----------------------------------------
Magnitude (a.u.)       :      1.252886878
Magnitude (Debye)      :      3.184585361



--------------------
Rotational spectrum 
--------------------
 
Rotational constants in cm-1:             0.018916             0.004181             0.004077 
Rotational constants in MHz :           567.099193           125.349142           122.238435 

Dipole components along the rotational axes: 
x,y,z [a.u.] :     0.985940     0.643447     0.428512 
x,y,z [Debye]:     2.506061     1.635513     1.089191 

 

Dipole moment calculation done in   0.1 sec 

Maximum memory used throughout the entire PROP-calculation: 56.9 MB

--------------------------------
SUGGESTED CITATIONS FOR THIS RUN
--------------------------------

Below you find a list of papers that are relevant to this ORCA run
We neither can nor want to force you to cite these papers, but we appreciate if you do
You receive ORCA, which is the product of decades of hard work by many enthusiastic individuals, for free
The only thing we kindly ask in return is that you cite our papers,
We deeply appreciate it, if you show your appreciation for ORCA by not just citing the generic ORCA reference.

Please note that relegating all ORCA citations to the supporting information does *not* help us.
SI sections are not indexed - citations you put there will not count into any citation statistics
But we need these citations in order to attract the funding resources that allow us to do what we are doing

Therefore, if you are a happy ORCA user, please consider citing a few of the papers listed below in the main body of your paper

In addition to the list printed below, the program has created the file rf_mecn_opt_TP_C5_P_B.bibtex that contains the list in bibtex format
You can import this file easily into all common literature databanks and citation aid programs


List of essential papers. We consider these as the minimum necessary citations

  1. Neese,F.
     Software update: the ORCA program system, version 5.0
     WIRES Comput. Molec. Sci., 2022 12(1)e1606
     doi.org/10.1002/wcms.1606

List of papers to cite with high priority. The work reported in these papers was absolutely
necessary for this run to complete.
Our perspective: the developers of density functionals and basis sets usually get cited in chemistry papers
Good! But without the algorithms to do something with them, the functionals or basis sets would not do anything.
Hence, in our opinion, the algorithm design and method developments papers are equally worthy of getting cited

  1. Neese,F.
     An improvement of the resolution of the identity approximation for the formation of the Coulomb matrix
     J. Comp. Chem., 2003 24(14)1740-1747
     doi.org/10.1002/jcc.10318
  2. Neese,F.; Wennmohs,F.; Hansen,A.; Becker,U.
     Efficient, approximate and parallel Hartree-Fock and hybrid DFT calculations. A 'chain-of-spheres' algorithm for the Hartree-Fock exchange
     Chem. Phys., 2009 356(1-3)98-109
     doi.org/10.1016/j.chemphys.2008.10.036
  3. Garcia-Rates,M.; Neese,F.
     Effect of the Solute Cavity on the Solvation Energy and its Derivatives within the Framework of the Gaussian Charge Scheme
     J. Comput. Chem., 2020 41 922-939
     doi.org/10.1002/jcc.26139
  4. Helmich-Paris,B.; de Souza,B.; Neese,F.; Izsák,R.
     An improved chain of spheres for exchange algorithm
     J. Chem. Phys., 2021 155 104109
     doi.org/doi: 10.1063/5.0058766.
  5. Neese,F.
     The SHARK Integral Generation and Digestion System
     J. Comp. Chem., 2022  1-16
     doi.org/10.1002/jcc.26942
  6. Grimme,S.; Antony,J.; Ehrlich,S.; Krieg,H.
     A consistent and accurate ab initio parametrization of density functional dispersion correction (DFT-D) for the 94 elements H-Pu
     J. Chem. Phys., 2010 132 154104
     doi.org/10.1063/1.3382344
  7. Grimme,S.; Ehrlich,S.; Goerigk,L.
     Effect of the damping function in dispersion corrected density functional theory
     J. Comput. Chem., 2011 32(7)1456-1465
     doi.org/10.1002/jcc.21759

List of suggested additional citations. These are papers that are important in the 'surrounding' of 
of this run, or papers that preceded the highly important papers. If you like your results we are grateful for a citation.

  1. Izsak,R.; Neese,F.
     An overlap fitted chain of spheres exchange method
     J. Chem. Phys., 2011 135 144105
     doi.org/10.1063/1.3646921
  2. Izsak,R.; Hansen,A.; Neese,F.
     The resolution of identity and chain of spheres approximations for the LPNO-CCSD singles Fock term
     Molec. Phys., 2012 110 2413-2417
     doi.org/10.1080/00268976.2012.687466
  3. Neese,F.
     The ORCA program system
     WIRES Comput. Molec. Sci., 2012 2(1)73-78
     doi.org/10.1002/wcms.81
  4. Izsak,R.; Neese,F.; Klopper,W.
     Robust fitting techniques in the chain of spheres approximation to the Fock exchange: The role of the complementary space
     J. Chem. Phys., 2013 139 
     doi.org/10.1063/1.4819264
  5. Neese,F.
     Software update: the ORCA program system, version 4.0
     WIRES Comput. Molec. Sci., 2018 8(1)1-6
     doi.org/10.1002/wcms.1327
  6. Neese,F.; Wennmohs,F.; Becker,U.; Riplinger,C.
     The ORCA quantum chemistry program package
     J. Chem. Phys., 2020 152 Art. No. L224108
     doi.org/10.1063/5.0004608

List of optional additional citations

  1. Neese,F.
     Approximate second-order SCF convergence for spin unrestricted wavefunctions
     Chem. Phys. Lett., 2000 325(1-3)93-98
     doi.org/10.1016/s0009-2614(00)00662-x

Timings for individual modules:

Sum of individual times          ...     3795.783 sec (=  63.263 min)
Startup calculation              ...      182.811 sec (=   3.047 min)   4.8 %
SCF iterations                   ...     2734.270 sec (=  45.571 min)  72.0 %
Property calculations            ...        1.050 sec (=   0.017 min)   0.0 %
SCF Gradient evaluation          ...      876.720 sec (=  14.612 min)  23.1 %
Geometry relaxation              ...        0.932 sec (=   0.016 min)   0.0 %
                             ****ORCA TERMINATED NORMALLY****
TOTAL RUN TIME: 0 days 1 hours 3 minutes 44 seconds 790 msec
