
                                 *****************
                                 * O   R   C   A *
                                 *****************

                                            #,                                       
                                            ###                                      
                                            ####                                     
                                            #####                                    
                                            ######                                   
                                           ########,                                 
                                     ,,################,,,,,                         
                               ,,#################################,,                 
                          ,,##########################################,,             
                       ,#########################################, ''#####,          
                    ,#############################################,,   '####,        
                  ,##################################################,,,,####,       
                ,###########''''           ''''###############################       
              ,#####''   ,,,,##########,,,,          '''####'''          '####       
            ,##' ,,,,###########################,,,                        '##       
           ' ,,###''''                  '''############,,,                           
         ,,##''                                '''############,,,,        ,,,,,,###''
      ,#''                                            '''#######################'''  
     '                                                          ''''####''''         
             ,#######,   #######,   ,#######,      ##                                
            ,#'     '#,  ##    ##  ,#'     '#,    #''#        ,####,   ,####,        
            ##       ##  ##   ,#'  ##            #'  '#       #'       #'  '#        
            ##       ##  #######   ##           ,######,      #####,   #    #        
            '#,     ,#'  ##    ##  '#,     ,#' ,#      #,     #,   #   #,  ,#        
             '#######'   ##     ##  '#######'  #'      '#     '####' # '####'        



                #########################################################
                #                        -***-                          #
                #          Department of theory and spectroscopy        #
                #                                                       #
                #                      Frank Neese                      #
                #                                                       #
                #     Directorship, Architecture, Infrastructure        #
                #                    SHARK, DRIVERS                     #
                #        Core code/Algorithms in most modules           #
                #                                                       #
                #        Max Planck Institute fuer Kohlenforschung      #
                #                Kaiser Wilhelm Platz 1                 #
                #                 D-45470 Muelheim/Ruhr                 #
                #                      Germany                          #
                #                                                       #
                #                  All rights reserved                  #
                #                        -***-                          #
                #########################################################


                         Program Version 6.0.1  -  RELEASE   -


 With contributions from (in alphabetic order):
[Max-Planck-Institut fuer Kohlenforschung]                               
  Daniel Aravena         : Magnetic Suceptibility                        
  Michael Atanasov       : Ab Initio Ligand Field Theory (pilot matlab implementation)
  Alexander A. Auer      : GIAO ZORA, VPT2 properties, NMR spectrum      
  Ute Becker             : All parallelization in ORCA, NUMFREQ, NUMCALC 
  Giovanni Bistoni       : ED, misc. LED, open-shell LED, HFLD           
  Martin Brehm           : Molecular dynamics                            
  Dmytro Bykov           : pre 5.0 version of the SCF Hessian            
  Marcos Casanova-Páez   : Triplet and SCS-CIS(D). UHF-(DLPNO)-IP/EA/STEOM-CCSD. UHF-CVS-IP/STEOM-CCSD   
  Vijay G. Chilkuri      : MRCI spin determinant printing, contributions to CSF-ICE 
  Pauline Colinet        : FMM embedding                                 
  Dipayan Datta          : RHF DLPNO-CCSD density                        
  Achintya Kumar Dutta   : EOM-CC, STEOM-CC                              
  Nicolas Foglia         : Exact transition moments, OPA infrastructure, MCD improvements    
  Dmitry Ganyushin       : Spin-Orbit,Spin-Spin,Magnetic field MRCI      
  Miquel Garcia-Rates    : C-PCM and meta-GGA Hessian, CCSD/C-PCM, Gaussian charge scheme 
  Tiago L. C. Gouveia    : GS-ROHF, GS-ROCIS                             
  Yang Guo               : DLPNO-NEVPT2, F12-NEVPT2, CIM, IAO-localization        
  Andreas Hansen         : Spin unrestricted coupled pair/coupled cluster methods 
  Ingolf Harden          : AUTO-CI MPn and infrastructure                
  Benjamin Helmich-Paris : MC-RPA, TRAH-(SCF,CASSCF), AVAS, COSX integrals, SCF dyn. polar. 
  Lee Huntington         : MR-EOM, pCC                                   
  Robert Izsak           : Overlap fitted RIJCOSX, COSX-SCS-MP3, EOM     
  Riya Kayal             : Wick's Theorem for AUTO-CI, AUTO-CI UHF-CCSDT 
  Emily Kempfer          : AUTO-CI, RHF CISDT and CCSDT                  
  Christian Kollmar      : KDIIS, OOCD, Brueckner-CCSD(T), CCSD density, CASPT2, CASPT2-K, improved NEVPT2 
  Axel Koslowski         : Symmetry handling                             
  Simone Kossmann        : meta-GGA functionals, TD-DFT gradient, OOMP2, (MP2 Hessian; deprecated post 5.0) 
  Lucas Lang             : DCDCAS                                        
  Marvin Lechner         : AUTO-CI (C++ implementation), FIC-MRCC        
  Spencer Leger          : CASSCF response                               
  Dagmar Lenk            : GEPOL surface, SMD, ORCA-2-JSON               
  Dimitrios Liakos       : Extrapolation schemes; Compound Job, initial MDCI parallelization 
  Dimitrios Manganas     : Further ROCIS development; embedding schemes. LFT, Crystal Embedding 
  Dimitrios Pantazis     : SARC Basis sets                               
  Anastasios Papadopoulos: AUTO-CI, single reference methods and gradients 
  Taras Petrenko         : pre 6.0 DFT Hessian and TD-DFT gradient, (ASA, deprecated), ECA, 1-Electron XAS/XES, NRVS 
  Peter Pinski           : DLPNO-MP2, DLPNO-MP2 Gradient                 
  Christoph Reimann      : Effective Core Potentials                     
  Marius Retegan         : Local ZFS, SOC                                
  Christoph Riplinger    : Optimizer, TS searches, QM/MM, DLPNO-CCSD(T), (RO)-DLPNO pert. Triples 
  Michael Roemelt        : Original ROCIS implementation                 
  Masaaki Saitow         : Open-shell DLPNO-CCSD energy and density      
  Barbara Sandhoefer     : DKH picture change effects                    
  Kantharuban Sivalingam : CASSCF convergence/infrastructure, NEVPT2 and variants, FIC-MRCI 
  Bernardo de Souza      : ESD, SOC TD-DFT                               
  Georgi L. Stoychev     : AutoAux, RI-MP2 NMR, DLPNO-MP2 response, X2C  
  Van Anh Tran           : RI-MP2 g-tensors                              
  Willem Van den Heuvel  : Paramagnetic NMR                              
  Zikuan Wang            : NOTCH, Electric field optimization            
  Frank Wennmohs         : Technical directorship and infrastructure     
  Hang Xu                : AUTO-CI-Response properties                   
                                                                         
[FACCTs GmbH]                                                            
  Markus Bursch, Miquel Garcia-Rates, Christoph Riplinger, Bernardo de Souza, Georgi L. Stoychev 
                                                                 
  APM, Basis sets (HGBS, AHGBS, def-TZVP (Ac-Lr), def2-XVPD (La-Lu)), CI-OPT, improved COSX, DLPNO-Multilevel,           
  DOCKER, DRACO, updates on ESD, GOAT, IRC, LR-CPCM, MBIS, meta-GGA TD-DFT gradient, ML-optimized integration grids, 
  MM, NACMEs, nearIR, NEB, NEB-TS, NL-DFT gradient (VV10), 2- and 3-layer-ONIOM, interface openCOSMO-RS, QMMM,   
  Crystal-QMMM, SF, symmetry and pop. for TD-DFT, r2SCAN hybrids, SOLVATOR                                   
                                                                         
[Other institutions]                                                     
  V. Asgeirsson          : NEB                                           
  Christoph Bannwarth    : sTDA-DFT, sTD-DFT, PBEh-3c, B97-3c, D3        
  Sebastian Ehlert       : rSCAN, r2SCAN, r2SCAN-3c, D4, dhf basis sets  
  Marvin Friede          : D4 for Fr, Ra, Ac-Lr                          
  Lars Goerigk           : TD-DFT with DH, B97 family of functionals     
  Stefan Grimme          : VdW corrections, initial TS optimization, DFT functionals, gCP, sTDA/sTD-DF 
  Waldemar Hujo          : DFT-NL                                        
  H. Jonsson             : NEB                                           
  Holger Kruse           : gCP                                           
  Marcel Mueller         : wB97X-3c, vDZP basis set                      
  Hagen Neugebauer       : wr2SCAN                                       
  Tobias Risthaus        : range-separated hybrid DFT                    
  Lukas Wittmann         : regularized MP2, r2SCAN double-hybrids, wr2SCAN        
                                                                         
We gratefully acknowledge several colleagues who have allowed us to      
interface, adapt or use parts of their codes:                            
  Ed Valeev, F. Pavosevic, A. Kumar             : LibInt (2-el integral package), F12 methods 
  Garnet Chan, S. Sharma, J. Yang, R. Olivares  : DMRG                   
  Ulf Ekstrom                                   : XCFun DFT Library      
  Mihaly Kallay                                 : mrcc  (arbitrary order and MRCC methods)
  Frank Weinhold                                : gennbo (NPA and NBO analysis)           
  Simon Mueller                                 : openCOSMO-RS                            
  Christopher J. Cramer and Donald G. Truhlar   : smd solvation model                     
  S Lehtola, MJT Oliveira, MAL Marques          : LibXC Library                           
  Liviu Ungur et al                             : ANISO software                          


 Your calculation uses the libint2 library for the computation of 2-el integrals
 For citations please refer to: http://libint.valeyev.net

 Your ORCA version has been built with support for libXC version: 6.2.2
 For citations please refer to: https://libxc.gitlab.io

 This ORCA versions uses:
   CBLAS   interface :  Fast vector & matrix operations
   LAPACKE interface :  Fast linear algebra routines
   SCALAPACK package :  Parallel linear algebra routines
   Shared memory     :  Shared parallel matrices
   BLAS/LAPACK       :  OpenBLAS 0.3.27  USE64BITINT DYNAMIC_ARCH NO_AFFINITY SkylakeX SINGLE_THREADED
        Core in use  :  SkylakeX
   Copyright (c) 2011-2014, The OpenBLAS Project


NOTE: MaxCore=8000 MB was set to SCF,MP2,MDCI,CIPSI,MRCI and CIS
      => If you want to overwrite this, your respective input block should be placed after the MaxCore statement
Your calculation utilizes the atom-pairwise dispersion correction
with the Becke-Johnson damping scheme (D3BJ)


Your calculation utilizes the SMD solvation module
Please cite in your paper:
A.V. Marenich, C.J. Cramer, D.G. Truhlar J. Phys. Chem. B, 113, (2009), 6378 

Warning: RI is on but no J-basis has been assigned. Assigning Def2/J (nothing to worry about!)
================================================================================

----- Orbital basis set information -----
Your calculation utilizes the basis: def2-TZVP
   F. Weigend and R. Ahlrichs, Phys. Chem. Chem. Phys. 7, 3297 (2005).

----- AuxJ basis set information -----
Your calculation utilizes the auxiliary basis: def2/J
   F. Weigend, Phys. Chem. Chem. Phys. 8, 1057 (2006).

================================================================================
                                        WARNINGS
                       Please study these warnings very carefully!
================================================================================


WARNING: your system is open-shell and RHF/RKS was chosen
  ===> : WILL SWITCH to UHF/UKS


================================================================================
                                       INPUT FILE
================================================================================
NAME = rf_mecn_1H2O_freq_B3L_sw_04.inp
|  1> !B3LYP def2-TZVP freq d3 TightSCF SlowConv defgrid2
|  2>  
|  3> %pal
|  4> nprocs 20
|  5> end
|  6>  
|  7> %scf
|  8> MaxIter 1500
|  9> end
| 10>  
| 11> %maxcore 8000
| 12>  
| 13> !CPCM
| 14> %cpcm smd true
| 15> SMDsolvent "ACETONITRILE"
| 16> end
| 17>  
| 18> * xyz -2 2
| 19> 6        6.859799000     28.308382000      2.613032000
| 20> 6        6.310756000     26.874593000      2.807087000
| 21> 6        6.911482000     25.618673000      2.095870000
| 22> 6        6.433969000     24.116596000      2.196213000
| 23> 6        7.039291000     22.865127000      1.472613000
| 24> 6        6.529752000     21.407102000      1.721235000
| 25> 6        7.017643000     20.251552000      0.796699000
| 26> 6        6.681268000     18.817959000      1.347801000
| 27> 9        6.772201000     28.682229000      1.326845000
| 28> 9        8.146326000     28.381730000      2.988996000
| 29> 9        6.187107000     29.247227000      3.338770000
| 30> 9        6.389030000     26.642705000      4.161124000
| 31> 9        4.986278000     26.947333000      2.444177000
| 32> 9        6.833388000     25.921108000      0.737862000
| 33> 9        8.244323000     25.600662000      2.486975000
| 34> 9        6.516703000     23.815995000      3.553335000
| 35> 9        5.100047000     24.149386000      1.817844000
| 36> 9        6.902190000     23.099921000      0.123750000
| 37> 9        8.379976000     22.860404000      1.779336000
| 38> 9        6.872433000     21.073759000      3.002140000
| 39> 9        5.166437000     21.428223000      1.650777000
| 40> 9        6.451781000     20.434429000     -0.438066000
| 41> 9        8.367792000     20.398655000      0.622225000
| 42> 8        7.611520000     18.226617000      1.908196000
| 43> 8        5.495253000     18.457890000      1.171438000
| 44> 8        3.244888000     19.245862000     -0.190165000
| 45> 1        3.119582000     18.478231000     -0.760346000
| 46> 1        4.087538000     19.064965000      0.284853000
| 47> *
| 48> 
| 49>                          ****END OF INPUT****
================================================================================

                       ****************************
                       * Single Point Calculation *
                       ****************************

---------------------------------
CARTESIAN COORDINATES (ANGSTROEM)
---------------------------------
  C      6.859799   28.308382    2.613032
  C      6.310756   26.874593    2.807087
  C      6.911482   25.618673    2.095870
  C      6.433969   24.116596    2.196213
  C      7.039291   22.865127    1.472613
  C      6.529752   21.407102    1.721235
  C      7.017643   20.251552    0.796699
  C      6.681268   18.817959    1.347801
  F      6.772201   28.682229    1.326845
  F      8.146326   28.381730    2.988996
  F      6.187107   29.247227    3.338770
  F      6.389030   26.642705    4.161124
  F      4.986278   26.947333    2.444177
  F      6.833388   25.921108    0.737862
  F      8.244323   25.600662    2.486975
  F      6.516703   23.815995    3.553335
  F      5.100047   24.149386    1.817844
  F      6.902190   23.099921    0.123750
  F      8.379976   22.860404    1.779336
  F      6.872433   21.073759    3.002140
  F      5.166437   21.428223    1.650777
  F      6.451781   20.434429   -0.438066
  F      8.367792   20.398655    0.622225
  O      7.611520   18.226617    1.908196
  O      5.495253   18.457890    1.171438
  O      3.244888   19.245862   -0.190165
  H      3.119582   18.478231   -0.760346
  H      4.087538   19.064965    0.284853

----------------------------
CARTESIAN COORDINATES (A.U.)
----------------------------
  NO LB      ZA    FRAG     MASS         X           Y           Z
   0 C     6.0000    0    12.011   12.963141   53.495089    4.937915
   1 C     6.0000    0    12.011   11.925601   50.785621    5.304626
   2 C     6.0000    0    12.011   13.060808   48.412276    3.960620
   3 C     6.0000    0    12.011   12.158439   45.573762    4.150241
   4 C     6.0000    0    12.011   13.302332   43.208828    2.782835
   5 C     6.0000    0    12.011   12.339443   40.453560    3.252663
   6 C     6.0000    0    12.011   13.261423   38.269887    1.505543
   7 C     6.0000    0    12.011   12.625767   35.560789    2.546975
   8 F     9.0000    0    18.998   12.797605   54.201558    2.507374
   9 F     9.0000    0    18.998   15.394325   53.633697    5.648384
  10 F     9.0000    0    18.998   11.691938   55.269249    6.309361
  11 F     9.0000    0    18.998   12.073517   50.347416    7.863385
  12 F     9.0000    0    18.998    9.422700   50.923079    4.618825
  13 F     9.0000    0    18.998   12.913232   48.983795    1.394357
  14 F     9.0000    0    18.998   15.579513   48.378240    4.699702
  15 F     9.0000    0    18.998   12.314784   45.005708    6.714830
  16 F     9.0000    0    18.998    9.637692   45.635726    3.435227
  17 F     9.0000    0    18.998   13.043249   43.652524    0.233854
  18 F     9.0000    0    18.998   15.835860   43.199903    3.362458
  19 F     9.0000    0    18.998   12.987016   39.823633    5.673222
  20 F     9.0000    0    18.998    9.763151   40.493473    3.119516
  21 F     9.0000    0    18.998   12.192099   38.615475   -0.827825
  22 F     9.0000    0    18.998   15.812835   38.547871    1.175835
  23 O     8.0000    0    15.999   14.383688   34.443314    3.605968
  24 O     8.0000    0    15.999   10.384523   34.880357    2.213697
  25 O     8.0000    0    15.999    6.131950   36.369408   -0.359360
  26 H     1.0000    0     1.008    5.895156   34.918796   -1.436846
  27 H     1.0000    0     1.008    7.724327   36.027563    0.538294

--------------------------------
INTERNAL COORDINATES (ANGSTROEM)
--------------------------------
 C      0   0   0     0.000000000000     0.00000000     0.00000000
 C      1   0   0     1.547532376203     0.00000000     0.00000000
 C      2   1   0     1.563341419705   123.43106211     0.00000000
 C      3   2   1     1.579342488742   128.24094553   180.82944223
 C      4   3   2     1.567222492706   127.83192582   179.65737548
 C      5   4   3     1.564378404361   123.02864188   176.15236727
 C      6   5   4     1.558236261187   119.66201638   169.92635274
 C      7   6   5     1.572275562577   113.65397671   167.35341055
 F      1   2   3     1.342278655117   110.79641496    60.62408157
 F      1   2   3     1.342341454373   110.82646275   300.24055764
 F      1   2   3     1.364052823586   113.32874076   180.41792049
 F      2   1   3     1.375977856286   105.03172372   122.52202699
 F      2   1   3     1.375222435893   105.04621793   237.28828540
 F      3   2   1     1.393467376771   104.32747868   302.94532548
 F      3   2   1     1.389155372313   104.53749447    57.72410964
 F      4   3   2     1.392474774939   104.43441960   301.85370826
 F      4   3   2     1.386934095891   104.53517843    56.48428317
 F      5   4   3     1.375992841335   106.13274951   298.74485023
 F      5   4   3     1.375331805305   106.03842077    53.94558286
 F      6   5   4     1.367210825892   107.12720224   292.11105187
 F      6   5   4     1.365297848687   107.61506717    47.56857297
 F      7   6   5     1.370506623624   107.83797476   290.12912431
 F      7   6   5     1.369300110088   107.73763186    44.30390188
 O      8   7   6     1.236566496592   115.71749687   259.72587328
 O      8   7   6     1.251952544131   114.55298426    78.47450307
 O     25   8   7     2.745724901664   139.79526688    10.40032177
 H     26  25   8     0.964398941599    99.86066019   118.60685277
 H     26  25   8     0.984085792720     6.32187944   341.00464479

---------------------------
INTERNAL COORDINATES (A.U.)
---------------------------
 C      0   0   0     0.000000000000     0.00000000     0.00000000
 C      1   0   0     2.924412374399     0.00000000     0.00000000
 C      2   1   0     2.954287137058   123.43106211     0.00000000
 C      3   2   1     2.984524775389   128.24094553   180.82944223
 C      4   3   2     2.961621302137   127.83192582   179.65737548
 C      5   4   3     2.956246754062   123.02864188   176.15236727
 C      6   5   4     2.944639785588   119.66201638   169.92635274
 C      7   6   5     2.971170220328   113.65397671   167.35341055
 F      1   2   3     2.536539053579   110.79641496    60.62408157
 F      1   2   3     2.536657726975   110.82646275   300.24055764
 F      1   2   3     2.577686268780   113.32874076   180.41792049
 F      2   1   3     2.600221314720   105.03172372   122.52202699
 F      2   1   3     2.598793777062   105.04621793   237.28828540
 F      3   2   1     2.633271718651   104.32747868   302.94532548
 F      3   2   1     2.625123211138   104.53749447    57.72410964
 F      4   3   2     2.631395973028   104.43441960   301.85370826
 F      4   3   2     2.620925607032   104.53517843    56.48428317
 F      5   4   3     2.600249632360   106.13274951   298.74485023
 F      5   4   3     2.599000455298   106.03842077    53.94558286
 F      6   5   4     2.583654028267   107.12720224   292.11105187
 F      6   5   4     2.580039025251   107.61506717    47.56857297
 F      7   6   5     2.589882183375   107.83797476   290.12912431
 F      7   6   5     2.587602203214   107.73763186    44.30390188
 O      8   7   6     2.336772024941   115.71749687   259.72587328
 O      8   7   6     2.365847441073   114.55298426    78.47450307
 O     25   8   7     5.188668103233   139.79526688    10.40032177
 H     26  25   8     1.822449883466    99.86066019   118.60685277
 H     26  25   8     1.859652640523     6.32187944   341.00464479

---------------------
BASIS SET INFORMATION
---------------------
There are 4 groups of distinct atoms

 Group   1 Type C   : 11s6p2d1f contracted to 5s3p2d1f pattern {62111/411/11/1}
 Group   2 Type F   : 11s6p2d1f contracted to 5s3p2d1f pattern {62111/411/11/1}
 Group   3 Type O   : 11s6p2d1f contracted to 5s3p2d1f pattern {62111/411/11/1}
 Group   4 Type H   : 5s1p contracted to 3s1p pattern {311/1}

Atom   0C    basis set group =>   1
Atom   1C    basis set group =>   1
Atom   2C    basis set group =>   1
Atom   3C    basis set group =>   1
Atom   4C    basis set group =>   1
Atom   5C    basis set group =>   1
Atom   6C    basis set group =>   1
Atom   7C    basis set group =>   1
Atom   8F    basis set group =>   2
Atom   9F    basis set group =>   2
Atom  10F    basis set group =>   2
Atom  11F    basis set group =>   2
Atom  12F    basis set group =>   2
Atom  13F    basis set group =>   2
Atom  14F    basis set group =>   2
Atom  15F    basis set group =>   2
Atom  16F    basis set group =>   2
Atom  17F    basis set group =>   2
Atom  18F    basis set group =>   2
Atom  19F    basis set group =>   2
Atom  20F    basis set group =>   2
Atom  21F    basis set group =>   2
Atom  22F    basis set group =>   2
Atom  23O    basis set group =>   3
Atom  24O    basis set group =>   3
Atom  25O    basis set group =>   3
Atom  26H    basis set group =>   4
Atom  27H    basis set group =>   4
---------------------------------
AUXILIARY/J BASIS SET INFORMATION
---------------------------------
There are 4 groups of distinct atoms

 Group   1 Type C   : 12s5p4d2f1g contracted to 6s4p3d1f1g pattern {711111/2111/211/2/1}
 Group   2 Type F   : 12s5p4d2f1g contracted to 6s4p3d1f1g pattern {711111/2111/211/2/1}
 Group   3 Type O   : 12s5p4d2f1g contracted to 6s4p3d1f1g pattern {711111/2111/211/2/1}
 Group   4 Type H   : 5s2p1d contracted to 3s1p1d pattern {311/2/1}

Atom   0C    basis set group =>   1
Atom   1C    basis set group =>   1
Atom   2C    basis set group =>   1
Atom   3C    basis set group =>   1
Atom   4C    basis set group =>   1
Atom   5C    basis set group =>   1
Atom   6C    basis set group =>   1
Atom   7C    basis set group =>   1
Atom   8F    basis set group =>   2
Atom   9F    basis set group =>   2
Atom  10F    basis set group =>   2
Atom  11F    basis set group =>   2
Atom  12F    basis set group =>   2
Atom  13F    basis set group =>   2
Atom  14F    basis set group =>   2
Atom  15F    basis set group =>   2
Atom  16F    basis set group =>   2
Atom  17F    basis set group =>   2
Atom  18F    basis set group =>   2
Atom  19F    basis set group =>   2
Atom  20F    basis set group =>   2
Atom  21F    basis set group =>   2
Atom  22F    basis set group =>   2
Atom  23O    basis set group =>   3
Atom  24O    basis set group =>   3
Atom  25O    basis set group =>   3
Atom  26H    basis set group =>   4
Atom  27H    basis set group =>   4


           ************************************************************
           *        Program running with 20 parallel MPI-processes    *
           *              working on a common directory               *
           ************************************************************
------------------------------------------------------------------------------
                             ORCA STARTUP CALCULATIONS
                           -- RI-GTO INTEGRALS CHOSEN --
------------------------------------------------------------------------------
------------------------------------------------------------------------------
                   ___                                                        
                  /   \      - P O W E R E D   B Y -                         
                 /     \                                                     
                 |  |  |   _    _      __       _____    __    __             
                 |  |  |  | |  | |    /  \     |  _  \  |  |  /  |          
                  \  \/   | |  | |   /    \    | | | |  |  | /  /          
                 / \  \   | |__| |  /  /\  \   | |_| |  |  |/  /          
                |  |  |   |  __  | /  /__\  \  |    /   |      \           
                |  |  |   | |  | | |   __   |  |    \   |  |\   \          
                \     /   | |  | | |  |  |  |  | |\  \  |  | \   \       
                 \___/    |_|  |_| |__|  |__|  |_| \__\ |__|  \__/        
                                                                              
                      - O R C A' S   B I G   F R I E N D -                    
                                      &                                       
                       - I N T E G R A L  F E E D E R -                       
                                                                              
 v1 FN, 2020, v2 2021, v3 2022-2024                                           
------------------------------------------------------------------------------


----------------------
SHARK INTEGRAL PACKAGE
----------------------

Number of atoms                             ...     28
Number of basis functions                   ...    818
Number of shells                            ...    294
Maximum angular momentum                    ...      3
Integral batch strategy                     ... SHARK/LIBINT Hybrid
RI-J (if used) integral strategy            ... SPLIT-RIJ (Revised 2003 algorithm where possible)
Printlevel                                  ...      1
Contraction scheme used                     ... SEGMENTED contraction
Prescreening option                         ... SCHWARTZ
   Thresh                                   ... 2.500e-11
   Tcut                                     ... 2.500e-12
   Tpresel                                  ... 2.500e-12 
Coulomb Range Separation                    ... NOT USED
Exchange Range Separation                   ... NOT USED
Multipole approximations                    ... NOT USED
Finite Nucleus Model                        ... NOT USED
CABS basis                                  ... NOT available
Auxiliary Coulomb fitting basis             ... AVAILABLE
   # of basis functions in Aux-J            ...   1296
   # of shells in Aux-J                     ...    400
   Maximum angular momentum in Aux-J        ...      4
Auxiliary J/K fitting basis                 ... NOT available
Auxiliary Correlation fitting basis         ... NOT available
Auxiliary 'external' fitting basis          ... NOT available

Checking pre-screening integrals            ... done (  0.0 sec) Dimension = 294
Check shell pair data                       ... done (  0.0 sec)
Shell pair information
Shell pair cut-off parameter TPreSel        ...   2.5e-12
Total number of shell pairs                 ...     43365
Shell pairs after pre-screening             ...     24940
Total number of primitive shell pairs       ...    142356
Primitive shell pairs kept                  ...     52375
          la=0 lb=0:   4827 shell pairs
          la=1 lb=0:   6903 shell pairs
          la=1 lb=1:   2357 shell pairs
          la=2 lb=0:   3670 shell pairs
          la=2 lb=1:   2648 shell pairs
          la=2 lb=2:    731 shell pairs
          la=3 lb=0:   1675 shell pairs
          la=3 lb=1:   1283 shell pairs
          la=3 lb=2:    683 shell pairs
          la=3 lb=3:    163 shell pairs

Calculating one electron integrals          ... done (  0.0 sec)
Calculating RI/J V-Matrix + Cholesky decomp.... done (  0.1 sec)
Calculating Nuclear repulsion               ... done (  0.0 sec) ENN=   2998.403000922656 Eh

Diagonalization of the overlap matrix:
Smallest eigenvalue                        ... 9.736e-05
Time for diagonalization                   ...    0.161 sec
Threshold for overlap eigenvalues          ... 1.000e-07
Number of eigenvalues below threshold      ... 0
Time for construction of square roots      ...    0.071 sec
Total time needed                          ...    0.239 sec

-------------------
DFT GRID GENERATION
-------------------

General Integration Accuracy     IntAcc      ... 4.388
Radial Grid Type                 RadialGrid  ... OptM3 with GC (2021)
Angular Grid (max. ang.)         AngularGrid ... 4 (Lebedev-302)
Angular grid pruning method      GridPruning ... 4 (adaptive)
Weight generation scheme         WeightScheme... mBecke (2022)
Basis function cutoff            BFCut       ... 1.0000e-11
Integration weight cutoff        WCut        ... 1.0000e-14
Partially contracted basis set               ... off
Rotationally invariant grid construction     ... off
Angular grids for H and He will be reduced by one unit

Total number of grid points                  ...   164149
Total number of batches                      ...     2578
Average number of points per batch           ...       63
Average number of grid points per atom       ...     5862

--------------------
COSX GRID GENERATION
--------------------

GRIDX 1
-------
General Integration Accuracy     IntAcc      ... 3.816
Radial Grid Type                 RadialGrid  ... OptM3 with GC (2021)
Angular Grid (max. ang.)         AngularGrid ... 1 (Lebedev-50)
Angular grid pruning method      GridPruning ... 4 (adaptive)
Weight generation scheme         WeightScheme... mBecke (2022)
Basis function cutoff            BFCut       ... 1.0000e-11
Integration weight cutoff        WCut        ... 1.0000e-14
Partially contracted basis set               ... on
Rotationally invariant grid construction     ... off
Angular grids for H and He will be reduced by one unit

Total number of grid points                  ...    20670
Total number of batches                      ...      173
Average number of points per batch           ...      119
Average number of grid points per atom       ...      738
UseSFitting                                  ... on

GRIDX 2
-------
General Integration Accuracy     IntAcc      ... 4.020
Radial Grid Type                 RadialGrid  ... OptM3 with GC (2021)
Angular Grid (max. ang.)         AngularGrid ... 2 (Lebedev-110)
Angular grid pruning method      GridPruning ... 4 (adaptive)
Weight generation scheme         WeightScheme... mBecke (2022)
Basis function cutoff            BFCut       ... 1.0000e-11
Integration weight cutoff        WCut        ... 1.0000e-14
Partially contracted basis set               ... on
Rotationally invariant grid construction     ... off
Angular grids for H and He will be reduced by one unit

Total number of grid points                  ...    48474
Total number of batches                      ...      393
Average number of points per batch           ...      123
Average number of grid points per atom       ...     1731
UseSFitting                                  ... on

GRIDX 3
-------
General Integration Accuracy     IntAcc      ... 4.338
Radial Grid Type                 RadialGrid  ... OptM3 with GC (2021)
Angular Grid (max. ang.)         AngularGrid ... 3 (Lebedev-194)
Angular grid pruning method      GridPruning ... 4 (adaptive)
Weight generation scheme         WeightScheme... mBecke (2022)
Basis function cutoff            BFCut       ... 1.0000e-11
Integration weight cutoff        WCut        ... 1.0000e-14
Partially contracted basis set               ... on
Rotationally invariant grid construction     ... off
Angular grids for H and He will be reduced by one unit

Total number of grid points                  ...   107230
Total number of batches                      ...      850
Average number of points per batch           ...      126
Average number of grid points per atom       ...     3830
UseSFitting                                  ... on
Initializing property integral containers    ... done (  0.0 sec)

SHARK setup successfully completed in   3.5 seconds

Maximum memory used throughout the entire STARTUP-calculation: 63.2 MB


           ************************************************************
           *        Program running with 20 parallel MPI-processes    *
           *              working on a common directory               *
           ************************************************************
-------------------------------------------------------------------------------
                                 ORCA GUESS
                   Start orbitals & Density for SCF / CASSCF
-------------------------------------------------------------------------------

------------
SCF SETTINGS
------------
Hamiltonian:
 Density Functional     Method          .... DFT(GTOs)
 Exchange Functional    Exchange        .... B88
   X-Alpha parameter    XAlpha          ....  0.666667
   Becke's b parameter  XBeta           ....  0.004200
 Correlation Functional Correlation     .... LYP
 LDA part of GGA corr.  LDAOpt          .... VWN-5
 Gradients option       PostSCFGGA      .... off
 Hybrid DFT is turned on
   Fraction HF Exchange ScalHFX         ....  0.200000
   Scaling of DF-GGA-X  ScalDFX         ....  0.720000
   Scaling of DF-GGA-C  ScalDFC         ....  0.810000
   Scaling of DF-LDA-C  ScalLDAC        ....  1.000000
   Perturbative correction              ....  0.000000
   NL short-range parameter             ....  4.800000
 RI-approximation to the Coulomb term is turned on
   Number of AuxJ basis functions       .... 1296
   RIJ-COSX (HFX calculated with COS-X)).... on


General Settings:
 Integral files         IntName         .... rf_mecn_1H2O_freq_B3L_sw_04
 Hartree-Fock type      HFTyp           .... UHF
 Total Charge           Charge          ....   -2
 Multiplicity           Mult            ....    2
 Number of Electrons    NEL             ....  211
 Basis Dimension        Dim             ....  818
 Nuclear Repulsion      ENuc            ....   2998.4030009227 Eh

Convergence Acceleration:
 AO-DIIS                CNVDIIS         .... on
   Start iteration      DIISMaxIt       ....     0
   Startup error        DIISStart       ....  0.200000
   # of expansion vecs  DIISMaxEq       ....     5
   Bias factor          DIISBfac        ....   1.050
   Max. coefficient     DIISMaxC        ....  10.000
 MO-DIIS                CNVKDIIS        .... off
 Trust-Rad. Augm. Hess. CNVTRAH         .... auto
   Auto Start mean grad. ratio tolernc. ....  1.125000
   Auto Start start iteration           ....    50
   Auto Start num. interpolation iter.  ....    10
   Max. Number of Micro iterations      ....    24
   Max. Number of Macro iterations      .... Maxiter - #DIIS iter
   Number of Davidson start vectors     ....     2
   Converg. threshold    (grad. norm)   ....   1.000e-05
   Grad. Scal. Fac. for Micro threshold ....   0.100
   Minimum threshold for Micro iter.    ....   1.000e-02
   NR start threshold (gradient norm)   ....   1.000e-04
   Initial trust radius                 ....   0.400
   Minimum AH scaling param. (alpha)    ....   1.000
   Maximum AH scaling param. (alpha)    .... 1000.000
   Quad. conv. algorithm                .... NR
   White noise on init. David. guess    .... on
   Maximum white noise                  ....   0.010
   Pseudo random numbers                .... off
   Inactive MOs                         .... canonical
   Orbital update algorithm             .... Taylor
   Preconditioner                       .... Diag
   Full preconditioner red. dimension   ....   250
 SOSCF                  CNVSOSCF        .... on
   Start iteration      SOSCFMaxIt      ....   150
   Startup grad/error   SOSCFStart      ....  0.001000
   Hessian update       SOSCFHessUp     .... L-BFGS
 Level Shifting         CNVShift        .... on
   Level shift para.    LevelShift      ....    0.2500
   Turn off err/grad.   ShiftErr        ....    0.0000
 Zerner damping         CNVZerner       .... off
 Static damping         CNVDamp         .... on
   Fraction old density DampFac         ....    0.8500
   Max. Damping (<1)    DampMax         ....    0.9800
   Min. Damping (>=0)   DampMin         ....    0.0000
   Turn off err/grad.   DampErr         ....    0.0300

SCF Procedure:
 Maximum # iterations   MaxIter         ....  1500
 SCF integral mode      SCFMode         .... Direct
   Integral package                     .... SHARK and LIBINT hybrid scheme
 Reset frequency        DirectResetFreq ....    20
 Integral Threshold     Thresh          ....  2.500e-11 Eh
 Primitive CutOff       TCut            ....  2.500e-12 Eh

Convergence Tolerance:
 Convergence Check Mode ConvCheckMode   .... Total+1el-Energy
 Convergence forced     ConvForced      .... 0
 Energy Change          TolE            ....  1.000e-08 Eh
 1-El. energy change                    ....  1.000e-05 Eh
 Orbital Gradient       TolG            ....  1.000e-05
 Orbital Rotation angle TolX            ....  1.000e-05
 DIIS Error             TolErr          ....  5.000e-07

------------------------------
INITIAL GUESS: MODEL POTENTIAL
------------------------------
Loading Hartree-Fock densities                     ... done
Calculating cut-offs                               ... done
Initializing the effective Hamiltonian             ... done
Setting up the integral package (SHARK)            ... done
Starting the Coulomb interaction                   ... done (   0.2 sec)
Making the grid                                    ... done (   0.4 sec)
Mapping shells                                     ... done
Starting the XC term evaluation                    ... done (   0.2 sec)
  promolecular density results
     # of electrons  =    208.998108218
     EX              =   -217.013070809
     EC              =     -7.828703162
     EX+EC           =   -224.841773971
Transforming the Hamiltonian                       ... done (   0.1 sec)
Diagonalizing the Hamiltonian                      ... done (   0.2 sec)
Back transforming the eigenvectors                 ... done (   0.0 sec)
Now organizing SCF variables                       ... done
                      ------------------
                      INITIAL GUESS DONE (   1.3 sec)
                      ------------------
             **** ENERGY FILE WAS UPDATED (rf_mecn_1H2O_freq_B3L_sw_04.en.tmp) ****
Finished Guess after   2.1 sec
Maximum memory used throughout the entire GUESS-calculation: 52.0 MB


           ************************************************************
           *        Program running with 20 parallel MPI-processes    *
           *              working on a common directory               *
           ************************************************************

-------------------------------------------------------------------------------------------
                                      ORCA LEAN-SCF
                              memory conserving SCF solver
-------------------------------------------------------------------------------------------

--------------------
CPCM SOLVATION MODEL
--------------------
CPCM parameters:
  Epsilon                                         ...      35.6880
  Refrac                                          ...       1.3442
  Rsolv                                           ...       1.3000
  Surface type                                    ... GAUSSIAN VDW
  Discretization scheme                           ... Constant charge density
    Threshold for H atoms                         ...       5.0000 (charges/Ang^2)
    Threshold for non-H atoms                     ...       5.0000 (charges/Ang^2)
  Epsilon function type                           ...         CPCM
Solvent:                                          ... ACETONITRILE
SMD-CDS solvent descriptors:
  Soln                                            ...       1.3442
  Soln25                                          ...       1.3416
  Sola                                            ...       0.0700
  Solb                                            ...       0.3200
  Solg                                            ...      41.2500
  Solc                                            ...       0.0000
  Solh                                            ...       0.0000
Radii:
  Scheme                                          ... Element-dependent radii
  Radius for C  used is    3.4960 Bohr (=   1.8500 Ang.)
  Radius for F  used is    3.2692 Bohr (=   1.7300 Ang.)
  Radius for O  used is    4.0969 Bohr (=   2.1680 Ang.)
  Radius for H  used is    2.2677 Bohr (=   1.2000 Ang.)
Calculating surface                               ...        done! (  0.0s)
Cavity surface points                             ...         2470
Cavity Volume                                     ...    2451.2049
Cavity Surface-area                               ...    1265.0801
Calculating surface distance matrix               ...        done! (  0.0s)
Performing Cholesky decomposition & store         ...        done! (  0.2s)
Overall time for CPCM initialization              ...                 0.2s

----------------------------------------D-I-I-S--------------------------------------------
Iteration    Energy (Eh)           Delta-E    RMSDP     MaxDP     DIISErr   Damp  Time(sec)
-------------------------------------------------------------------------------------------
               ***  Starting incremental Fock matrix formation  ***
    1    -2028.7605884990257437     0.00e+00  6.87e-04  1.12e-01  1.94e-01  0.850   8.4
Warning: op=0 Small HOMO/LUMO gap (   0.023) - skipping pre-diagonalization
         Will do a full diagonalization
    2    -2029.0431236644067212    -2.83e-01  8.72e-04  1.77e-01  1.28e-01  0.850   5.7
                               ***Turning on AO-DIIS***
    3    -2029.1777553601709769    -1.35e-01  5.83e-04  1.29e-01  7.77e-02  0.850   5.7
    4    -2029.2535744271949625    -7.58e-02  3.92e-04  8.97e-02  5.56e-02  0.850   5.1
    5    -2029.3109654012382634    -5.74e-02  2.78e-04  5.16e-02  4.31e-02  0.850   5.1
    6    -2029.3587865173499267    -4.78e-02  2.08e-04  2.79e-02  3.56e-02  0.850   4.6
    7    -2029.3998544829514685    -4.11e-02  1.64e-04  2.32e-02  3.07e-02  0.850   4.7
    8    -2029.4355913311287622    -3.57e-02  1.40e-04  2.07e-02  2.66e-02  0.850   4.6
    9    -2029.4662627554930623    -3.07e-02  8.33e-04  1.18e-01  2.24e-02  0.000   4.5
   10    -2029.6394378233276257    -1.73e-01  8.07e-05  1.61e-02  5.20e-03  0.000   5.0
   11    -2029.6401816358852557    -7.44e-04  8.35e-05  2.02e-02  2.57e-03  0.000   4.3
   12    -2029.6404684177364288    -2.87e-04  6.49e-05  1.60e-02  2.05e-03  0.000   4.3
                              *** Initializing SOSCF ***
---------------------------------------S-O-S-C-F--------------------------------------
Iteration    Energy (Eh)           Delta-E    RMSDP     MaxDP     MaxGrad    Time(sec)
--------------------------------------------------------------------------------------
   13    -2029.6406420939279087    -1.74e-04  4.37e-05  1.08e-02  8.79e-04     4.9
               *** Restarting incremental Fock matrix formation ***
   14    -2029.6407279968075272    -8.59e-05  1.09e-04  2.73e-02  2.53e-03     8.1
   15    -2029.6408093218592512    -8.13e-05  5.59e-05  1.36e-02  4.17e-04     6.8
   16    -2029.6408121440131254    -2.82e-06  2.01e-05  4.97e-03  5.14e-04     6.6
   17    -2029.6408256542149502    -1.35e-05  7.07e-06  1.31e-03  9.23e-05     6.1
   18    -2029.6408255497694881     1.04e-07  4.30e-06  8.85e-04  6.46e-05     5.9
   19    -2029.6408265492768805    -1.00e-06  9.10e-07  1.95e-04  1.60e-05     5.6
   20    -2029.6408265208006014     2.85e-08  2.83e-07  3.44e-05  3.44e-05     4.8
   21    -2029.6408265755430875    -5.47e-08  4.67e-07  1.29e-04  9.52e-06     4.1
   22    -2029.6408265997310991    -2.42e-08  1.48e-07  2.38e-05  6.53e-06     4.3
   23    -2029.6408265792956627     2.04e-08  1.18e-07  2.45e-05  7.21e-07     4.0
                  *** Gradient check signals convergence ***

               *****************************************************
               *                     SUCCESS                       *
               *           SCF CONVERGED AFTER  23 CYCLES          *
               *****************************************************

Recomputing exchange energy using gridx3       ... done (   10.701 sec)
Old exchange energy                            :    -43.627087327 Eh
New exchange energy                            :    -43.627156386 Eh
Exchange energy change after final integration :     -0.000069059 Eh
Total energy after final integration           :  -2029.640895639 Eh

SMD CDS free energy correction energy :                 3.17284     Kcal/mol
Total Energy after SMD CDS correction =             -2029.635839391 Eh
             **** ENERGY FILE WAS UPDATED (rf_mecn_1H2O_freq_B3L_sw_04.en.tmp) ****

----------------
TOTAL SCF ENERGY
----------------

Total Energy       :      -2029.63583939120667 Eh          -55229.19899 eV

Components:
Nuclear Repulsion  :       2998.40300092265579 Eh           81590.69365 eV
Electronic Energy  :      -5027.81335679609401 Eh         -136813.75692 eV
One Electron Energy:      -8848.48881633412020 Eh         -240779.62169 eV
Two Electron Energy:       3820.67545953802619 Eh          103965.86478 eV
CPCM Dielectric    :         -0.23047070585725 Eh              -6.27143 eV
SMD CDS (Gcds)     :          0.00505624732599 Eh               0.13759 eV

Virial components:
Potential Energy   :      -4052.42386298739075 Eh         -110272.05944 eV
Kinetic Energy     :       2022.78802359618430 Eh           55042.86045 eV
Virial Ratio       :          2.00338533534663

DFT components:
N(Alpha)           :      105.999953469070 electrons
N(Beta)            :      104.999948588567 electrons
N(Total)           :      210.999902057637 electrons
E(X)               :     -173.920404805534 Eh       
E(C)               :       -9.231397565336 Eh       
E(XC)              :     -183.151802370870 Eh       

CPCM Solvation Model Properties:
Surface-charge          :          1.98833825014881
Corrected charge        :          2.00000000000000
Outlying charge corr.   :          0.00000699406372 Eh               0.00019 eV
Free-energy (cav+disp)  :          0.00505624732599 Eh               0.13759 eV

---------------
SCF CONVERGENCE
---------------

  Last Energy change         ...   -2.0435e-08  Tolerance :   1.0000e-08
  Last MAX-Density change    ...    2.4484e-05  Tolerance :   1.0000e-07
  Last RMS-Density change    ...    1.1849e-07  Tolerance :   5.0000e-09
  Last DIIS Error            ...    8.7878e-04  Tolerance :   5.0000e-07
  Last Orbital Gradient      ...    7.2128e-07  Tolerance :   1.0000e-05
  Last Orbital Rotation      ...    5.7866e-06  Tolerance :   1.0000e-05


----------------------
UHF SPIN CONTAMINATION
----------------------

Warning: in a DFT calculation there is little theoretical justification to 
         calculate <S**2> as in Hartree-Fock theory. We will do it anyways
         but you should keep in mind that the values have only limited relevance

Expectation value of <S**2>     :     0.753036
Ideal value S*(S+1) for S=0.5   :     0.750000
Deviation                       :     0.003036

----------------
ORBITAL ENERGIES
----------------
                 SPIN UP ORBITALS
  NO   OCC          E(Eh)            E(eV) 
   0   1.0000     -24.719916      -672.6631 
   1   1.0000     -24.719820      -672.6605 
   2   1.0000     -24.712030      -672.4485 
   3   1.0000     -24.700554      -672.1362 
   4   1.0000     -24.700354      -672.1308 
   5   1.0000     -24.699206      -672.0996 
   6   1.0000     -24.696802      -672.0341 
   7   1.0000     -24.693355      -671.9404 
   8   1.0000     -24.691938      -671.9018 
   9   1.0000     -24.686064      -671.7420 
  10   1.0000     -24.685567      -671.7284 
  11   1.0000     -24.685111      -671.7160 
  12   1.0000     -24.684343      -671.6951 
  13   1.0000     -24.683229      -671.6648 
  14   1.0000     -24.682530      -671.6458 
  15   1.0000     -19.081300      -519.2286 
  16   1.0000     -19.062812      -518.7255 
  17   1.0000     -19.058982      -518.6213 
  18   1.0000     -10.426447      -283.7181 
  19   1.0000     -10.354373      -281.7568 
  20   1.0000     -10.351065      -281.6668 
  21   1.0000     -10.345560      -281.5170 
  22   1.0000     -10.337048      -281.2854 
  23   1.0000     -10.334438      -281.2143 
  24   1.0000     -10.330830      -281.1162 
  25   1.0000     -10.252534      -278.9856 
  26   1.0000      -1.319825       -35.9143 
  27   1.0000      -1.274228       -34.6735 
  28   1.0000      -1.264960       -34.4213 
  29   1.0000      -1.254509       -34.1369 
  30   1.0000      -1.247620       -33.9495 
  31   1.0000      -1.242746       -33.8168 
  32   1.0000      -1.236330       -33.6422 
  33   1.0000      -1.232306       -33.5327 
  34   1.0000      -1.224764       -33.3275 
  35   1.0000      -1.212382       -32.9906 
  36   1.0000      -1.209764       -32.9194 
  37   1.0000      -1.200650       -32.6713 
  38   1.0000      -1.193116       -32.4663 
  39   1.0000      -1.191229       -32.4150 
  40   1.0000      -1.185610       -32.2621 
  41   1.0000      -1.023898       -27.8617 
  42   1.0000      -0.965821       -26.2813 
  43   1.0000      -0.938752       -25.5448 
  44   1.0000      -0.791156       -21.5285 
  45   1.0000      -0.784905       -21.3583 
  46   1.0000      -0.755992       -20.5716 
  47   1.0000      -0.725537       -19.7429 
  48   1.0000      -0.688169       -18.7260 
  49   1.0000      -0.657499       -17.8915 
  50   1.0000      -0.633419       -17.2362 
  51   1.0000      -0.605733       -16.4828 
  52   1.0000      -0.603890       -16.4327 
  53   1.0000      -0.602053       -16.3827 
  54   1.0000      -0.589572       -16.0431 
  55   1.0000      -0.583628       -15.8813 
  56   1.0000      -0.579712       -15.7748 
  57   1.0000      -0.568477       -15.4690 
  58   1.0000      -0.566424       -15.4132 
  59   1.0000      -0.556878       -15.1534 
  60   1.0000      -0.555583       -15.1182 
  61   1.0000      -0.550248       -14.9730 
  62   1.0000      -0.541722       -14.7410 
  63   1.0000      -0.537236       -14.6189 
  64   1.0000      -0.532453       -14.4888 
  65   1.0000      -0.522464       -14.2170 
  66   1.0000      -0.497898       -13.5485 
  67   1.0000      -0.478412       -13.0182 
  68   1.0000      -0.478373       -13.0172 
  69   1.0000      -0.472438       -12.8557 
  70   1.0000      -0.461101       -12.5472 
  71   1.0000      -0.458662       -12.4808 
  72   1.0000      -0.455005       -12.3813 
  73   1.0000      -0.452998       -12.3267 
  74   1.0000      -0.450127       -12.2486 
  75   1.0000      -0.447009       -12.1637 
  76   1.0000      -0.446596       -12.1525 
  77   1.0000      -0.443368       -12.0646 
  78   1.0000      -0.440696       -11.9919 
  79   1.0000      -0.437985       -11.9182 
  80   1.0000      -0.432014       -11.7557 
  81   1.0000      -0.430180       -11.7058 
  82   1.0000      -0.423751       -11.5309 
  83   1.0000      -0.419621       -11.4185 
  84   1.0000      -0.418724       -11.3940 
  85   1.0000      -0.418587       -11.3903 
  86   1.0000      -0.412213       -11.2169 
  87   1.0000      -0.408557       -11.1174 
  88   1.0000      -0.406573       -11.0634 
  89   1.0000      -0.403082       -10.9684 
  90   1.0000      -0.401651       -10.9295 
  91   1.0000      -0.398811       -10.8522 
  92   1.0000      -0.397559       -10.8181 
  93   1.0000      -0.396189       -10.7808 
  94   1.0000      -0.389536       -10.5998 
  95   1.0000      -0.383291       -10.4299 
  96   1.0000      -0.379638       -10.3305 
  97   1.0000      -0.370378       -10.0785 
  98   1.0000      -0.349398        -9.5076 
  99   1.0000      -0.347158        -9.4467 
 100   1.0000      -0.316456        -8.6112 
 101   1.0000      -0.278699        -7.5838 
 102   1.0000      -0.251093        -6.8326 
 103   1.0000      -0.241548        -6.5729 
 104   1.0000      -0.235617        -6.4115 
 105   1.0000      -0.074497        -2.0272 
 106   0.0000       0.023914         0.6507 
 107   0.0000       0.045270         1.2319 
 108   0.0000       0.058760         1.5989 
 109   0.0000       0.066700         1.8150 
 110   0.0000       0.073624         2.0034 
 111   0.0000       0.101522         2.7625 
 112   0.0000       0.110505         3.0070 
 113   0.0000       0.120801         3.2872 
 114   0.0000       0.126393         3.4393 
 115   0.0000       0.144323         3.9272 
 116   0.0000       0.146489         3.9862 

                 SPIN DOWN ORBITALS
  NO   OCC          E(Eh)            E(eV) 
   0   1.0000     -24.719856      -672.6615 
   1   1.0000     -24.719759      -672.6588 
   2   1.0000     -24.710891      -672.4175 
   3   1.0000     -24.700121      -672.1245 
   4   1.0000     -24.699910      -672.1187 
   5   1.0000     -24.699106      -672.0968 
   6   1.0000     -24.696630      -672.0295 
   7   1.0000     -24.693001      -671.9307 
   8   1.0000     -24.691558      -671.8914 
   9   1.0000     -24.686009      -671.7405 
  10   1.0000     -24.685026      -671.7137 
  11   1.0000     -24.684867      -671.7094 
  12   1.0000     -24.683586      -671.6745 
  13   1.0000     -24.682582      -671.6472 
  14   1.0000     -24.681824      -671.6266 
  15   1.0000     -19.081300      -519.2286 
  16   1.0000     -19.062648      -518.7210 
  17   1.0000     -19.058765      -518.6154 
  18   1.0000     -10.425008      -283.6789 
  19   1.0000     -10.352166      -281.6968 
  20   1.0000     -10.349935      -281.6360 
  21   1.0000     -10.343350      -281.4569 
  22   1.0000     -10.333531      -281.1897 
  23   1.0000     -10.330975      -281.1201 
  24   1.0000     -10.330339      -281.1028 
  25   1.0000     -10.252353      -278.9807 
  26   1.0000      -1.318817       -35.8868 
  27   1.0000      -1.273274       -34.6475 
  28   1.0000      -1.263352       -34.3775 
  29   1.0000      -1.253283       -34.1036 
  30   1.0000      -1.247324       -33.9414 
  31   1.0000      -1.240984       -33.7689 
  32   1.0000      -1.236125       -33.6367 
  33   1.0000      -1.230435       -33.4818 
  34   1.0000      -1.222808       -33.2743 
  35   1.0000      -1.211799       -32.9747 
  36   1.0000      -1.208769       -32.8923 
  37   1.0000      -1.199815       -32.6486 
  38   1.0000      -1.191875       -32.4326 
  39   1.0000      -1.190868       -32.4052 
  40   1.0000      -1.184117       -32.2215 
  41   1.0000      -1.023504       -27.8509 
  42   1.0000      -0.965809       -26.2810 
  43   1.0000      -0.938369       -25.5343 
  44   1.0000      -0.782987       -21.3062 
  45   1.0000      -0.778939       -21.1960 
  46   1.0000      -0.748069       -20.3560 
  47   1.0000      -0.719391       -19.5756 
  48   1.0000      -0.684284       -18.6203 
  49   1.0000      -0.655037       -17.8245 
  50   1.0000      -0.631252       -17.1772 
  51   1.0000      -0.604981       -16.4624 
  52   1.0000      -0.601018       -16.3545 
  53   1.0000      -0.598384       -16.2828 
  54   1.0000      -0.587362       -15.9829 
  55   1.0000      -0.580203       -15.7881 
  56   1.0000      -0.578496       -15.7417 
  57   1.0000      -0.566969       -15.4280 
  58   1.0000      -0.562499       -15.3064 
  59   1.0000      -0.555234       -15.1087 
  60   1.0000      -0.551941       -15.0191 
  61   1.0000      -0.548367       -14.9218 
  62   1.0000      -0.540650       -14.7118 
  63   1.0000      -0.533087       -14.5060 
  64   1.0000      -0.530092       -14.4245 
  65   1.0000      -0.521170       -14.1818 
  66   1.0000      -0.497828       -13.5466 
  67   1.0000      -0.477947       -13.0056 
  68   1.0000      -0.476313       -12.9611 
  69   1.0000      -0.471761       -12.8373 
  70   1.0000      -0.460526       -12.5315 
  71   1.0000      -0.458118       -12.4660 
  72   1.0000      -0.454635       -12.3712 
  73   1.0000      -0.452588       -12.3156 
  74   1.0000      -0.449255       -12.2248 
  75   1.0000      -0.446388       -12.1468 
  76   1.0000      -0.445742       -12.1293 
  77   1.0000      -0.442531       -12.0419 
  78   1.0000      -0.439618       -11.9626 
  79   1.0000      -0.437258       -11.8984 
  80   1.0000      -0.430906       -11.7255 
  81   1.0000      -0.429065       -11.6754 
  82   1.0000      -0.423093       -11.5129 
  83   1.0000      -0.418648       -11.3920 
  84   1.0000      -0.418062       -11.3761 
  85   1.0000      -0.417599       -11.3634 
  86   1.0000      -0.411311       -11.1923 
  87   1.0000      -0.407211       -11.0808 
  88   1.0000      -0.406058       -11.0494 
  89   1.0000      -0.402009       -10.9392 
  90   1.0000      -0.400399       -10.8954 
  91   1.0000      -0.397213       -10.8087 
  92   1.0000      -0.394497       -10.7348 
  93   1.0000      -0.393319       -10.7027 
  94   1.0000      -0.386362       -10.5134 
  95   1.0000      -0.382208       -10.4004 
  96   1.0000      -0.373659       -10.1678 
  97   1.0000      -0.365335        -9.9413 
  98   1.0000      -0.348847        -9.4926 
  99   1.0000      -0.343583        -9.3494 
 100   1.0000      -0.313689        -8.5359 
 101   1.0000      -0.278689        -7.5835 
 102   1.0000      -0.250100        -6.8056 
 103   1.0000      -0.240922        -6.5558 
 104   1.0000      -0.235007        -6.3949 
 105   0.0000      -0.004855        -0.1321 
 106   0.0000       0.034650         0.9429 
 107   0.0000       0.050588         1.3766 
 108   0.0000       0.062437         1.6990 
 109   0.0000       0.069424         1.8891 
 110   0.0000       0.083561         2.2738 
 111   0.0000       0.106608         2.9010 
 112   0.0000       0.112372         3.0578 
 113   0.0000       0.121374         3.3028 
 114   0.0000       0.133602         3.6355 
 115   0.0000       0.146922         3.9980 
*Only the first 10 virtual orbitals were printed.

                    ********************************
                    * MULLIKEN POPULATION ANALYSIS *
                    ********************************

--------------------------------------------
MULLIKEN ATOMIC CHARGES AND SPIN POPULATIONS
--------------------------------------------
   0 C :    0.444653    0.071682
   1 C :    0.285813    0.136632
   2 C :    0.231578    0.247115
   3 C :    0.250281    0.249898
   4 C :    0.286610    0.146643
   5 C :    0.283213    0.063250
   6 C :    0.348093    0.024691
   7 C :    0.179961    0.008562
   8 F :   -0.178761   -0.000110
   9 F :   -0.178843   -0.000128
  10 F :   -0.190890    0.012212
  11 F :   -0.215188    0.002889
  12 F :   -0.214327    0.002871
  13 F :   -0.241023    0.004863
  14 F :   -0.237845    0.004509
  15 F :   -0.241640    0.003855
  16 F :   -0.236456    0.003544
  17 F :   -0.223504    0.001259
  18 F :   -0.222360    0.001563
  19 F :   -0.215717    0.000628
  20 F :   -0.209788    0.001097
  21 F :   -0.226932    0.000366
  22 F :   -0.222715    0.000401
  23 O :   -0.470487    0.006680
  24 O :   -0.528174    0.005007
  25 O :   -0.736230   -0.000020
  26 H :    0.323696    0.000011
  27 H :    0.356980    0.000028
Sum of atomic charges         :   -2.0000000
Sum of atomic spin populations:    1.0000000

-----------------------------------------------------
MULLIKEN REDUCED ORBITAL CHARGES AND SPIN POPULATIONS
-----------------------------------------------------
CHARGE
  0 C s       :     3.047984  s :     3.047984
      pz      :     0.636898  p :     2.144489
      px      :     0.675291
      py      :     0.832299
      dz2     :     0.065186  d :     0.324183
      dxz     :     0.076197
      dyz     :     0.061224
      dx2y2   :     0.061490
      dxy     :     0.060085
      f0      :     0.005325  f :     0.038692
      f+1     :     0.007923
      f-1     :     0.006463
      f+2     :     0.005590
      f-2     :     0.003589
      f+3     :     0.003448
      f-3     :     0.006354

  1 C s       :     3.119879  s :     3.119879
      pz      :     0.671433  p :     2.291847
      px      :     0.708668
      py      :     0.911746
      dz2     :     0.055967  d :     0.276379
      dxz     :     0.060938
      dyz     :     0.049312
      dx2y2   :     0.060674
      dxy     :     0.049489
      f0      :     0.004410  f :     0.026082
      f+1     :     0.006305
      f-1     :     0.004330
      f+2     :     0.002888
      f-2     :     0.001397
      f+3     :     0.002427
      f-3     :     0.004326

  2 C s       :     3.148758  s :     3.148758
      pz      :     0.668655  p :     2.306474
      px      :     0.729618
      py      :     0.908201
      dz2     :     0.055228  d :     0.288049
      dxz     :     0.056644
      dyz     :     0.055325
      dx2y2   :     0.072390
      dxy     :     0.048463
      f0      :     0.004338  f :     0.025141
      f+1     :     0.005762
      f-1     :     0.003859
      f+2     :     0.003006
      f-2     :     0.001652
      f+3     :     0.002250
      f-3     :     0.004274

  3 C s       :     3.139669  s :     3.139669
      pz      :     0.678124  p :     2.299686
      px      :     0.730750
      py      :     0.890812
      dz2     :     0.055176  d :     0.285185
      dxz     :     0.056531
      dyz     :     0.054225
      dx2y2   :     0.070764
      dxy     :     0.048489
      f0      :     0.004384  f :     0.025179
      f+1     :     0.005734
      f-1     :     0.003881
      f+2     :     0.003008
      f-2     :     0.001601
      f+3     :     0.002257
      f-3     :     0.004314

  4 C s       :     3.141078  s :     3.141078
      pz      :     0.668954  p :     2.267100
      px      :     0.695311
      py      :     0.902835
      dz2     :     0.052941  d :     0.279118
      dxz     :     0.061765
      dyz     :     0.053234
      dx2y2   :     0.061473
      dxy     :     0.049706
      f0      :     0.004636  f :     0.026094
      f+1     :     0.005844
      f-1     :     0.004298
      f+2     :     0.003127
      f-2     :     0.001342
      f+3     :     0.002307
      f-3     :     0.004540

  5 C s       :     3.161662  s :     3.161662
      pz      :     0.685947  p :     2.256568
      px      :     0.644609
      py      :     0.926012
      dz2     :     0.049313  d :     0.271725
      dxz     :     0.063984
      dyz     :     0.049918
      dx2y2   :     0.053880
      dxy     :     0.054629
      f0      :     0.005557  f :     0.026832
      f+1     :     0.004156
      f-1     :     0.003900
      f+2     :     0.004320
      f-2     :     0.001572
      f+3     :     0.002308
      f-3     :     0.005018

  6 C s       :     3.121339  s :     3.121339
      pz      :     0.683743  p :     2.257494
      px      :     0.597456
      py      :     0.976296
      dz2     :     0.044523  d :     0.246966
      dxz     :     0.057119
      dyz     :     0.045736
      dx2y2   :     0.047872
      dxy     :     0.051716
      f0      :     0.005456  f :     0.026107
      f+1     :     0.003557
      f-1     :     0.003236
      f+2     :     0.004391
      f-2     :     0.002329
      f+3     :     0.002595
      f-3     :     0.004542

  7 C s       :     3.062901  s :     3.062901
      pz      :     0.823505  p :     2.490662
      px      :     0.769891
      py      :     0.897267
      dz2     :     0.027174  d :     0.241511
      dxz     :     0.058633
      dyz     :     0.018683
      dx2y2   :     0.064685
      dxy     :     0.072336
      f0      :     0.002061  f :     0.024964
      f+1     :     0.002989
      f-1     :     0.001713
      f+2     :     0.003991
      f-2     :     0.002791
      f+3     :     0.006450
      f-3     :     0.004970

  8 F s       :     3.908124  s :     3.908124
      pz      :     1.493329  p :     5.253861
      px      :     1.893564
      py      :     1.866969
      dz2     :     0.007665  d :     0.016039
      dxz     :     0.003113
      dyz     :     0.004381
      dx2y2   :     0.000513
      dxy     :     0.000368
      f0      :     0.000301  f :     0.000736
      f+1     :     0.000136
      f-1     :     0.000220
      f+2     :     0.000042
      f-2     :     0.000033
      f+3     :     0.000002
      f-3     :     0.000003

  9 F s       :     3.908170  s :     3.908170
      pz      :     1.861794  p :     5.253904
      px      :     1.489578
      py      :     1.902532
      dz2     :     0.002123  d :     0.016033
      dxz     :     0.004250
      dyz     :     0.000385
      dx2y2   :     0.005943
      dxy     :     0.003333
      f0      :     0.000075  f :     0.000736
      f+1     :     0.000130
      f-1     :     0.000006
      f+2     :     0.000152
      f-2     :     0.000031
      f+3     :     0.000206
      f-3     :     0.000135

 10 F s       :     3.907137  s :     3.907137
      pz      :     1.782795  p :     5.267947
      px      :     1.801975
      py      :     1.683178
      dz2     :     0.002030  d :     0.015128
      dxz     :     0.002569
      dyz     :     0.004100
      dx2y2   :     0.002734
      dxy     :     0.003694
      f0      :     0.000080  f :     0.000678
      f+1     :     0.000051
      f-1     :     0.000088
      f+2     :     0.000084
      f-2     :     0.000191
      f+3     :     0.000101
      f-3     :     0.000083

 11 F s       :     3.910056  s :     3.910056
      pz      :     1.482991  p :     5.289751
      px      :     1.900086
      py      :     1.906675
      dz2     :     0.007630  d :     0.014748
      dxz     :     0.002881
      dyz     :     0.003680
      dx2y2   :     0.000369
      dxy     :     0.000188
      f0      :     0.000306  f :     0.000632
      f+1     :     0.000126
      f-1     :     0.000166
      f+2     :     0.000019
      f-2     :     0.000013
      f+3     :     0.000001
      f-3     :     0.000001

 12 F s       :     3.910151  s :     3.910151
      pz      :     1.873782  p :     5.288753
      px      :     1.496633
      py      :     1.918338
      dz2     :     0.001940  d :     0.014789
      dxz     :     0.003824
      dyz     :     0.000281
      dx2y2   :     0.005533
      dxy     :     0.003210
      f0      :     0.000064  f :     0.000634
      f+1     :     0.000109
      f-1     :     0.000007
      f+2     :     0.000129
      f-2     :     0.000023
      f+3     :     0.000181
      f-3     :     0.000122

 13 F s       :     3.911140  s :     3.911140
      pz      :     1.504568  p :     5.315382
      px      :     1.904076
      py      :     1.906738
      dz2     :     0.006982  d :     0.013918
      dxz     :     0.002693
      dyz     :     0.003592
      dx2y2   :     0.000438
      dxy     :     0.000214
      f0      :     0.000266  f :     0.000583
      f+1     :     0.000112
      f-1     :     0.000165
      f+2     :     0.000021
      f-2     :     0.000016
      f+3     :     0.000001
      f-3     :     0.000002

 14 F s       :     3.911143  s :     3.911143
      pz      :     1.874204  p :     5.311972
      px      :     1.512037
      py      :     1.925732
      dz2     :     0.001799  d :     0.014135
      dxz     :     0.003760
      dyz     :     0.000303
      dx2y2   :     0.005275
      dxy     :     0.002998
      f0      :     0.000062  f :     0.000594
      f+1     :     0.000099
      f-1     :     0.000006
      f+2     :     0.000125
      f-2     :     0.000023
      f+3     :     0.000171
      f-3     :     0.000108

 15 F s       :     3.910212  s :     3.910212
      pz      :     1.505702  p :     5.316932
      px      :     1.903992
      py      :     1.907237
      dz2     :     0.006966  d :     0.013911
      dxz     :     0.002682
      dyz     :     0.003596
      dx2y2   :     0.000447
      dxy     :     0.000221
      f0      :     0.000267  f :     0.000585
      f+1     :     0.000112
      f-1     :     0.000165
      f+2     :     0.000022
      f-2     :     0.000016
      f+3     :     0.000001
      f-3     :     0.000002

 16 F s       :     3.909843  s :     3.909843
      pz      :     1.876087  p :     5.311795
      px      :     1.510287
      py      :     1.925421
      dz2     :     0.001829  d :     0.014217
      dxz     :     0.003715
      dyz     :     0.000297
      dx2y2   :     0.005349
      dxy     :     0.003027
      f0      :     0.000061  f :     0.000601
      f+1     :     0.000101
      f-1     :     0.000006
      f+2     :     0.000124
      f-2     :     0.000023
      f+3     :     0.000175
      f-3     :     0.000111

 17 F s       :     3.910527  s :     3.910527
      pz      :     1.488709  p :     5.297641
      px      :     1.898154
      py      :     1.910778
      dz2     :     0.007492  d :     0.014707
      dxz     :     0.002954
      dyz     :     0.003650
      dx2y2   :     0.000407
      dxy     :     0.000204
      f0      :     0.000297  f :     0.000629
      f+1     :     0.000132
      f-1     :     0.000162
      f+2     :     0.000021
      f-2     :     0.000015
      f+3     :     0.000001
      f-3     :     0.000002

 18 F s       :     3.909618  s :     3.909618
      pz      :     1.883190  p :     5.297337
      px      :     1.491352
      py      :     1.922794
      dz2     :     0.001982  d :     0.014770
      dxz     :     0.003558
      dyz     :     0.000259
      dx2y2   :     0.005735
      dxy     :     0.003236
      f0      :     0.000060  f :     0.000635
      f+1     :     0.000113
      f-1     :     0.000007
      f+2     :     0.000119
      f-2     :     0.000017
      f+3     :     0.000195
      f-3     :     0.000124

 19 F s       :     3.911778  s :     3.911778
      pz      :     1.518182  p :     5.288090
      px      :     1.877342
      py      :     1.892566
      dz2     :     0.006590  d :     0.015192
      dxz     :     0.003525
      dyz     :     0.003983
      dx2y2   :     0.000612
      dxy     :     0.000482
      f0      :     0.000225  f :     0.000658
      f+1     :     0.000164
      f-1     :     0.000170
      f+2     :     0.000046
      f-2     :     0.000046
      f+3     :     0.000003
      f-3     :     0.000004

 20 F s       :     3.913390  s :     3.913390
      pz      :     1.899886  p :     5.280498
      px      :     1.462728
      py      :     1.917884
      dz2     :     0.002210  d :     0.015236
      dxz     :     0.003066
      dyz     :     0.000125
      dx2y2   :     0.006284
      dxy     :     0.003552
      f0      :     0.000053  f :     0.000664
      f+1     :     0.000134
      f-1     :     0.000010
      f+2     :     0.000091
      f-2     :     0.000004
      f+3     :     0.000227
      f-3     :     0.000145

 21 F s       :     3.909325  s :     3.909325
      pz      :     1.550852  p :     5.302110
      px      :     1.837366
      py      :     1.913892
      dz2     :     0.005569  d :     0.014845
      dxz     :     0.004564
      dyz     :     0.003129
      dx2y2   :     0.000831
      dxy     :     0.000751
      f0      :     0.000168  f :     0.000651
      f+1     :     0.000228
      f-1     :     0.000107
      f+2     :     0.000072
      f-2     :     0.000061
      f+3     :     0.000009
      f-3     :     0.000006

 22 F s       :     3.906555  s :     3.906555
      pz      :     1.893856  p :     5.300516
      px      :     1.490734
      py      :     1.915926
      dz2     :     0.002042  d :     0.014988
      dxz     :     0.003091
      dyz     :     0.000250
      dx2y2   :     0.005944
      dxy     :     0.003661
      f0      :     0.000052  f :     0.000656
      f+1     :     0.000124
      f-1     :     0.000009
      f+2     :     0.000096
      f-2     :     0.000015
      f+3     :     0.000211
      f-3     :     0.000149

 23 O s       :     3.766732  s :     3.766732
      pz      :     1.488521  p :     4.674593
      px      :     1.541221
      py      :     1.644852
      dz2     :     0.005045  d :     0.027465
      dxz     :     0.006446
      dyz     :     0.003313
      dx2y2   :     0.005731
      dxy     :     0.006930
      f0      :     0.000097  f :     0.001696
      f+1     :     0.000329
      f-1     :     0.000116
      f+2     :     0.000219
      f-2     :     0.000305
      f+3     :     0.000326
      f-3     :     0.000305

 24 O s       :     3.801953  s :     3.801953
      pz      :     1.605592  p :     4.700034
      px      :     1.350970
      py      :     1.743473
      dz2     :     0.002460  d :     0.024543
      dxz     :     0.006902
      dyz     :     0.001293
      dx2y2   :     0.006867
      dxy     :     0.007021
      f0      :     0.000177  f :     0.001644
      f+1     :     0.000225
      f-1     :     0.000037
      f+2     :     0.000256
      f-2     :     0.000128
      f+3     :     0.000423
      f-3     :     0.000398

 25 O s       :     3.794875  s :     3.794875
      pz      :     1.657544  p :     4.921263
      px      :     1.639420
      py      :     1.624300
      dz2     :     0.000922  d :     0.018872
      dxz     :     0.002812
      dyz     :     0.005900
      dx2y2   :     0.006605
      dxy     :     0.002633
      f0      :     0.000242  f :     0.001219
      f+1     :     0.000076
      f-1     :     0.000117
      f+2     :     0.000552
      f-2     :     0.000111
      f+3     :     0.000047
      f-3     :     0.000073

 26 H s       :     0.629371  s :     0.629371
      pz      :     0.016839  p :     0.046933
      px      :     0.012571
      py      :     0.017523

 27 H s       :     0.588820  s :     0.588820
      pz      :     0.016799  p :     0.054200
      px      :     0.025973
      py      :     0.011428


SPIN
  0 C s       :     0.015821  s :     0.015821
      pz      :     0.018326  p :     0.045795
      px      :     0.031152
      py      :    -0.003683
      dz2     :     0.000946  d :     0.009724
      dxz     :    -0.000052
      dyz     :     0.002906
      dx2y2   :     0.004319
      dxy     :     0.001605
      f0      :    -0.000003  f :     0.000342
      f+1     :     0.000003
      f-1     :     0.000023
      f+2     :     0.000013
      f-2     :     0.000111
      f+3     :    -0.000005
      f-3     :     0.000200

  1 C s       :    -0.024126  s :    -0.024126
      pz      :     0.058896  p :     0.129269
      px      :     0.079932
      py      :    -0.009559
      dz2     :     0.006456  d :     0.031505
      dxz     :     0.000621
      dyz     :     0.001979
      dx2y2   :     0.022418
      dxy     :     0.000032
      f0      :    -0.000037  f :    -0.000016
      f+1     :    -0.000013
      f-1     :     0.000020
      f+2     :     0.000032
      f-2     :     0.000053
      f+3     :    -0.000100
      f-3     :     0.000030

  2 C s       :    -0.021018  s :    -0.021018
      pz      :     0.082221  p :     0.221238
      px      :     0.137699
      py      :     0.001317
      dz2     :     0.008138  d :     0.047195
      dxz     :     0.000650
      dyz     :     0.006911
      dx2y2   :     0.030793
      dxy     :     0.000703
      f0      :    -0.000012  f :    -0.000300
      f+1     :    -0.000042
      f-1     :    -0.000021
      f+2     :    -0.000084
      f-2     :     0.000021
      f+3     :    -0.000118
      f-3     :    -0.000043

  3 C s       :    -0.027001  s :    -0.027001
      pz      :     0.090978  p :     0.232630
      px      :     0.141107
      py      :     0.000545
      dz2     :     0.007769  d :     0.044562
      dxz     :     0.000720
      dyz     :     0.006405
      dx2y2   :     0.028933
      dxy     :     0.000735
      f0      :    -0.000018  f :    -0.000293
      f+1     :    -0.000039
      f-1     :    -0.000021
      f+2     :    -0.000091
      f-2     :     0.000017
      f+3     :    -0.000109
      f-3     :    -0.000033

  4 C s       :    -0.029343  s :    -0.029343
      pz      :     0.069922  p :     0.146944
      px      :     0.086152
      py      :    -0.009130
      dz2     :     0.005994  d :     0.029093
      dxz     :     0.000650
      dyz     :     0.001795
      dx2y2   :     0.020595
      dxy     :     0.000058
      f0      :    -0.000041  f :    -0.000051
      f+1     :    -0.000016
      f-1     :     0.000004
      f+2     :    -0.000000
      f-2     :     0.000055
      f+3     :    -0.000077
      f-3     :     0.000026

  5 C s       :    -0.013261  s :    -0.013261
      pz      :     0.022257  p :     0.062336
      px      :     0.031868
      py      :     0.008211
      dz2     :     0.001455  d :     0.014091
      dxz     :     0.000098
      dyz     :     0.003126
      dx2y2   :     0.008858
      dxy     :     0.000554
      f0      :     0.000005  f :     0.000084
      f+1     :    -0.000016
      f-1     :     0.000003
      f+2     :    -0.000022
      f-2     :     0.000035
      f+3     :     0.000007
      f-3     :     0.000072

  6 C s       :    -0.005612  s :    -0.005612
      pz      :     0.014843  p :     0.024270
      px      :     0.008110
      py      :     0.001317
      dz2     :     0.000949  d :     0.005953
      dxz     :     0.000179
      dyz     :     0.000413
      dx2y2   :     0.004391
      dxy     :     0.000020
      f0      :    -0.000001  f :     0.000080
      f+1     :     0.000017
      f-1     :     0.000009
      f+2     :    -0.000000
      f-2     :     0.000031
      f+3     :    -0.000007
      f-3     :     0.000031

  7 C s       :     0.002906  s :     0.002906
      pz      :     0.005287  p :     0.004692
      px      :     0.000050
      py      :    -0.000644
[...]
 25:    230.88   0.001264    6.39  0.001709  (-0.029570 -0.019563 -0.021255)
 26:    238.80   0.019584   98.97  0.025592  ( 0.003159  0.157705  0.026665)
 27:    244.73   0.000281    1.42  0.000358  ( 0.013998 -0.012715 -0.000849)
 28:    251.71   0.000149    0.75  0.000185  (-0.007609  0.011072 -0.002142)
 29:    260.89   0.000234    1.18  0.000279  ( 0.012633  0.009455  0.005522)
 30:    274.07   0.001327    6.71  0.001511  (-0.036340  0.000805 -0.013768)
 31:    312.56   0.002753   13.91  0.002749  ( 0.000674  0.051858  0.007699)
 32:    319.44   0.005869   29.66  0.005733  (-0.000792  0.074866  0.011308)
 33:    322.25   0.009511   48.06  0.009210  (-0.000279 -0.094172 -0.018484)
 34:    328.03   0.000077    0.39  0.000073  (-0.005359 -0.006516  0.001328)
 35:    335.54   0.004089   20.67  0.003803  ( 0.004728 -0.058830 -0.017884)
 36:    346.17   0.009118   46.08  0.008219  ( 0.003323 -0.089108 -0.016378)
 37:    361.03   0.000015    0.07  0.000013  (-0.003461  0.000309  0.000767)
 38:    365.16   0.000209    1.05  0.000178  (-0.005089 -0.002319 -0.012128)
 39:    375.23   0.002727   13.78  0.002268  (-0.024768 -0.028971 -0.028556)
 40:    409.12   0.015905   80.38  0.012132  ( 0.071844  0.037713  0.074483)
 41:    419.93   0.003460   17.49  0.002571  (-0.030952 -0.015696 -0.036971)
 42:    460.25   0.000407    2.06  0.000276  ( 0.014441  0.008208 -0.000501)
 43:    468.30   0.001115    5.63  0.000743  ( 0.012168 -0.005686  0.023715)
 44:    505.81   0.003656   18.47  0.002255  (-0.000695  0.045748  0.012733)
 45:    513.11   0.000112    0.57  0.000068  ( 0.000629 -0.005803 -0.005836)
 46:    530.51   0.004722   23.87  0.002778  ( 0.015436  0.045152 -0.022381)
 47:    547.34   0.000501    2.53  0.000285  ( 0.007047  0.011357  0.010333)
 48:    563.91   0.004207   21.26  0.002328  (-0.014506  0.037292  0.026968)
 49:    574.48   0.001773    8.96  0.000963  ( 0.005610  0.029450 -0.008007)
 50:    589.52   0.000422    2.13  0.000223  ( 0.005597  0.012296  0.006380)
 51:    602.07   0.002252   11.38  0.001167  ( 0.008139  0.032914  0.004192)
 52:    615.52   0.007557   38.19  0.003831  (-0.009344  0.058305  0.018563)
 53:    634.29   0.077851  393.42  0.038301  (-0.001815 -0.193376 -0.030063)
 54:    667.94   0.013335   67.39  0.006230  ( 0.006023 -0.075948 -0.020632)
 55:    672.78   0.047208  238.57  0.021897  (-0.004719  0.146245  0.022070)
 56:    699.38   0.022902  115.74  0.010219  ( 0.005399  0.100121  0.012879)
 57:    736.13   0.029361  148.38  0.012447  ( 0.006919 -0.109820 -0.018395)
 58:    742.03   0.022094  111.65  0.009292  ( 0.061683  0.002890 -0.074016)
 59:    800.11   0.015414   77.90  0.006012  (-0.028658 -0.052851  0.048962)
 60:    815.35   0.047223  238.64  0.018074  ( 0.004852  0.134290 -0.004031)
 61:    863.34   0.001701    8.60  0.000615  ( 0.002454  0.022146  0.010879)
 62:    869.55   0.042136  212.94  0.015122  ( 0.008878 -0.120127 -0.024743)
 63:    941.63   0.102068  515.81  0.033826  ( 0.014950 -0.172253  0.062701)
 64:    954.03   0.024680  124.72  0.008073  (-0.016303 -0.084681 -0.025222)
 65:    974.09   0.111340  562.67  0.035670  (-0.068569 -0.175382 -0.014456)
 66:   1002.57   0.063740  322.12  0.019840  (-0.051320  0.103443  0.080658)
 67:   1012.99   0.041785  211.17  0.012873  ( 0.085803 -0.072573  0.015602)
 68:   1013.69   0.223084  1127.38  0.068677  (-0.079574  0.196125  0.154530)
 69:   1027.05   0.112264  567.34  0.034111  ( 0.100656  0.009293  0.154573)
 70:   1032.06   0.168354  850.79  0.050905  (-0.117441  0.164169  0.100804)
 71:   1070.58   0.084292  425.98  0.024570  (-0.098138 -0.112193 -0.048498)
 72:   1083.13   0.125733  635.40  0.036226  ( 0.151635 -0.063470  0.095937)
 73:   1084.56   0.039081  197.50  0.011245  (-0.012308 -0.048744  0.093367)
 74:   1104.12   0.059207  299.21  0.016734  (-0.084350  0.037538  0.090609)
 75:   1127.27   0.096214  486.22  0.026635  (-0.008314 -0.162949  0.003674)
 76:   1135.33   0.104284  527.01  0.028664  (-0.106970  0.024047 -0.129009)
 77:   1148.51   0.255742  1292.42  0.069488  (-0.039794 -0.258986 -0.028832)
 78:   1259.59   0.133030  672.28  0.032958  ( 0.041838  0.176655  0.000836)
 79:   1365.89   0.141322  714.19  0.032288  ( 0.040374  0.174313  0.016518)
 80:   1655.30   0.028185  142.43  0.005313  (-0.047587  0.055208 -0.001018)
 81:   1699.27   0.191432  967.42  0.035156  (-0.172478  0.033264 -0.065578)
 82:   3412.12   0.238140  1203.46  0.021780  ( 0.126716  0.015080  0.074130)
 83:   3803.19   0.017001   85.92  0.001395  ( 0.020280  0.020723  0.023544)

* The epsilon (eps) is given for a Dirac delta lineshape.
** The dipole moment derivative (T) already includes vibrational overlap.

The first frequency considered to be a vibration is 6
The total number of vibrations considered is 78


--------------------------
THERMOCHEMISTRY AT 298.15K
--------------------------

Temperature         ...   298.15 K
Pressure            ...     1.00 atm
Total Mass          ...   431.07 AMU
Quasi RRHO          ...     True
Cut-Off Frequency   ...     1.00 cm^-1

Throughout the following assumptions are being made:
  (1) The electronic state is orbitally nondegenerate
      but the spin degeneracy is treated
  (2) There are no thermally accessible electronically excited states
  (3) Hindered rotations indicated by low frequency modes are not
      treated as such but are treated as vibrations and this may
      cause some error
  (4) All equations used are the standard statistical mechanics
      equations for an ideal gas
  (5) All vibrations are strictly harmonic

freq.      18.65  E(vib)   ...       0.57 
freq.      31.30  E(vib)   ...       0.55 
freq.      32.02  E(vib)   ...       0.55 
freq.      35.38  E(vib)   ...       0.54 
freq.      43.98  E(vib)   ...       0.53 
freq.      48.55  E(vib)   ...       0.53 
freq.      53.54  E(vib)   ...       0.52 
freq.      60.72  E(vib)   ...       0.51 
freq.      63.77  E(vib)   ...       0.51 
freq.      70.34  E(vib)   ...       0.50 
freq.      73.26  E(vib)   ...       0.49 
freq.      94.59  E(vib)   ...       0.47 
freq.      99.91  E(vib)   ...       0.46 
freq.     129.95  E(vib)   ...       0.43 
freq.     157.26  E(vib)   ...       0.40 
freq.     180.42  E(vib)   ...       0.37 
freq.     190.64  E(vib)   ...       0.36 
freq.     205.07  E(vib)   ...       0.35 
freq.     213.54  E(vib)   ...       0.34 
freq.     230.88  E(vib)   ...       0.32 
freq.     238.80  E(vib)   ...       0.32 
freq.     244.73  E(vib)   ...       0.31 
freq.     251.71  E(vib)   ...       0.30 
freq.     260.89  E(vib)   ...       0.30 
freq.     274.07  E(vib)   ...       0.28 
freq.     312.56  E(vib)   ...       0.25 
freq.     319.44  E(vib)   ...       0.25 
freq.     322.25  E(vib)   ...       0.25 
freq.     328.03  E(vib)   ...       0.24 
freq.     335.54  E(vib)   ...       0.24 
freq.     346.17  E(vib)   ...       0.23 
freq.     361.03  E(vib)   ...       0.22 
freq.     365.16  E(vib)   ...       0.22 
freq.     375.23  E(vib)   ...       0.21 
freq.     409.12  E(vib)   ...       0.19 
freq.     419.93  E(vib)   ...       0.18 
freq.     460.25  E(vib)   ...       0.16 
freq.     468.30  E(vib)   ...       0.16 
freq.     505.81  E(vib)   ...       0.14 
freq.     513.11  E(vib)   ...       0.13 
freq.     530.51  E(vib)   ...       0.13 
freq.     547.34  E(vib)   ...       0.12 
freq.     563.91  E(vib)   ...       0.11 
freq.     574.48  E(vib)   ...       0.11 
freq.     589.52  E(vib)   ...       0.10 
freq.     602.07  E(vib)   ...       0.10 
freq.     615.52  E(vib)   ...       0.10 
freq.     634.29  E(vib)   ...       0.09 
freq.     667.94  E(vib)   ...       0.08 
freq.     672.78  E(vib)   ...       0.08 
freq.     699.38  E(vib)   ...       0.07 
freq.     736.13  E(vib)   ...       0.06 
freq.     742.03  E(vib)   ...       0.06 
freq.     800.11  E(vib)   ...       0.05 
freq.     815.35  E(vib)   ...       0.05 
freq.     863.34  E(vib)   ...       0.04 
freq.     869.55  E(vib)   ...       0.04 
freq.     941.63  E(vib)   ...       0.03 
freq.     954.03  E(vib)   ...       0.03 
freq.     974.09  E(vib)   ...       0.03 
freq.    1002.57  E(vib)   ...       0.02 
freq.    1012.99  E(vib)   ...       0.02 
freq.    1013.69  E(vib)   ...       0.02 
freq.    1027.05  E(vib)   ...       0.02 
freq.    1032.06  E(vib)   ...       0.02 
freq.    1070.58  E(vib)   ...       0.02 
freq.    1083.13  E(vib)   ...       0.02 
freq.    1084.56  E(vib)   ...       0.02 
freq.    1104.12  E(vib)   ...       0.02 
freq.    1127.27  E(vib)   ...       0.01 
freq.    1135.33  E(vib)   ...       0.01 
freq.    1148.51  E(vib)   ...       0.01 
freq.    1259.59  E(vib)   ...       0.01 
freq.    1365.89  E(vib)   ...       0.01 
freq.    1655.30  E(vib)   ...       0.00 
freq.    1699.27  E(vib)   ...       0.00 
freq.    3412.12  E(vib)   ...       0.00 
freq.    3803.19  E(vib)   ...       0.00 

------------
INNER ENERGY
------------

The inner energy is: U= E(el) + E(ZPE) + E(vib) + E(rot) + E(trans)
    E(el)   - is the total energy from the electronic structure calculation
              = E(kin-el) + E(nuc-el) + E(el-el) + E(nuc-nuc)
    E(ZPE)  - the the zero temperature vibrational energy from the frequency calculation
    E(vib)  - the the finite temperature correction to E(ZPE) due to population
              of excited vibrational states
    E(rot)  - is the rotational thermal energy
    E(trans)- is the translational thermal energy

Summary of contributions to the inner energy U:
Electronic energy                ...  -2029.68129178 Eh
Zero point energy                ...      0.11294497 Eh      70.87 kcal/mol
Thermal vibrational correction   ...      0.02478065 Eh      15.55 kcal/mol
Thermal rotational correction    ...      0.00141627 Eh       0.89 kcal/mol
Thermal translational correction ...      0.00141627 Eh       0.89 kcal/mol
-----------------------------------------------------------------------
Total thermal energy                  -2029.54073362 Eh


Summary of corrections to the electronic energy:
(perhaps to be used in another calculation)
Total thermal correction                  0.02761319 Eh      17.33 kcal/mol
Non-thermal (ZPE) correction              0.11294497 Eh      70.87 kcal/mol
-----------------------------------------------------------------------
Total correction                          0.14055816 Eh      88.20 kcal/mol


--------
ENTHALPY
--------

The enthalpy is H = U + kB*T
                kB is Boltzmann's constant
Total thermal energy              ...  -2029.54073362 Eh 
Thermal Enthalpy correction       ...      0.00094421 Eh       0.59 kcal/mol
-----------------------------------------------------------------------
Total Enthalpy                    ...  -2029.53978941 Eh


Note: Only C1 symmetry has been detected, increase convergence thresholds 
      if your molecule has a higher symmetry. Symmetry factor of 1.0 is   
      used for the rotational entropy correction. 
 

Note: Rotational entropy computed according to Herzberg 
Infrared and Raman Spectra, Chapter V,1, Van Nostrand Reinhold, 1945 
Point Group:  C1, Symmetry Number:   1  
Rotational constants in cm-1:     0.017001     0.003082     0.002970 

Vibrational entropy computed according to the QRRHO of S. Grimme
Chem.Eur.J. 2012 18 9955 using a reference frequency of 100.0 cm-1


-------
ENTROPY
-------

The entropy contributions are T*S = T*(S(el)+S(vib)+S(rot)+S(trans))
     S(el)   - electronic entropy
     S(vib)  - vibrational entropy
     S(rot)  - rotational entropy
     S(trans)- translational entropy
The entropies will be listed as multiplied by the temperature to get
units of energy

Electronic entropy                ...      0.00065446 Eh      0.41 kcal/mol
Vibrational entropy               ...      0.04507892 Eh     28.29 kcal/mol
Rotational entropy                ...      0.01691127 Eh     10.61 kcal/mol
Translational entropy             ...      0.02094056 Eh     13.14 kcal/mol
-----------------------------------------------------------------------
Final entropy term                ...      0.08358520 Eh     52.45 kcal/mol

In case the symmetry of your molecule has not been determined correctly
or in case you have a reason to use a different symmetry number we print 
out the resulting rotational entropy values for sn=1,12:

 non-linear molecules -----------------------------------
|  sn= 1 | S(rot)=       0.01691127 Eh     10.61 kcal/mol|
|  sn= 2 | S(rot)=       0.01625681 Eh     10.20 kcal/mol|
|  sn= 3 | S(rot)=       0.01587398 Eh      9.96 kcal/mol|
|  sn= 4 | S(rot)=       0.01560235 Eh      9.79 kcal/mol|
|  sn= 5 | S(rot)=       0.01539167 Eh      9.66 kcal/mol|
|  sn= 6 | S(rot)=       0.01521952 Eh      9.55 kcal/mol|
|  sn= 7 | S(rot)=       0.01507398 Eh      9.46 kcal/mol|
|  sn= 8 | S(rot)=       0.01494790 Eh      9.38 kcal/mol|
|  sn= 9 | S(rot)=       0.01483669 Eh      9.31 kcal/mol|
|  sn=10 | S(rot)=       0.01473721 Eh      9.25 kcal/mol|
|  sn=11 | S(rot)=       0.01464722 Eh      9.19 kcal/mol|
|  sn=12 | S(rot)=       0.01456507 Eh      9.14 kcal/mol|
 linear molecules ---------------------------------------
|  Dinfh | S(rot)=       0.01082012 Eh      6.79 kcal/mol|
|  Cinfv | S(rot)=       0.01147458 Eh      7.20 kcal/mol|
 --------------------------------------------------------


-------------------
GIBBS FREE ENERGY
-------------------

The Gibbs free energy is G = H - T*S

Total enthalpy                    ...  -2029.53978941 Eh 
Total entropy correction          ...     -0.08358520 Eh    -52.45 kcal/mol
-----------------------------------------------------------------------
Final Gibbs free energy         ...  -2029.62337462 Eh

For completeness - the Gibbs free energy minus the electronic energy
G-E(el)                           ...      0.05791716 Eh     36.34 kcal/mol


Maximum memory used throughout the entire PROP-calculation: 654.3 MB

--------------------------------
SUGGESTED CITATIONS FOR THIS RUN
--------------------------------

Below you find a list of papers that are relevant to this ORCA run
We neither can nor want to force you to cite these papers, but we appreciate if you do
You receive ORCA, which is the product of decades of hard work by many enthusiastic individuals, for free
The only thing we kindly ask in return is that you cite our papers,
We deeply appreciate it, if you show your appreciation for ORCA by not just citing the generic ORCA reference.

Please note that relegating all ORCA citations to the supporting information does *not* help us.
SI sections are not indexed - citations you put there will not count into any citation statistics
But we need these citations in order to attract the funding resources that allow us to do what we are doing

Therefore, if you are a happy ORCA user, please consider citing a few of the papers listed below in the main body of your paper

In addition to the list printed below, the program has created the file rf_mecn_1H2O_freq_B3L_sw_04.bibtex that contains the list in bibtex format
You can import this file easily into all common literature databanks and citation aid programs


List of essential papers. We consider these as the minimum necessary citations

  1. Neese,F.
     Software update: the ORCA program system, version 5.0
     WIRES Comput. Molec. Sci., 2022 12(1)e1606
     doi.org/10.1002/wcms.1606

List of papers to cite with high priority. The work reported in these papers was absolutely
necessary for this run to complete.
Our perspective: the developers of density functionals and basis sets usually get cited in chemistry papers
Good! But without the algorithms to do something with them, the functionals or basis sets would not do anything.
Hence, in our opinion, the algorithm design and method developments papers are equally worthy of getting cited

  1. Neese,F.
     An improvement of the resolution of the identity approximation for the formation of the Coulomb matrix
     J. Comp. Chem., 2003 24(14)1740-1747
     doi.org/10.1002/jcc.10318
  2. Neese,F.; Wennmohs,F.; Hansen,A.; Becker,U.
     Efficient, approximate and parallel Hartree-Fock and hybrid DFT calculations. A 'chain-of-spheres' algorithm for the Hartree-Fock exchange
     Chem. Phys., 2009 356(1-3)98-109
     doi.org/10.1016/j.chemphys.2008.10.036
  3. Bykov,D.; Petrenko,T.; Izsak,R.; Kossmann,S.; Becker,U.; Valeev,E.; Neese,F.
     Efficient implementation of the analytic second derivatives of Hartree-Fock and hybrid DFT energies: a detailed analysis of different approximations
     Molec. Phys., 2015 113 1961-1977
     doi.org/10.1080/00268976.2015.1025114
  4. Garcia-Rates,M.; Neese,F.
     Efficient implementation of the analytical second derivatives of hartree-fock and hybrid DFT energies within the framework of the conductor-like polarizable continuum model
     J. Comput. Chem., 2019 40 1816-1828
     doi.org/10.1002/jcc.25833
  5. Garcia-Rates,M.; Neese,F.
     Effect of the Solute Cavity on the Solvation Energy and its Derivatives within the Framework of the Gaussian Charge Scheme
     J. Comput. Chem., 2020 41 922-939
     doi.org/10.1002/jcc.26139
  6. Helmich-Paris,B.; de Souza,B.; Neese,F.; Izsák,R.
     An improved chain of spheres for exchange algorithm
     J. Chem. Phys., 2021 155 104109
     doi.org/doi: 10.1063/5.0058766.
  7. Neese,F.
     The SHARK Integral Generation and Digestion System
     J. Comp. Chem., 2022  1-16
     doi.org/10.1002/jcc.26942
  8. Grimme,S.; Antony,J.; Ehrlich,S.; Krieg,H.
     A consistent and accurate ab initio parametrization of density functional dispersion correction (DFT-D) for the 94 elements H-Pu
     J. Chem. Phys., 2010 132 154104
     doi.org/10.1063/1.3382344
  9. Grimme,S.; Ehrlich,S.; Goerigk,L.
     Effect of the damping function in dispersion corrected density functional theory
     J. Comput. Chem., 2011 32(7)1456-1465
     doi.org/10.1002/jcc.21759

List of suggested additional citations. These are papers that are important in the 'surrounding' of 
of this run, or papers that preceded the highly important papers. If you like your results we are grateful for a citation.

  1. Izsak,R.; Neese,F.
     An overlap fitted chain of spheres exchange method
     J. Chem. Phys., 2011 135 144105
     doi.org/10.1063/1.3646921
  2. Izsak,R.; Hansen,A.; Neese,F.
     The resolution of identity and chain of spheres approximations for the LPNO-CCSD singles Fock term
     Molec. Phys., 2012 110 2413-2417
     doi.org/10.1080/00268976.2012.687466
  3. Neese,F.
     The ORCA program system
     WIRES Comput. Molec. Sci., 2012 2(1)73-78
     doi.org/10.1002/wcms.81
  4. Izsak,R.; Neese,F.; Klopper,W.
     Robust fitting techniques in the chain of spheres approximation to the Fock exchange: The role of the complementary space
     J. Chem. Phys., 2013 139 
     doi.org/10.1063/1.4819264
  5. Neese,F.
     Software update: the ORCA program system, version 4.0
     WIRES Comput. Molec. Sci., 2018 8(1)1-6
     doi.org/10.1002/wcms.1327
  6. Neese,F.; Wennmohs,F.; Becker,U.; Riplinger,C.
     The ORCA quantum chemistry program package
     J. Chem. Phys., 2020 152 Art. No. L224108
     doi.org/10.1063/5.0004608

List of optional additional citations

  1. Neese,F.
     Approximate second-order SCF convergence for spin unrestricted wavefunctions
     Chem. Phys. Lett., 2000 325(1-3)93-98
     doi.org/10.1016/s0009-2614(00)00662-x

Timings for individual modules:

Sum of individual times          ...     1492.838 sec (=  24.881 min)
Startup calculation              ...        4.428 sec (=   0.074 min)   0.3 %
SCF iterations                   ...      140.145 sec (=   2.336 min)   9.4 %
Property integrals               ...      307.591 sec (=   5.127 min)  20.6 %
SCF Response                     ...      777.470 sec (=  12.958 min)  52.1 %
Property calculations            ...      263.205 sec (=   4.387 min)  17.6 %
                             ****ORCA TERMINATED NORMALLY****
TOTAL RUN TIME: 0 days 0 hours 24 minutes 53 seconds 627 msec
