
                                 *****************
                                 * O   R   C   A *
                                 *****************

                                            #,                                       
                                            ###                                      
                                            ####                                     
                                            #####                                    
                                            ######                                   
                                           ########,                                 
                                     ,,################,,,,,                         
                               ,,#################################,,                 
                          ,,##########################################,,             
                       ,#########################################, ''#####,          
                    ,#############################################,,   '####,        
                  ,##################################################,,,,####,       
                ,###########''''           ''''###############################       
              ,#####''   ,,,,##########,,,,          '''####'''          '####       
            ,##' ,,,,###########################,,,                        '##       
           ' ,,###''''                  '''############,,,                           
         ,,##''                                '''############,,,,        ,,,,,,###''
      ,#''                                            '''#######################'''  
     '                                                          ''''####''''         
             ,#######,   #######,   ,#######,      ##                                
            ,#'     '#,  ##    ##  ,#'     '#,    #''#        ,####,   ,####,        
            ##       ##  ##   ,#'  ##            #'  '#       #'       #'  '#        
            ##       ##  #######   ##           ,######,      #####,   #    #        
            '#,     ,#'  ##    ##  '#,     ,#' ,#      #,     #,   #   #,  ,#        
             '#######'   ##     ##  '#######'  #'      '#     '####' # '####'        



                #########################################################
                #                        -***-                          #
                #          Department of theory and spectroscopy        #
                #                                                       #
                #                      Frank Neese                      #
                #                                                       #
                #     Directorship, Architecture, Infrastructure        #
                #                    SHARK, DRIVERS                     #
                #        Core code/Algorithms in most modules           #
                #                                                       #
                #        Max Planck Institute fuer Kohlenforschung      #
                #                Kaiser Wilhelm Platz 1                 #
                #                 D-45470 Muelheim/Ruhr                 #
                #                      Germany                          #
                #                                                       #
                #                  All rights reserved                  #
                #                        -***-                          #
                #########################################################


                         Program Version 6.0.1  -  RELEASE   -


 With contributions from (in alphabetic order):
[Max-Planck-Institut fuer Kohlenforschung]                               
  Daniel Aravena         : Magnetic Suceptibility                        
  Michael Atanasov       : Ab Initio Ligand Field Theory (pilot matlab implementation)
  Alexander A. Auer      : GIAO ZORA, VPT2 properties, NMR spectrum      
  Ute Becker             : All parallelization in ORCA, NUMFREQ, NUMCALC 
  Giovanni Bistoni       : ED, misc. LED, open-shell LED, HFLD           
  Martin Brehm           : Molecular dynamics                            
  Dmytro Bykov           : pre 5.0 version of the SCF Hessian            
  Marcos Casanova-Páez   : Triplet and SCS-CIS(D). UHF-(DLPNO)-IP/EA/STEOM-CCSD. UHF-CVS-IP/STEOM-CCSD   
  Vijay G. Chilkuri      : MRCI spin determinant printing, contributions to CSF-ICE 
  Pauline Colinet        : FMM embedding                                 
  Dipayan Datta          : RHF DLPNO-CCSD density                        
  Achintya Kumar Dutta   : EOM-CC, STEOM-CC                              
  Nicolas Foglia         : Exact transition moments, OPA infrastructure, MCD improvements    
  Dmitry Ganyushin       : Spin-Orbit,Spin-Spin,Magnetic field MRCI      
  Miquel Garcia-Rates    : C-PCM and meta-GGA Hessian, CCSD/C-PCM, Gaussian charge scheme 
  Tiago L. C. Gouveia    : GS-ROHF, GS-ROCIS                             
  Yang Guo               : DLPNO-NEVPT2, F12-NEVPT2, CIM, IAO-localization        
  Andreas Hansen         : Spin unrestricted coupled pair/coupled cluster methods 
  Ingolf Harden          : AUTO-CI MPn and infrastructure                
  Benjamin Helmich-Paris : MC-RPA, TRAH-(SCF,CASSCF), AVAS, COSX integrals, SCF dyn. polar. 
  Lee Huntington         : MR-EOM, pCC                                   
  Robert Izsak           : Overlap fitted RIJCOSX, COSX-SCS-MP3, EOM     
  Riya Kayal             : Wick's Theorem for AUTO-CI, AUTO-CI UHF-CCSDT 
  Emily Kempfer          : AUTO-CI, RHF CISDT and CCSDT                  
  Christian Kollmar      : KDIIS, OOCD, Brueckner-CCSD(T), CCSD density, CASPT2, CASPT2-K, improved NEVPT2 
  Axel Koslowski         : Symmetry handling                             
  Simone Kossmann        : meta-GGA functionals, TD-DFT gradient, OOMP2, (MP2 Hessian; deprecated post 5.0) 
  Lucas Lang             : DCDCAS                                        
  Marvin Lechner         : AUTO-CI (C++ implementation), FIC-MRCC        
  Spencer Leger          : CASSCF response                               
  Dagmar Lenk            : GEPOL surface, SMD, ORCA-2-JSON               
  Dimitrios Liakos       : Extrapolation schemes; Compound Job, initial MDCI parallelization 
  Dimitrios Manganas     : Further ROCIS development; embedding schemes. LFT, Crystal Embedding 
  Dimitrios Pantazis     : SARC Basis sets                               
  Anastasios Papadopoulos: AUTO-CI, single reference methods and gradients 
  Taras Petrenko         : pre 6.0 DFT Hessian and TD-DFT gradient, (ASA, deprecated), ECA, 1-Electron XAS/XES, NRVS 
  Peter Pinski           : DLPNO-MP2, DLPNO-MP2 Gradient                 
  Christoph Reimann      : Effective Core Potentials                     
  Marius Retegan         : Local ZFS, SOC                                
  Christoph Riplinger    : Optimizer, TS searches, QM/MM, DLPNO-CCSD(T), (RO)-DLPNO pert. Triples 
  Michael Roemelt        : Original ROCIS implementation                 
  Masaaki Saitow         : Open-shell DLPNO-CCSD energy and density      
  Barbara Sandhoefer     : DKH picture change effects                    
  Kantharuban Sivalingam : CASSCF convergence/infrastructure, NEVPT2 and variants, FIC-MRCI 
  Bernardo de Souza      : ESD, SOC TD-DFT                               
  Georgi L. Stoychev     : AutoAux, RI-MP2 NMR, DLPNO-MP2 response, X2C  
  Van Anh Tran           : RI-MP2 g-tensors                              
  Willem Van den Heuvel  : Paramagnetic NMR                              
  Zikuan Wang            : NOTCH, Electric field optimization            
  Frank Wennmohs         : Technical directorship and infrastructure     
  Hang Xu                : AUTO-CI-Response properties                   
                                                                         
[FACCTs GmbH]                                                            
  Markus Bursch, Miquel Garcia-Rates, Christoph Riplinger, Bernardo de Souza, Georgi L. Stoychev 
                                                                 
  APM, Basis sets (HGBS, AHGBS, def-TZVP (Ac-Lr), def2-XVPD (La-Lu)), CI-OPT, improved COSX, DLPNO-Multilevel,           
  DOCKER, DRACO, updates on ESD, GOAT, IRC, LR-CPCM, MBIS, meta-GGA TD-DFT gradient, ML-optimized integration grids, 
  MM, NACMEs, nearIR, NEB, NEB-TS, NL-DFT gradient (VV10), 2- and 3-layer-ONIOM, interface openCOSMO-RS, QMMM,   
  Crystal-QMMM, SF, symmetry and pop. for TD-DFT, r2SCAN hybrids, SOLVATOR                                   
                                                                         
[Other institutions]                                                     
  V. Asgeirsson          : NEB                                           
  Christoph Bannwarth    : sTDA-DFT, sTD-DFT, PBEh-3c, B97-3c, D3        
  Sebastian Ehlert       : rSCAN, r2SCAN, r2SCAN-3c, D4, dhf basis sets  
  Marvin Friede          : D4 for Fr, Ra, Ac-Lr                          
  Lars Goerigk           : TD-DFT with DH, B97 family of functionals     
  Stefan Grimme          : VdW corrections, initial TS optimization, DFT functionals, gCP, sTDA/sTD-DF 
  Waldemar Hujo          : DFT-NL                                        
  H. Jonsson             : NEB                                           
  Holger Kruse           : gCP                                           
  Marcel Mueller         : wB97X-3c, vDZP basis set                      
  Hagen Neugebauer       : wr2SCAN                                       
  Tobias Risthaus        : range-separated hybrid DFT                    
  Lukas Wittmann         : regularized MP2, r2SCAN double-hybrids, wr2SCAN        
                                                                         
We gratefully acknowledge several colleagues who have allowed us to      
interface, adapt or use parts of their codes:                            
  Ed Valeev, F. Pavosevic, A. Kumar             : LibInt (2-el integral package), F12 methods 
  Garnet Chan, S. Sharma, J. Yang, R. Olivares  : DMRG                   
  Ulf Ekstrom                                   : XCFun DFT Library      
  Mihaly Kallay                                 : mrcc  (arbitrary order and MRCC methods)
  Frank Weinhold                                : gennbo (NPA and NBO analysis)           
  Simon Mueller                                 : openCOSMO-RS                            
  Christopher J. Cramer and Donald G. Truhlar   : smd solvation model                     
  S Lehtola, MJT Oliveira, MAL Marques          : LibXC Library                           
  Liviu Ungur et al                             : ANISO software                          


 Your calculation uses the libint2 library for the computation of 2-el integrals
 For citations please refer to: http://libint.valeyev.net

 Your ORCA version has been built with support for libXC version: 6.2.2
 For citations please refer to: https://libxc.gitlab.io

 This ORCA versions uses:
   CBLAS   interface :  Fast vector & matrix operations
   LAPACKE interface :  Fast linear algebra routines
   SCALAPACK package :  Parallel linear algebra routines
   Shared memory     :  Shared parallel matrices
   BLAS/LAPACK       :  OpenBLAS 0.3.27  USE64BITINT DYNAMIC_ARCH NO_AFFINITY SkylakeX SINGLE_THREADED
        Core in use  :  SkylakeX
   Copyright (c) 2011-2014, The OpenBLAS Project


NOTE: MaxCore=8000 MB was set to SCF,MP2,MDCI,CIPSI,MRCI and CIS
      => If you want to overwrite this, your respective input block should be placed after the MaxCore statement
Your calculation utilizes the atom-pairwise dispersion correction
with the Becke-Johnson damping scheme (D3BJ)


Your calculation utilizes the SMD solvation module
Please cite in your paper:
A.V. Marenich, C.J. Cramer, D.G. Truhlar J. Phys. Chem. B, 113, (2009), 6378 

Warning: RI is on but no J-basis has been assigned. Assigning Def2/J (nothing to worry about!)
================================================================================

----- Orbital basis set information -----
Your calculation utilizes the basis: def2-TZVP
   F. Weigend and R. Ahlrichs, Phys. Chem. Chem. Phys. 7, 3297 (2005).

----- AuxJ basis set information -----
Your calculation utilizes the auxiliary basis: def2/J
   F. Weigend, Phys. Chem. Chem. Phys. 8, 1057 (2006).

================================================================================
                                        WARNINGS
                       Please study these warnings very carefully!
================================================================================



WARNING: SCAN, rSCAN, or r2SCAN functional requested.
  ===> : libXC variant has now been activated.



WARNING: your system is open-shell and RHF/RKS was chosen
  ===> : WILL SWITCH to UHF/UKS


WARNING: Geometry Optimization
  ===> : Switching off AutoStart
         For restart on a previous wavefunction, please use MOREAD

================================================================================
                                       INPUT FILE
================================================================================
NAME = rf_mecn_opt_r2s_C6_P_B.inp
|  1> !r2scanh def2-TZVP opt d3 TightSCF SlowConv defgrid2
|  2>  
|  3> %pal
|  4> nprocs 20
|  5> end
|  6>  
|  7> %scf
|  8> MaxIter 1500
|  9> end
| 10>  
| 11> %maxcore 8000
| 12>  
| 13> !CPCM
| 14> %cpcm smd true
| 15> SMDsolvent "ACETONITRILE"
| 16> end
| 17>  
| 18> * xyz 0 2
| 19> 6        4.790427000     -0.033865800     -0.529943200
| 20> 8        5.449345000     -1.206924000     -0.894594600
| 21> 8        4.978223000      1.323071000     -0.737377200
| 22> 6        3.506687600     -0.338741600      0.376153800
| 23> 6        2.222300000      0.400524800     -0.110681600
| 24> 6        0.900506800     -0.386389800      0.175703000
| 25> 6       -0.395261200      0.487294000      0.065549000
| 26> 6       -1.705693600     -0.364773800     -0.068373600
| 27> 6       -3.005136200      0.445344800      0.258164000
| 28> 6       -4.319880200     -0.214526000     -0.270540800
| 29> 9        3.211587400     -1.692050400      0.412735200
| 30> 9        3.741061800      0.055285800      1.689948800
| 31> 9        2.125696800      1.616867800      0.483236600
| 32> 9        2.314152400      0.589704000     -1.455769200
| 33> 9        0.794028800     -1.413561400     -0.700839000
| 34> 9        0.958350600     -0.884509000      1.435093400
| 35> 9       -0.498373400      1.260265600      1.173340200
| 36> 9       -0.299075000      1.289512600     -1.020910800
| 37> 9       -1.792381400     -0.831391600     -1.336863600
| 38> 9       -2.918792200      1.679227200     -0.295171200
| 39> 9       -3.119771000      0.573779800      1.598579800
| 40> 9       -4.383115600     -1.504377600      0.089127600
| 41> 9       -5.365669800      0.430528600      0.260394200
| 42> 9       -4.396020400     -0.128550600     -1.602941800
| 43> 1        5.903122371     -2.014774547     -1.145719253
| 44> *
| 45> 
| 46>                          ****END OF INPUT****
================================================================================

                       *****************************
                       * Geometry Optimization Run *
                       *****************************

Geometry optimization settings:
Update method            Update   .... BFGS
Choice of coordinates    CoordSys .... (2022) Redundant Internals
Initial Hessian          InHess   .... Almloef's Model
Max. no of cycles        MaxIter  .... 75

Convergence Tolerances:
Energy Change            TolE     ....  5.0000e-06 Eh
Max. Gradient            TolMAXG  ....  3.0000e-04 Eh/bohr
RMS Gradient             TolRMSG  ....  1.0000e-04 Eh/bohr
Max. Displacement        TolMAXD  ....  4.0000e-03 bohr
RMS Displacement         TolRMSD  ....  2.0000e-03 bohr
Strict Convergence                .... False

------------------------------------------------------------------------------
                        ORCA OPTIMIZATION COORDINATE SETUP
------------------------------------------------------------------------------

The optimization will be done in redundant internal coordinates (2022)
Making redundant internal coordinates   ...  (2022 redundants) done
Evaluating the initial hessian          ...  (Almloef) done
Evaluating the coordinates              ...  done
Calculating the B-matrix                .... done
Calculating the G-matrix                .... done
Diagonalizing the G-matrix              .... done
Small eigenvalue found = 4.724e-03
Small eigenvalue found = 1.347e-02
Small eigenvalue found = 2.872e-02
The first mode is                       ....   39
The number of degrees of freedom        ....   69

    -----------------------------------------------------------------
                    Redundant Internal Coordinates


    -----------------------------------------------------------------
         Definition                    Initial Value    Approx d2E/dq
    -----------------------------------------------------------------
      1. B(O   1,C   0)                  1.3940         0.551454   
      2. B(O   2,C   0)                  1.3855         0.568952   
      3. B(C   3,C   0)                  1.6006         0.288221   
      4. B(C   4,C   3)                  1.5599         0.334759   
      5. B(C   5,C   4)                  1.5647         0.328824   
      6. B(C   6,C   5)                  1.5667         0.326486   
      7. B(C   7,C   6)                  1.5688         0.323927   
      8. B(C   8,C   7)                  1.5657         0.327637   
      9. B(C   9,C   8)                  1.5632         0.330714   
     10. B(F  10,C   3)                  1.3856         0.528443   
     11. B(F  11,C   3)                  1.3915         0.517117   
     12. B(F  12,C   4)                  1.3570         0.586881   
     13. B(F  13,C   4)                  1.3614         0.577499   
     14. B(F  14,C   5)                  1.3545         0.592326   
     15. B(F  15,C   5)                  1.3556         0.590092   
     16. B(F  16,C   6)                  1.3547         0.591865   
     17. B(F  17,C   6)                  1.3540         0.593567   
     18. B(F  18,C   7)                  1.3544         0.592672   
     19. B(F  19,C   8)                  1.3550         0.591238   
     20. B(F  20,C   8)                  1.3514         0.599114   
     21. B(F  21,C   9)                  1.3406         0.623533   
     22. B(F  22,C   9)                  1.3385         0.628179   
     23. B(F  23,C   9)                  1.3373         0.630929   
     24. B(H  24,O   1)                  0.9600         0.519956   
     25. A(O   1,C   0,O   2)          136.1318         0.413163   
     26. A(O   2,C   0,C   3)          112.3347         0.371210   
     27. A(O   1,C   0,C   3)          111.5249         0.369222   
     28. L(C   0,O   1,H  24,C   3, 2) 180.0000         0.362759   
     29. L(C   0,O   1,H  24,C   3, 1) 180.0000         0.362759   
     30. A(C   4,C   3,F  11)          107.4072         0.373095   
     31. A(C   0,C   3,F  11)          110.2099         0.363632   
     32. A(F  10,C   3,F  11)          106.7094         0.399684   
     33. A(C   4,C   3,F  10)          107.2033         0.374492   
     34. A(C   0,C   3,F  10)          111.8265         0.364982   
     35. A(C   0,C   3,C   4)          113.1687         0.341363   
     36. A(C   3,C   4,F  12)          110.2926         0.381351   
     37. A(F  12,C   4,F  13)          108.2194         0.415201   
     38. A(C   3,C   4,C   5)          113.5839         0.349005   
     39. A(C   5,C   4,F  13)          107.9208         0.379109   
     40. A(C   3,C   4,F  13)          108.5818         0.380286   
     41. A(C   5,C   4,F  12)          108.0911         0.380169   
     42. A(F  14,C   5,F  15)          109.0206         0.417483   
     43. A(C   4,C   5,C   6)          113.9128         0.347536   
     44. A(C   6,C   5,F  15)          107.7906         0.380059   
     45. A(C   4,C   5,F  15)          108.5900         0.380529   
     46. A(C   6,C   5,F  14)          108.2026         0.380308   
     47. A(C   4,C   5,F  14)          109.2282         0.380779   
     48. A(C   5,C   6,C   7)          113.2023         0.346660   
     49. A(F  16,C   6,F  17)          108.8752         0.417862   
     50. A(C   7,C   6,F  17)          108.2186         0.379927   
     51. A(C   5,C   6,F  17)          109.1523         0.380446   
     52. A(C   7,C   6,F  16)          108.4284         0.379738   
     53. A(C   5,C   6,F  16)          108.8835         0.380256   
     54. A(C   8,C   7,F  18)          108.6915         0.380579   
     55. A(C   6,C   7,F  18)          108.6955         0.379828   
     56. A(C   6,C   7,C   8)          113.2298         0.346865   
     57. A(F  19,C   8,F  20)          108.8987         0.418476   
     58. A(C   7,C   8,C   9)          114.1471         0.348078   
     59. A(C   9,C   8,F  20)          107.7127         0.381912   
     60. A(C   7,C   8,F  20)          109.0521         0.381293   
     61. A(C   9,C   8,F  19)          107.4499         0.381036   
     62. A(C   7,C   8,F  19)          109.4572         0.380419   
     63. A(F  22,C   9,F  23)          108.6464         0.426961   
     64. A(F  21,C   9,F  23)          109.0552         0.426394   
     65. A(C   8,C   9,F  23)          110.9604         0.385362   
     66. A(F  21,C   9,F  22)          108.6877         0.426061   
     67. A(C   8,C   9,F  22)          108.6349         0.385069   
     68. A(C   8,C   9,F  21)          110.7995         0.384572   
     69. D(F  10,C   3,C   0,O   1)     -9.8890         0.006601   
     70. D(F  11,C   3,C   0,O   2)    -70.4768         0.006601   
     71. D(F  10,C   3,C   0,O   2)    171.0025         0.006601   
     72. D(F  11,C   3,C   0,O   1)    108.6317         0.006601   
     73. D(C   4,C   3,C   0,O   2)     49.8076         0.006601   
     74. D(C   4,C   3,C   0,O   1)   -131.0839         0.006601   
     75. D(C   5,C   4,C   3,C   0)    148.6429         0.009100   
     76. D(F  12,C   4,C   3,F  11)     32.0233         0.009100   
     77. D(F  12,C   4,C   3,F  10)    146.3851         0.009100   
     78. D(C   5,C   4,C   3,F  11)    -89.4885         0.009100   
     79. D(F  12,C   4,C   3,C   0)    -89.8453         0.009100   
     80. D(C   5,C   4,C   3,F  10)     24.8733         0.009100   
     81. D(C   6,C   5,C   4,F  13)    -75.6292         0.008811   
     82. D(C   6,C   5,C   4,F  12)     41.2001         0.008811   
     83. D(C   6,C   5,C   4,C   3)    163.9326         0.008811   
     84. D(F  14,C   5,C   4,F  13)     45.4721         0.008811   
     85. D(F  14,C   5,C   4,F  12)    162.3014         0.008811   
     86. D(F  14,C   5,C   4,C   3)    -74.9661         0.008811   
     87. D(F  16,C   6,C   5,F  15)     44.2190         0.008700   
     88. D(F  16,C   6,C   5,F  14)    161.9826         0.008700   
     89. D(F  16,C   6,C   5,C   4)    -76.3465         0.008700   
     90. D(C   7,C   6,C   5,F  15)    -76.4529         0.008700   
     91. D(C   7,C   6,C   5,F  14)     41.3107         0.008700   
     92. D(C   7,C   6,C   5,C   4)    162.9815         0.008700   
     93. D(F  18,C   7,C   6,F  16)    162.3257         0.008059   
     94. D(F  18,C   7,C   6,C   5)    -76.7446         0.008059   
     95. D(C   8,C   7,C   6,F  17)    -76.5134         0.008059   
     96. D(C   8,C   7,C   6,F  16)     41.4341         0.008059   
     97. D(C   8,C   7,C   6,C   5)    162.3638         0.008059   
     98. D(C   9,C   8,C   7,F  18)     41.5227         0.008223   
     99. D(C   9,C   8,C   7,C   6)    162.4166         0.008223   
    100. D(F  20,C   8,C   7,C   6)    -77.0818         0.008223   
    101. D(F  19,C   8,C   7,F  18)    -78.9355         0.008223   
    102. D(F  19,C   8,C   7,C   6)     41.9584         0.008223   
    103. D(F  22,C   9,C   8,F  20)     48.1091         0.008903   
    104. D(F  22,C   9,C   8,F  19)    -69.0724         0.008903   
    105. D(F  22,C   9,C   8,C   7)    169.3552         0.008903   
    106. D(F  21,C   9,C   8,F  20)    -71.2185         0.008903   
    107. D(F  21,C   9,C   8,F  19)    171.5999         0.008903   
    108. D(F  21,C   9,C   8,C   7)     50.0276         0.008903   
    -----------------------------------------------------------------

Number of atoms                         .... 25
Number of degrees of freedom            .... 108


         *************************************************************
         *                GEOMETRY OPTIMIZATION CYCLE   1            *
         *************************************************************
---------------------------------
CARTESIAN COORDINATES (ANGSTROEM)
---------------------------------
  C      4.790427   -0.033866   -0.529943
  O      5.449345   -1.206924   -0.894595
  O      4.978223    1.323071   -0.737377
  C      3.506688   -0.338742    0.376154
  C      2.222300    0.400525   -0.110682
  C      0.900507   -0.386390    0.175703
  C     -0.395261    0.487294    0.065549
  C     -1.705694   -0.364774   -0.068374
  C     -3.005136    0.445345    0.258164
  C     -4.319880   -0.214526   -0.270541
  F      3.211587   -1.692050    0.412735
  F      3.741062    0.055286    1.689949
  F      2.125697    1.616868    0.483237
  F      2.314152    0.589704   -1.455769
  F      0.794029   -1.413561   -0.700839
  F      0.958351   -0.884509    1.435093
  F     -0.498373    1.260266    1.173340
  F     -0.299075    1.289513   -1.020911
  F     -1.792381   -0.831392   -1.336864
  F     -2.918792    1.679227   -0.295171
  F     -3.119771    0.573780    1.598580
  F     -4.383116   -1.504378    0.089128
  F     -5.365670    0.430529    0.260394
  F     -4.396020   -0.128551   -1.602942
  H      5.903122   -2.014775   -1.145719

----------------------------
CARTESIAN COORDINATES (A.U.)
----------------------------
  NO LB      ZA    FRAG     MASS         X           Y           Z
   0 C     6.0000    0    12.011    9.052595   -0.063997   -1.001448
   1 O     8.0000    0    15.999   10.297770   -2.280756   -1.690539
   2 O     8.0000    0    15.999    9.407478    2.500242   -1.393441
   3 C     6.0000    0    12.011    6.626679   -0.640129    0.710828
   4 C     6.0000    0    12.011    4.199538    0.756882   -0.209158
   5 C     6.0000    0    12.011    1.701711   -0.730171    0.332031
   6 C     6.0000    0    12.011   -0.746935    0.920852    0.123870
   7 C     6.0000    0    12.011   -3.223294   -0.689323   -0.129207
   8 C     6.0000    0    12.011   -5.678884    0.841580    0.487859
   9 C     6.0000    0    12.011   -8.163391   -0.405395   -0.511248
  10 F     9.0000    0    18.998    6.069021   -3.197512    0.779956
  11 F     9.0000    0    18.998    7.069582    0.104475    3.193540
  12 F     9.0000    0    18.998    4.016985    3.055437    0.913185
  13 F     9.0000    0    18.998    4.373114    1.114379   -2.751005
  14 F     9.0000    0    18.998    1.500497   -2.671244   -1.324394
  15 F     9.0000    0    18.998    1.811020   -1.671480    2.711934
  16 F     9.0000    0    18.998   -0.941789    2.381557    2.217292
  17 F     9.0000    0    18.998   -0.565170    2.436826   -1.929242
  18 F     9.0000    0    18.998   -3.387110   -1.571102   -2.526306
  19 F     9.0000    0    18.998   -5.515718    3.173280   -0.557793
  20 F     9.0000    0    18.998   -5.895513    1.084287    3.020878
  21 F     9.0000    0    18.998   -8.282888   -2.842862    0.168427
  22 F     9.0000    0    18.998  -10.139646    0.813581    0.492074
  23 F     9.0000    0    18.998   -8.307275   -0.242925   -3.029121
  24 H     1.0000    0     1.008   11.155285   -3.807372   -2.165096

--------------------------------
INTERNAL COORDINATES (ANGSTROEM)
--------------------------------
 C      0   0   0     0.000000000000     0.00000000     0.00000000
 O      1   0   0     1.393990356793     0.00000000     0.00000000
 O      1   2   0     1.385486802956   136.13177198     0.00000000
 C      1   2   3     1.600608594862   111.52489317   181.18992567
 C      4   1   2     1.559863783763   113.16872737   228.91614990
 C      5   4   1     1.564732561934   113.58394786   148.64287440
 C      6   5   4     1.566675459667   113.91280616   163.93256239
 C      7   6   5     1.568817348692   113.20226571   162.98152714
 C      8   7   6     1.565717094808   113.22984595   162.36375422
 C      9   8   7     1.563173062643   114.14707705   162.41661495
 F      4   1   2     1.385592665621   111.82651119   350.11101305
 F      4   1   2     1.391490625050   110.20991618   108.63170802
 F      5   4   1     1.357041377479   110.29260564   270.15468021
 F      5   4   1     1.361428031433   108.58179722    28.57841973
 F      6   5   4     1.354527570075   109.22822656   285.03385927
 F      6   5   4     1.355556277776   108.59004089    43.81583148
 F      7   6   5     1.354739297058   108.88346185   283.65347401
 F      7   6   5     1.353957667090   109.15230848    42.38718856
 F      8   7   6     1.354368423305   108.69554158   283.25540020
 F      9   8   7     1.355028009646   109.45719767    41.95842364
 F      9   8   7     1.351425618925   109.05210362   282.91820052
 F     10   9   8     1.340551089588   110.79953142    50.02756898
 F     10   9   8     1.338530275591   108.63493714   169.35523750
 F     10   9   8     1.337341214598   110.96044107   288.72891896
 H      2   1   3     0.960000000033   180.00000000     0.00000000

---------------------------
INTERNAL COORDINATES (A.U.)
---------------------------
 C      0   0   0     0.000000000000     0.00000000     0.00000000
 O      1   0   0     2.634260007667     0.00000000     0.00000000
 O      1   2   0     2.618190619750   136.13177198     0.00000000
 C      1   2   3     3.024711891890   111.52489317   181.18992567
 C      4   1   2     2.947715357535   113.16872737   228.91614990
 C      5   4   1     2.956916014884   113.58394786   148.64287440
 C      6   5   4     2.960587559506   113.91280616   163.93256239
 C      7   6   5     2.964635143173   113.20226571   162.98152714
 C      8   7   6     2.958776512386   113.22984595   162.36375422
 C      9   8   7     2.953968988318   114.14707705   162.41661495
 F      4   1   2     2.618390671194   111.82651119   350.11101305
 F      4   1   2     2.629536199263   110.20991618   108.63170802
 F      5   4   1     2.564436555835   110.29260564   270.15468021
 F      5   4   1     2.572726130452   108.58179722    28.57841973
 F      6   5   4     2.559686148288   109.22822656   285.03385927
 F      6   5   4     2.561630124115   108.59004089    43.81583148
 F      7   6   5     2.560086254300   108.88346185   283.65347401
 F      7   6   5     2.558609187723   109.15230848    42.38718856
 F      8   7   6     2.559385404477   108.69554158   283.25540020
 F      9   8   7     2.560631842023   109.45719767    41.95842364
 F      9   8   7     2.553824310132   109.05210362   282.91820052
 F     10   9   8     2.533274427850   110.79953142    50.02756898
 F     10   9   8     2.529455642830   108.63493714   169.35523750
 F     10   9   8     2.527208643196   110.96044107   288.72891896
 H      2   1   3     1.814137088628   180.00000000     0.00000000

---------------------
BASIS SET INFORMATION
---------------------
There are 4 groups of distinct atoms

 Group   1 Type C   : 11s6p2d1f contracted to 5s3p2d1f pattern {62111/411/11/1}
 Group   2 Type O   : 11s6p2d1f contracted to 5s3p2d1f pattern {62111/411/11/1}
 Group   3 Type F   : 11s6p2d1f contracted to 5s3p2d1f pattern {62111/411/11/1}
 Group   4 Type H   : 5s1p contracted to 3s1p pattern {311/1}

Atom   0C    basis set group =>   1
Atom   1O    basis set group =>   2
Atom   2O    basis set group =>   2
Atom   3C    basis set group =>   1
Atom   4C    basis set group =>   1
Atom   5C    basis set group =>   1
Atom   6C    basis set group =>   1
Atom   7C    basis set group =>   1
Atom   8C    basis set group =>   1
Atom   9C    basis set group =>   1
Atom  10F    basis set group =>   3
Atom  11F    basis set group =>   3
Atom  12F    basis set group =>   3
Atom  13F    basis set group =>   3
Atom  14F    basis set group =>   3
Atom  15F    basis set group =>   3
Atom  16F    basis set group =>   3
Atom  17F    basis set group =>   3
Atom  18F    basis set group =>   3
Atom  19F    basis set group =>   3
Atom  20F    basis set group =>   3
Atom  21F    basis set group =>   3
Atom  22F    basis set group =>   3
Atom  23F    basis set group =>   3
Atom  24H    basis set group =>   4
---------------------------------
AUXILIARY/J BASIS SET INFORMATION
---------------------------------
There are 4 groups of distinct atoms

 Group   1 Type C   : 12s5p4d2f1g contracted to 6s4p3d1f1g pattern {711111/2111/211/2/1}
 Group   2 Type O   : 12s5p4d2f1g contracted to 6s4p3d1f1g pattern {711111/2111/211/2/1}
 Group   3 Type F   : 12s5p4d2f1g contracted to 6s4p3d1f1g pattern {711111/2111/211/2/1}
 Group   4 Type H   : 5s2p1d contracted to 3s1p1d pattern {311/2/1}

Atom   0C    basis set group =>   1
Atom   1O    basis set group =>   2
Atom   2O    basis set group =>   2
Atom   3C    basis set group =>   1
Atom   4C    basis set group =>   1
Atom   5C    basis set group =>   1
Atom   6C    basis set group =>   1
Atom   7C    basis set group =>   1
Atom   8C    basis set group =>   1
Atom   9C    basis set group =>   1
Atom  10F    basis set group =>   3
Atom  11F    basis set group =>   3
Atom  12F    basis set group =>   3
Atom  13F    basis set group =>   3
Atom  14F    basis set group =>   3
Atom  15F    basis set group =>   3
Atom  16F    basis set group =>   3
Atom  17F    basis set group =>   3
Atom  18F    basis set group =>   3
Atom  19F    basis set group =>   3
Atom  20F    basis set group =>   3
Atom  21F    basis set group =>   3
Atom  22F    basis set group =>   3
Atom  23F    basis set group =>   3
Atom  24H    basis set group =>   4


           ************************************************************
           *        Program running with 20 parallel MPI-processes    *
           *              working on a common directory               *
           ************************************************************
------------------------------------------------------------------------------
                             ORCA STARTUP CALCULATIONS
                           -- RI-GTO INTEGRALS CHOSEN --
------------------------------------------------------------------------------
------------------------------------------------------------------------------
                   ___                                                        
                  /   \      - P O W E R E D   B Y -                         
                 /     \                                                     
                 |  |  |   _    _      __       _____    __    __             
                 |  |  |  | |  | |    /  \     |  _  \  |  |  /  |          
                  \  \/   | |  | |   /    \    | | | |  |  | /  /          
                 / \  \   | |__| |  /  /\  \   | |_| |  |  |/  /          
                |  |  |   |  __  | /  /__\  \  |    /   |      \           
                |  |  |   | |  | | |   __   |  |    \   |  |\   \          
                \     /   | |  | | |  |  |  |  | |\  \  |  | \   \       
                 \___/    |_|  |_| |__|  |__|  |_| \__\ |__|  \__/        
                                                                              
                      - O R C A' S   B I G   F R I E N D -                    
                                      &                                       
                       - I N T E G R A L  F E E D E R -                       
                                                                              
 v1 FN, 2020, v2 2021, v3 2022-2024                                           
------------------------------------------------------------------------------


----------------------
SHARK INTEGRAL PACKAGE
----------------------

Number of atoms                             ...     25
Number of basis functions                   ...    750
Number of shells                            ...    268
Maximum angular momentum                    ...      3
Integral batch strategy                     ... SHARK/LIBINT Hybrid
RI-J (if used) integral strategy            ... SPLIT-RIJ (Revised 2003 algorithm where possible)
Printlevel                                  ...      1
Contraction scheme used                     ... SEGMENTED contraction
Prescreening option                         ... SCHWARTZ
   Thresh                                   ... 2.500e-11
   Tcut                                     ... 2.500e-12
   Tpresel                                  ... 2.500e-12 
Coulomb Range Separation                    ... NOT USED
Exchange Range Separation                   ... NOT USED
Multipole approximations                    ... NOT USED
Finite Nucleus Model                        ... NOT USED
CABS basis                                  ... NOT available
Auxiliary Coulomb fitting basis             ... AVAILABLE
   # of basis functions in Aux-J            ...   1187
   # of shells in Aux-J                     ...    365
   Maximum angular momentum in Aux-J        ...      4
Auxiliary J/K fitting basis                 ... NOT available
Auxiliary Correlation fitting basis         ... NOT available
Auxiliary 'external' fitting basis          ... NOT available

Checking pre-screening integrals            ... done (  0.0 sec) Dimension = 268
Check shell pair data                       ... done (  0.0 sec)
Shell pair information
Shell pair cut-off parameter TPreSel        ...   2.5e-12
Total number of shell pairs                 ...     36046
Shell pairs after pre-screening             ...     21958
Total number of primitive shell pairs       ...    118872
Primitive shell pairs kept                  ...     46600
          la=0 lb=0:   4192 shell pairs
          la=1 lb=0:   5994 shell pairs
          la=1 lb=1:   2074 shell pairs
          la=2 lb=0:   3260 shell pairs
          la=2 lb=1:   2381 shell pairs
          la=2 lb=2:    672 shell pairs
          la=3 lb=0:   1480 shell pairs
          la=3 lb=1:   1144 shell pairs
          la=3 lb=2:    613 shell pairs
          la=3 lb=3:    148 shell pairs

Calculating one electron integrals          ... done (  0.1 sec)
Calculating RI/J V-Matrix + Cholesky decomp.... done (  0.1 sec)
Calculating Nuclear repulsion               ... done (  0.0 sec) ENN=   2615.292713485126 Eh

Diagonalization of the overlap matrix:
Smallest eigenvalue                        ... 6.664e-05
Time for diagonalization                   ...    0.133 sec
Threshold for overlap eigenvalues          ... 1.000e-07
Number of eigenvalues below threshold      ... 0
Time for construction of square roots      ...    0.060 sec
Total time needed                          ...    0.201 sec

-------------------
DFT GRID GENERATION
-------------------

General Integration Accuracy     IntAcc      ... 4.388
Radial Grid Type                 RadialGrid  ... OptM3 with GC (2021)
Angular Grid (max. ang.)         AngularGrid ... 4 (Lebedev-302)
Angular grid pruning method      GridPruning ... 4 (adaptive)
Weight generation scheme         WeightScheme... mBecke (2022)
Basis function cutoff            BFCut       ... 1.0000e-11
Integration weight cutoff        WCut        ... 1.0000e-14
Partially contracted basis set               ... off
Rotationally invariant grid construction     ... off
Angular grids for H and He will be reduced by one unit

Total number of grid points                  ...   148750
Total number of batches                      ...     2335
Average number of points per batch           ...       63
Average number of grid points per atom       ...     5950

--------------------
COSX GRID GENERATION
--------------------

GRIDX 1
-------
General Integration Accuracy     IntAcc      ... 3.816
Radial Grid Type                 RadialGrid  ... OptM3 with GC (2021)
Angular Grid (max. ang.)         AngularGrid ... 1 (Lebedev-50)
Angular grid pruning method      GridPruning ... 4 (adaptive)
Weight generation scheme         WeightScheme... mBecke (2022)
Basis function cutoff            BFCut       ... 1.0000e-11
Integration weight cutoff        WCut        ... 1.0000e-14
Partially contracted basis set               ... on
Rotationally invariant grid construction     ... off
Angular grids for H and He will be reduced by one unit

Total number of grid points                  ...    18713
Total number of batches                      ...      158
Average number of points per batch           ...      118
Average number of grid points per atom       ...      749
UseSFitting                                  ... on

GRIDX 2
-------
General Integration Accuracy     IntAcc      ... 4.020
Radial Grid Type                 RadialGrid  ... OptM3 with GC (2021)
Angular Grid (max. ang.)         AngularGrid ... 2 (Lebedev-110)
Angular grid pruning method      GridPruning ... 4 (adaptive)
Weight generation scheme         WeightScheme... mBecke (2022)
Basis function cutoff            BFCut       ... 1.0000e-11
Integration weight cutoff        WCut        ... 1.0000e-14
Partially contracted basis set               ... on
Rotationally invariant grid construction     ... off
Angular grids for H and He will be reduced by one unit

Total number of grid points                  ...    44130
Total number of batches                      ...      359
Average number of points per batch           ...      122
Average number of grid points per atom       ...     1765
UseSFitting                                  ... on

GRIDX 3
-------
General Integration Accuracy     IntAcc      ... 4.338
Radial Grid Type                 RadialGrid  ... OptM3 with GC (2021)
Angular Grid (max. ang.)         AngularGrid ... 3 (Lebedev-194)
Angular grid pruning method      GridPruning ... 4 (adaptive)
Weight generation scheme         WeightScheme... mBecke (2022)
Basis function cutoff            BFCut       ... 1.0000e-11
Integration weight cutoff        WCut        ... 1.0000e-14
Partially contracted basis set               ... on
Rotationally invariant grid construction     ... off
Angular grids for H and He will be reduced by one unit

Total number of grid points                  ...    97707
Total number of batches                      ...      775
Average number of points per batch           ...      126
Average number of grid points per atom       ...     3908
UseSFitting                                  ... on
Initializing property integral containers    ... done (  0.0 sec)

SHARK setup successfully completed in   3.9 seconds

Maximum memory used throughout the entire STARTUP-calculation: 56.8 MB


           ************************************************************
           *        Program running with 20 parallel MPI-processes    *
           *              working on a common directory               *
           ************************************************************
-------------------------------------------------------------------------------
                                 ORCA GUESS
                   Start orbitals & Density for SCF / CASSCF
-------------------------------------------------------------------------------

------------
SCF SETTINGS
------------
Hamiltonian:
 Density Functional     Method          .... DFT(GTOs)
  Functional kind                       .... Exchange
  Functional name                       .... Re-regularized SCAN exchange by Furness et al
  Functional family                     .... MGGA
  Functional refs                              
    [ 0] J. W. Furness, A. D. Kaplan, J. Ning, J. P. Perdew, and J. Sun.,  J. Phys. Chem. Lett. 11, 8208-8215 (2020), doi: 10.1021/acs.jpclett.0c02405
    [ 1] J. W. Furness, A. D. Kaplan, J. Ning, J. P. Perdew, and J. Sun.,  J. Phys. Chem. Lett. 11, 9248-9248 (2020), doi: 10.1021/acs.jpclett.0c03077
  Functional external parameters        .... 6
    Parameter  0 _c1        =  6.670000e-01 : c1 parameter        
    Parameter  1 _c2        =  8.000000e-01 : c2 parameter        
    Parameter  2 _d         =  1.240000e+00 : d parameter         
    Parameter  3 _k1        =  6.500000e-02 : k1 parameter        
    Parameter  4 _eta       =  1.000000e-03 : eta parameter       
    Parameter  5 _dp2       =  3.610000e-01 : dp2 parameter       
  Functional kind                       .... Correlation
  Functional name                       .... Re-regularized SCAN correlation by Furness et al
  Functional family                     .... MGGA
  Functional refs                              
    [ 0] J. W. Furness, A. D. Kaplan, J. Ning, J. P. Perdew, and J. Sun.,  J. Phys. Chem. Lett. 11, 8208-8215 (2020), doi: 10.1021/acs.jpclett.0c02405
    [ 1] J. W. Furness, A. D. Kaplan, J. Ning, J. P. Perdew, and J. Sun.,  J. Phys. Chem. Lett. 11, 9248-9248 (2020), doi: 10.1021/acs.jpclett.0c03077
  Functional external parameters        .... 1
    Parameter  0 _eta       =  1.000000e-03 : Regularization parameter
 Gradients option       PostSCFGGA      .... off
 Hybrid DFT is turned on
   Fraction HF Exchange ScalHFX         ....  0.100000
   Scaling of DF-GGA-X  ScalDFX         ....  0.900000
   Scaling of DF-GGA-C  ScalDFC         ....  1.000000
   Scaling of DF-LDA-C  ScalLDAC        ....  1.000000
   Perturbative correction              ....  0.000000
   NL short-range parameter             .... 11.900000
 RI-approximation to the Coulomb term is turned on
   Number of AuxJ basis functions       .... 1187
   RIJ-COSX (HFX calculated with COS-X)).... on


General Settings:
 Integral files         IntName         .... rf_mecn_opt_r2s_C6_P_B
 Hartree-Fock type      HFTyp           .... UHF
 Total Charge           Charge          ....    0
 Multiplicity           Mult            ....    2
 Number of Electrons    NEL             ....  191
 Basis Dimension        Dim             ....  750
 Nuclear Repulsion      ENuc            ....   2615.2927134851 Eh

Convergence Acceleration:
 AO-DIIS                CNVDIIS         .... on
   Start iteration      DIISMaxIt       ....     0
   Startup error        DIISStart       ....  0.200000
   # of expansion vecs  DIISMaxEq       ....     5
   Bias factor          DIISBfac        ....   1.050
   Max. coefficient     DIISMaxC        ....  10.000
 MO-DIIS                CNVKDIIS        .... off
 Trust-Rad. Augm. Hess. CNVTRAH         .... auto
   Auto Start mean grad. ratio tolernc. ....  1.125000
   Auto Start start iteration           ....    50
   Auto Start num. interpolation iter.  ....    10
   Max. Number of Micro iterations      ....    24
   Max. Number of Macro iterations      .... Maxiter - #DIIS iter
   Number of Davidson start vectors     ....     2
   Converg. threshold    (grad. norm)   ....   1.000e-05
   Grad. Scal. Fac. for Micro threshold ....   0.100
   Minimum threshold for Micro iter.    ....   1.000e-02
   NR start threshold (gradient norm)   ....   1.000e-04
   Initial trust radius                 ....   0.400
   Minimum AH scaling param. (alpha)    ....   1.000
   Maximum AH scaling param. (alpha)    .... 1000.000
   Quad. conv. algorithm                .... NR
   White noise on init. David. guess    .... on
   Maximum white noise                  ....   0.010
   Pseudo random numbers                .... off
   Inactive MOs                         .... canonical
   Orbital update algorithm             .... Taylor
   Preconditioner                       .... Diag
   Full preconditioner red. dimension   ....   250
 SOSCF                  CNVSOSCF        .... on
   Start iteration      SOSCFMaxIt      ....   150
   Startup grad/error   SOSCFStart      ....  0.001000
   Hessian update       SOSCFHessUp     .... L-BFGS
 Level Shifting         CNVShift        .... on
   Level shift para.    LevelShift      ....    0.2500
   Turn off err/grad.   ShiftErr        ....    0.0000
 Zerner damping         CNVZerner       .... off
 Static damping         CNVDamp         .... on
   Fraction old density DampFac         ....    0.8500
   Max. Damping (<1)    DampMax         ....    0.9800
   Min. Damping (>=0)   DampMin         ....    0.0000
   Turn off err/grad.   DampErr         ....    0.0300

SCF Procedure:
 Maximum # iterations   MaxIter         ....  1500
 SCF integral mode      SCFMode         .... Direct
   Integral package                     .... SHARK and LIBINT hybrid scheme
 Reset frequency        DirectResetFreq ....    20
 Integral Threshold     Thresh          ....  2.500e-11 Eh
 Primitive CutOff       TCut            ....  2.500e-12 Eh

Convergence Tolerance:
 Convergence Check Mode ConvCheckMode   .... Total+1el-Energy
 Convergence forced     ConvForced      .... 0
 Energy Change          TolE            ....  1.000e-08 Eh
 1-El. energy change                    ....  1.000e-05 Eh
 Orbital Gradient       TolG            ....  1.000e-05
 Orbital Rotation angle TolX            ....  1.000e-05
 DIIS Error             TolErr          ....  5.000e-07

------------------------------
INITIAL GUESS: MODEL POTENTIAL
------------------------------
Loading Hartree-Fock densities                     ... done
Calculating cut-offs                               ... done
Initializing the effective Hamiltonian             ... done
Setting up the integral package (SHARK)            ... done
Starting the Coulomb interaction                   ... done (   0.3 sec)
Making the grid                                    ... done (   0.4 sec)
Mapping shells                                     ... done
Starting the XC term evaluation                    ... done (   0.1 sec)
  promolecular density results
     # of electrons  =    190.999943354
     EX              =   -197.375165523
     EC              =     -6.682778639
     EX+EC           =   -204.057944162
Transforming the Hamiltonian                       ... done (   0.1 sec)
Diagonalizing the Hamiltonian                      ... done (   0.1 sec)
Back transforming the eigenvectors                 ... done (   0.0 sec)
Now organizing SCF variables                       ... done
                      ------------------
                      INITIAL GUESS DONE (   1.1 sec)
                      ------------------
             **** ENERGY FILE WAS UPDATED (rf_mecn_opt_r2s_C6_P_B.en.tmp) ****
Finished Guess after   2.0 sec
Maximum memory used throughout the entire GUESS-calculation: 45.9 MB


           ************************************************************
           *        Program running with 20 parallel MPI-processes    *
           *              working on a common directory               *
           ************************************************************

-------------------------------------------------------------------------------------------
                                      ORCA LEAN-SCF
                              memory conserving SCF solver
-------------------------------------------------------------------------------------------

--------------------
CPCM SOLVATION MODEL
--------------------
CPCM parameters:
  Epsilon                                         ...      35.6880
  Refrac                                          ...       1.3442
  Rsolv                                           ...       1.3000
  Surface type                                    ... GAUSSIAN VDW
  Discretization scheme                           ... Constant charge density
    Threshold for H atoms                         ...       5.0000 (charges/Ang^2)
    Threshold for non-H atoms                     ...       5.0000 (charges/Ang^2)
  Epsilon function type                           ...         CPCM
Solvent:                                          ... ACETONITRILE
SMD-CDS solvent descriptors:
  Soln                                            ...       1.3442
  Soln25                                          ...       1.3416
  Sola                                            ...       0.0700
  Solb                                            ...       0.3200
  Solg                                            ...      41.2500
  Solc                                            ...       0.0000
  Solh                                            ...       0.0000
Radii:
  Scheme                                          ... Element-dependent radii
  Radius for C  used is    3.4960 Bohr (=   1.8500 Ang.)
  Radius for O  used is    4.0969 Bohr (=   2.1680 Ang.)
  Radius for F  used is    3.2692 Bohr (=   1.7300 Ang.)
  Radius for H  used is    2.2677 Bohr (=   1.2000 Ang.)
Calculating surface                               ...        done! (  0.0s)
Cavity surface points                             ...         2173
Cavity Volume                                     ...    2134.2679
Cavity Surface-area                               ...    1120.4463
Calculating surface distance matrix               ...        done! (  0.1s)
Performing Cholesky decomposition & store         ...        done! (  0.1s)
Overall time for CPCM initialization              ...                 0.2s

----------------------------------------D-I-I-S--------------------------------------------
Iteration    Energy (Eh)           Delta-E    RMSDP     MaxDP     DIISErr   Damp  Time(sec)
-------------------------------------------------------------------------------------------
               ***  Starting incremental Fock matrix formation  ***
    1    -1853.0201004299374290     0.00e+00  2.07e-04  1.61e-02  1.44e-01  0.850   8.0
Warning: op=1 Small HOMO/LUMO gap (   0.043) - skipping pre-diagonalization
         Will do a full diagonalization
    2    -1853.1569010370744763    -1.37e-01  1.95e-04  1.50e-02  8.93e-02  0.850   5.7
                               ***Turning on AO-DIIS***
    3    -1853.2255797393795547    -6.87e-02  8.69e-05  4.54e-03  5.20e-02  0.850   4.6
    4    -1853.2663782548374911    -4.08e-02  5.68e-05  4.60e-03  3.85e-02  0.850   4.6
    5    -1853.2953925121905741    -2.90e-02  4.67e-05  4.79e-03  3.06e-02  0.850   4.4
    6    -1853.3185763297337871    -2.32e-02  4.15e-05  4.65e-03  2.73e-02  0.850   4.3
    7    -1853.3381304081053713    -1.96e-02  2.57e-04  2.94e-02  2.32e-02  0.000   4.3
    8    -1853.4423005519224716    -1.04e-01  5.56e-05  7.90e-03  1.34e-02  0.000   4.8
    9    -1853.4424550210756024    -1.54e-04  1.99e-05  2.64e-03  1.24e-02  0.000   4.2
   10    -1853.4434067602310279    -9.52e-04  8.91e-06  8.71e-04  3.34e-03  0.000   4.1
                              *** Initializing SOSCF ***
---------------------------------------S-O-S-C-F--------------------------------------
Iteration    Energy (Eh)           Delta-E    RMSDP     MaxDP     MaxGrad    Time(sec)
--------------------------------------------------------------------------------------
   11    -1853.4435002087680004    -9.34e-05  4.09e-06  5.28e-04  8.53e-04     4.5
               *** Restarting incremental Fock matrix formation ***
   12    -1853.4435195492328603    -1.93e-05  2.92e-06  2.48e-04  1.42e-04     7.6
   13    -1853.4435202962172298    -7.47e-07  1.85e-06  1.74e-04  2.24e-04     4.8
   14    -1853.4435215952385079    -1.30e-06  1.15e-06  1.27e-04  1.04e-04     4.6
   15    -1853.4435212708344807     3.24e-07  8.67e-07  7.86e-05  2.76e-04     4.2
   16    -1853.4435217786726753    -5.08e-07  4.79e-07  3.57e-05  3.42e-05     4.1
   17    -1853.4435217802015359    -1.53e-09  2.35e-07  1.71e-05  2.57e-05     4.0
                 **** Energy Check signals convergence ****

               *****************************************************
               *                     SUCCESS                       *
               *           SCF CONVERGED AFTER  17 CYCLES          *
               *****************************************************

Recomputing exchange energy using gridx3       ... done (    8.723 sec)
Old exchange energy                            :    -19.882584756 Eh
New exchange energy                            :    -19.882594269 Eh
Exchange energy change after final integration :     -0.000009513 Eh
Total energy after final integration           :  -1853.443531294 Eh

SMD CDS free energy correction energy :                 3.65543     Kcal/mol
Total Energy after SMD CDS correction =             -1853.437706003 Eh
             **** ENERGY FILE WAS UPDATED (rf_mecn_opt_r2s_C6_P_B.en.tmp) ****

----------------
TOTAL SCF ENERGY
----------------

Total Energy       :      -1853.43770600300536 Eh          -50434.60403 eV

Components:
Nuclear Repulsion  :       2615.29271348512566 Eh           71165.73273 eV
Electronic Energy  :      -4468.71833822310145 Eh         -121600.00801 eV
One Electron Energy:      -7782.45336117279840 Eh         -211771.32220 eV
Two Electron Energy:       3313.73502294969694 Eh           90171.31420 eV
CPCM Dielectric    :         -0.01789704222539 Eh              -0.48700 eV
SMD CDS (Gcds)     :          0.00582529051169 Eh               0.15851 eV

Virial components:
Potential Energy   :      -3699.15685601765108 Eh         -100659.17547 eV
Kinetic Energy     :       1845.71915001464595 Eh           50224.57144 eV
Virial Ratio       :          2.00418186915832

DFT components:
N(Alpha)           :       95.999982552824 electrons
N(Beta)            :       94.999980083437 electrons
N(Total)           :      190.999962636261 electrons
E(X)               :     -179.954262218817 Eh       
E(C)               :       -6.625476344419 Eh       
E(XC)              :     -186.579738563236 Eh       

CPCM Solvation Model Properties:
Surface-charge          :         -0.00853043053723
Corrected charge        :         -0.00000000000000
Outlying charge corr.   :          0.00000395627570 Eh               0.00011 eV
Free-energy (cav+disp)  :          0.00582529051169 Eh               0.15851 eV

---------------
SCF CONVERGENCE
---------------

  Last Energy change         ...    1.5289e-09  Tolerance :   1.0000e-08
  Last MAX-Density change    ...    1.7075e-05  Tolerance :   1.0000e-07
  Last RMS-Density change    ...    2.3459e-07  Tolerance :   5.0000e-09
  Last DIIS Error            ...    8.5276e-04  Tolerance :   5.0000e-07
  Last Orbital Gradient      ...    2.5697e-05  Tolerance :   1.0000e-05
  Last Orbital Rotation      ...    2.6448e-05  Tolerance :   1.0000e-05


----------------------
UHF SPIN CONTAMINATION
----------------------

Warning: in a DFT calculation there is little theoretical justification to 
         calculate <S**2> as in Hartree-Fock theory. We will do it anyways
         but you should keep in mind that the values have only limited relevance

Expectation value of <S**2>     :     0.755232
Ideal value S*(S+1) for S=0.5   :     0.750000
Deviation                       :     0.005232

----------------
ORBITAL ENERGIES
----------------
                 SPIN UP ORBITALS
  NO   OCC          E(Eh)            E(eV) 
   0   1.0000     -24.738293      -673.1632 
   1   1.0000     -24.732257      -672.9989 
   2   1.0000     -24.731164      -672.9692 
   3   1.0000     -24.731087      -672.9671 
   4   1.0000     -24.730774      -672.9586 
   5   1.0000     -24.730638      -672.9549 
   6   1.0000     -24.730636      -672.9548 
   7   1.0000     -24.730149      -672.9416 
   8   1.0000     -24.729404      -672.9213 
   9   1.0000     -24.728894      -672.9074 
  10   1.0000     -24.726881      -672.8526 
  11   1.0000     -24.725920      -672.8265 
  12   1.0000     -24.721304      -672.7009 
  13   1.0000     -24.721147      -672.6966 
  14   1.0000     -19.194433      -522.3071 
  15   1.0000     -19.160982      -521.3968 
  16   1.0000     -10.442575      -284.1569 
  17   1.0000     -10.392871      -282.8044 
  18   1.0000     -10.392723      -282.8004 
  19   1.0000     -10.390850      -282.7494 
  20   1.0000     -10.390330      -282.7352 
  21   1.0000     -10.389861      -282.7225 
  22   1.0000     -10.389599      -282.7154 
  23   1.0000     -10.330878      -281.1175 
  24   1.0000      -1.353393       -36.8277 
  25   1.0000      -1.330707       -36.2104 
  26   1.0000      -1.316445       -35.8223 
  27   1.0000      -1.309416       -35.6310 
  28   1.0000      -1.305642       -35.5283 
  29   1.0000      -1.290240       -35.1092 
  30   1.0000      -1.287386       -35.0316 
  31   1.0000      -1.266073       -34.4516 
  32   1.0000      -1.263915       -34.3929 
  33   1.0000      -1.262652       -34.3585 
  34   1.0000      -1.255263       -34.1574 
  35   1.0000      -1.253253       -34.1027 
  36   1.0000      -1.251049       -34.0428 
  37   1.0000      -1.237257       -33.6675 
  38   1.0000      -1.094893       -29.7935 
  39   1.0000      -1.006322       -27.3834 
  40   1.0000      -0.848278       -23.0828 
  41   1.0000      -0.831934       -22.6381 
  42   1.0000      -0.802183       -21.8285 
  43   1.0000      -0.770083       -20.9550 
  44   1.0000      -0.734740       -19.9933 
  45   1.0000      -0.701868       -19.0988 
  46   1.0000      -0.676412       -18.4061 
  47   1.0000      -0.666398       -18.1336 
  48   1.0000      -0.632292       -17.2055 
  49   1.0000      -0.627823       -17.0839 
  50   1.0000      -0.622619       -16.9423 
  51   1.0000      -0.620155       -16.8753 
  52   1.0000      -0.617253       -16.7963 
  53   1.0000      -0.614891       -16.7320 
  54   1.0000      -0.599127       -16.3031 
  55   1.0000      -0.592690       -16.1279 
  56   1.0000      -0.588781       -16.0215 
  57   1.0000      -0.585519       -15.9328 
  58   1.0000      -0.576491       -15.6871 
  59   1.0000      -0.572029       -15.5657 
  60   1.0000      -0.567514       -15.4428 
  61   1.0000      -0.560725       -15.2581 
  62   1.0000      -0.516140       -14.0449 
  63   1.0000      -0.499740       -13.5986 
  64   1.0000      -0.496522       -13.5111 
  65   1.0000      -0.492390       -13.3986 
  66   1.0000      -0.488225       -13.2853 
  67   1.0000      -0.487592       -13.2680 
  68   1.0000      -0.484974       -13.1968 
  69   1.0000      -0.481557       -13.1038 
  70   1.0000      -0.475719       -12.9450 
  71   1.0000      -0.470933       -12.8147 
  72   1.0000      -0.468159       -12.7392 
  73   1.0000      -0.463076       -12.6009 
  74   1.0000      -0.460067       -12.5191 
  75   1.0000      -0.454860       -12.3774 
  76   1.0000      -0.452860       -12.3230 
  77   1.0000      -0.449534       -12.2324 
  78   1.0000      -0.446549       -12.1512 
  79   1.0000      -0.443963       -12.0808 
  80   1.0000      -0.439824       -11.9682 
  81   1.0000      -0.435168       -11.8415 
  82   1.0000      -0.434230       -11.8160 
  83   1.0000      -0.431988       -11.7550 
  84   1.0000      -0.428857       -11.6698 
  85   1.0000      -0.427754       -11.6398 
  86   1.0000      -0.424565       -11.5530 
  87   1.0000      -0.423217       -11.5163 
  88   1.0000      -0.418437       -11.3863 
  89   1.0000      -0.405250       -11.0274 
  90   1.0000      -0.377195       -10.2640 
  91   1.0000      -0.354809        -9.6548 
  92   1.0000      -0.337492        -9.1836 
  93   1.0000      -0.335918        -9.1408 
  94   1.0000      -0.306682        -8.3453 
  95   1.0000      -0.303031        -8.2459 
  96   0.0000      -0.111537        -3.0351 
  97   0.0000      -0.027570        -0.7502 
  98   0.0000      -0.014425        -0.3925 
  99   0.0000       0.010117         0.2753 
 100   0.0000       0.016697         0.4544 
 101   0.0000       0.042107         1.1458 
 102   0.0000       0.066482         1.8091 
 103   0.0000       0.075278         2.0484 
 104   0.0000       0.100156         2.7254 
 105   0.0000       0.108471         2.9517 
 106   0.0000       0.113419         3.0863 

                 SPIN DOWN ORBITALS
  NO   OCC          E(Eh)            E(eV) 
   0   1.0000     -24.733523      -673.0334 
   1   1.0000     -24.732183      -672.9969 
   2   1.0000     -24.731159      -672.9690 
   3   1.0000     -24.730670      -672.9558 
   4   1.0000     -24.730602      -672.9539 
   5   1.0000     -24.730121      -672.9408 
   6   1.0000     -24.729786      -672.9317 
   7   1.0000     -24.729403      -672.9213 
   8   1.0000     -24.729135      -672.9140 
   9   1.0000     -24.728884      -672.9071 
  10   1.0000     -24.726878      -672.8526 
  11   1.0000     -24.725897      -672.8259 
  12   1.0000     -24.721304      -672.7009 
  13   1.0000     -24.721147      -672.6966 
  14   1.0000     -19.194433      -522.3071 
  15   1.0000     -19.160982      -521.3968 
  16   1.0000     -10.442630      -284.1584 
  17   1.0000     -10.392874      -282.8045 
  18   1.0000     -10.392691      -282.7995 
  19   1.0000     -10.390851      -282.7494 
  20   1.0000     -10.390347      -282.7357 
  21   1.0000     -10.389843      -282.7220 
  22   1.0000     -10.389561      -282.7143 
  23   1.0000     -10.313155      -280.6352 
  24   1.0000      -1.353248       -36.8238 
  25   1.0000      -1.330086       -36.1935 
  26   1.0000      -1.315008       -35.7832 
  27   1.0000      -1.308529       -35.6069 
  28   1.0000      -1.305187       -35.5159 
  29   1.0000      -1.290229       -35.1089 
  30   1.0000      -1.279609       -34.8199 
  31   1.0000      -1.265685       -34.4410 
  32   1.0000      -1.263381       -34.3784 
  33   1.0000      -1.262339       -34.3500 
  34   1.0000      -1.254294       -34.1311 
  35   1.0000      -1.252172       -34.0733 
  36   1.0000      -1.250729       -34.0341 
  37   1.0000      -1.237256       -33.6675 
  38   1.0000      -1.094893       -29.7935 
  39   1.0000      -1.006321       -27.3834 
  40   1.0000      -0.842595       -22.9282 
  41   1.0000      -0.823674       -22.4133 
  42   1.0000      -0.801578       -21.8121 
  43   1.0000      -0.764530       -20.8039 
  44   1.0000      -0.730944       -19.8900 
  45   1.0000      -0.700843       -19.0709 
  46   1.0000      -0.673832       -18.3359 
  47   1.0000      -0.663188       -18.0463 
  48   1.0000      -0.629209       -17.1216 
  49   1.0000      -0.626996       -17.0614 
  50   1.0000      -0.621745       -16.9186 
  51   1.0000      -0.619102       -16.8466 
  52   1.0000      -0.616980       -16.7889 
  53   1.0000      -0.613698       -16.6996 
  54   1.0000      -0.597613       -16.2619 
  55   1.0000      -0.591011       -16.0822 
  56   1.0000      -0.587653       -15.9908 
  57   1.0000      -0.582951       -15.8629 
  58   1.0000      -0.575422       -15.6580 
  59   1.0000      -0.567264       -15.4360 
  60   1.0000      -0.565329       -15.3834 
  61   1.0000      -0.560282       -15.2460 
  62   1.0000      -0.499172       -13.5832 
  63   1.0000      -0.497536       -13.5386 
  64   1.0000      -0.493995       -13.4423 
  65   1.0000      -0.491033       -13.3617 
  66   1.0000      -0.487900       -13.2764 
  67   1.0000      -0.485023       -13.1982 
  68   1.0000      -0.481513       -13.1026 
  69   1.0000      -0.479883       -13.0583 
  70   1.0000      -0.475325       -12.9343 
  71   1.0000      -0.467343       -12.7170 
  72   1.0000      -0.466213       -12.6863 
  73   1.0000      -0.462366       -12.5816 
  74   1.0000      -0.457838       -12.4584 
  75   1.0000      -0.454593       -12.3701 
  76   1.0000      -0.449388       -12.2285 
  77   1.0000      -0.448419       -12.2021 
  78   1.0000      -0.443615       -12.0714 
  79   1.0000      -0.442252       -12.0343 
  80   1.0000      -0.438843       -11.9415 
  81   1.0000      -0.434554       -11.8248 
  82   1.0000      -0.433670       -11.8008 
  83   1.0000      -0.431585       -11.7440 
  84   1.0000      -0.428689       -11.6652 
  85   1.0000      -0.427439       -11.6312 
  86   1.0000      -0.424081       -11.5398 
  87   1.0000      -0.422758       -11.5038 
  88   1.0000      -0.417056       -11.3487 
  89   1.0000      -0.403489       -10.9795 
  90   1.0000      -0.375011       -10.2046 
  91   1.0000      -0.353286        -9.6134 
  92   1.0000      -0.335948        -9.1416 
  93   1.0000      -0.334801        -9.1104 
  94   1.0000      -0.306612        -8.3433 
  95   0.0000      -0.140191        -3.8148 
  96   0.0000      -0.111429        -3.0321 
  97   0.0000      -0.025505        -0.6940 
  98   0.0000      -0.011655        -0.3171 
  99   0.0000       0.013551         0.3687 
 100   0.0000       0.020514         0.5582 
 101   0.0000       0.050333         1.3696 
 102   0.0000       0.070593         1.9209 
 103   0.0000       0.078101         2.1252 
 104   0.0000       0.104090         2.8324 
 105   0.0000       0.110492         3.0066 
*Only the first 10 virtual orbitals were printed.

                    ********************************
                    * MULLIKEN POPULATION ANALYSIS *
                    ********************************

--------------------------------------------
MULLIKEN ATOMIC CHARGES AND SPIN POPULATIONS
--------------------------------------------
   0 C :    0.382124   -0.000041
   1 O :   -0.456048    0.000010
   2 O :   -0.394614    0.000023
   3 C :    0.371053   -0.000082
   4 C :    0.326440    0.000164
   5 C :    0.337286   -0.001366
   6 C :    0.387954   -0.002608
   7 C :    0.074555    0.861799
   8 C :    0.369317    0.007741
   9 C :    0.467703   -0.005277
  10 F :   -0.176996    0.000017
  11 F :   -0.177031    0.000001
  12 F :   -0.167264   -0.000029
  13 F :   -0.171671    0.000010
  14 F :   -0.169634    0.000555
  15 F :   -0.171930    0.000318
  16 F :   -0.171747    0.000346
  17 F :   -0.163734    0.025488
  18 F :   -0.155442    0.082431
  19 F :   -0.163506    0.030505
  20 F :   -0.169438   -0.000271
  21 F :   -0.159716    0.000657
  22 F :   -0.155982   -0.000610
  23 F :   -0.157559    0.000223
  24 H :    0.465879   -0.000002
Sum of atomic charges         :    0.0000000
Sum of atomic spin populations:    1.0000000

-----------------------------------------------------
MULLIKEN REDUCED ORBITAL CHARGES AND SPIN POPULATIONS
-----------------------------------------------------
CHARGE
  0 C s       :     3.169488  s :     3.169488
      pz      :     0.775326  p :     2.219343
      px      :     0.790941
      py      :     0.653077
      dz2     :     0.015558  d :     0.210998
      dxz     :     0.014467
      dyz     :     0.060021
      dx2y2   :     0.053167
      dxy     :     0.067784
      f0      :     0.001820  f :     0.018047
      f+1     :     0.001149
      f-1     :     0.002318
      f+2     :     0.002603
      f-2     :     0.001966
      f+3     :     0.003815
      f-3     :     0.004377

  1 O s       :     3.684703  s :     3.684703
      pz      :     1.718916  p :     4.753630
      px      :     1.684467
      py      :     1.350246
      dz2     :     0.001739  d :     0.014828
      dxz     :     0.001258
      dyz     :     0.003215
      dx2y2   :     0.003297
      dxy     :     0.005320
      f0      :     0.000283  f :     0.002887
      f+1     :     0.000134
      f-1     :     0.000389
      f+2     :     0.000246
      f-2     :     0.000445
      f+3     :     0.000930
      f-3     :     0.000461

  2 O s       :     3.899179  s :     3.899179
      pz      :     1.540012  p :     4.468961
      px      :     1.691282
      py      :     1.237667
      dz2     :     0.003281  d :     0.025171
      dxz     :     0.000340
      dyz     :     0.006622
      dx2y2   :     0.009249
      dxy     :     0.005679
      f0      :     0.000119  f :     0.001303
      f+1     :     0.000015
      f-1     :     0.000231
      f+2     :     0.000222
      f-2     :     0.000031
      f+3     :     0.000292
      f-3     :     0.000393

  3 C s       :     3.106878  s :     3.106878
      pz      :     0.678561  p :     2.235756
      px      :     0.915120
      py      :     0.642075
      dz2     :     0.045719  d :     0.261585
      dxz     :     0.052532
      dyz     :     0.065941
      dx2y2   :     0.044310
      dxy     :     0.053083
      f0      :     0.005248  f :     0.024728
      f+1     :     0.003532
      f-1     :     0.003768
      f+2     :     0.003562
      f-2     :     0.001994
      f+3     :     0.003661
      f-3     :     0.002962

  4 C s       :     3.123680  s :     3.123680
      pz      :     0.607697  p :     2.242061
      px      :     0.935675
      py      :     0.698689
      dz2     :     0.061409  d :     0.280990
      dxz     :     0.058889
      dyz     :     0.069035
      dx2y2   :     0.033236
      dxy     :     0.058420
      f0      :     0.003472  f :     0.026829
      f+1     :     0.004823
      f-1     :     0.007873
      f+2     :     0.002113
      f-2     :     0.002604
      f+3     :     0.003490
      f-3     :     0.002454

  5 C s       :     3.142779  s :     3.142779
      pz      :     0.583434  p :     2.206378
      px      :     0.913684
      py      :     0.709260
      dz2     :     0.075228  d :     0.286531
      dxz     :     0.061094
      dyz     :     0.059230
      dx2y2   :     0.032394
      dxy     :     0.058585
      f0      :     0.004747  f :     0.027026
      f+1     :     0.004281
      f-1     :     0.005986
      f+2     :     0.003060
      f-2     :     0.004284
      f+3     :     0.002536
      f-3     :     0.002131

  6 C s       :     3.111817  s :     3.111817
      pz      :     0.574471  p :     2.181518
      px      :     0.909395
      py      :     0.697653
      dz2     :     0.079615  d :     0.291576
      dxz     :     0.062779
      dyz     :     0.053051
      dx2y2   :     0.035708
      dxy     :     0.060422
      f0      :     0.005919  f :     0.027135
      f+1     :     0.003778
      f-1     :     0.004226
      f+2     :     0.003982
      f-2     :     0.005171
      f+3     :     0.002154
      f-3     :     0.001905

  7 C s       :     3.337576  s :     3.337576
      pz      :     0.664139  p :     2.427674
      px      :     0.917974
      py      :     0.845561
      dz2     :     0.034981  d :     0.145034
      dxz     :     0.037904
      dyz     :     0.031667
      dx2y2   :     0.015898
      dxy     :     0.024583
      f0      :     0.003406  f :     0.015161
      f+1     :     0.003995
      f-1     :     0.002567
      f+2     :     0.001290
      f-2     :     0.001543
      f+3     :     0.001240
      f-3     :     0.001120

  8 C s       :     3.092100  s :     3.092100
      pz      :     0.615083  p :     2.227794
      px      :     0.932901
      py      :     0.679810
      dz2     :     0.058386  d :     0.283652
      dxz     :     0.060573
      dyz     :     0.069245
      dx2y2   :     0.035286
      dxy     :     0.060162
      f0      :     0.003491  f :     0.027138
      f+1     :     0.004892
      f-1     :     0.008053
      f+2     :     0.002243
      f-2     :     0.002309
      f+3     :     0.003754
      f-3     :     0.002397

  9 C s       :     3.033439  s :     3.033439
      pz      :     0.647024  p :     2.110133
      px      :     0.804076
      py      :     0.659034
      dz2     :     0.066405  d :     0.349469
      dxz     :     0.068308
      dyz     :     0.084922
      dx2y2   :     0.062974
      dxy     :     0.066860
      f0      :     0.004512  f :     0.039255
      f+1     :     0.007824
      f-1     :     0.008763
      f+2     :     0.004330
      f-2     :     0.003034
      f+3     :     0.007308
      f-3     :     0.003485

 10 F s       :     3.930712  s :     3.930712
      pz      :     1.893720  p :     5.230349
      px      :     1.882396
      py      :     1.454232
      dz2     :     0.002153  d :     0.015317
      dxz     :     0.000305
      dyz     :     0.002940
      dx2y2   :     0.005816
      dxy     :     0.004103
      f0      :     0.000049  f :     0.000618
      f+1     :     0.000015
      f-1     :     0.000122
      f+2     :     0.000071
      f-2     :     0.000018
      f+3     :     0.000166
      f-3     :     0.000176

 11 F s       :     3.931347  s :     3.931347
      pz      :     1.467608  p :     5.230276
      px      :     1.896664
      py      :     1.866004
      dz2     :     0.006668  d :     0.014803
      dxz     :     0.003505
      dyz     :     0.003718
      dx2y2   :     0.000456
      dxy     :     0.000456
      f0      :     0.000215  f :     0.000605
      f+1     :     0.000135
      f-1     :     0.000174
      f+2     :     0.000038
      f-2     :     0.000038
      f+3     :     0.000003
      f-3     :     0.000003

 12 F s       :     3.929423  s :     3.929423
      pz      :     1.808065  p :     5.220589
      px      :     1.898939
      py      :     1.513585
      dz2     :     0.002110  d :     0.016565
      dxz     :     0.000818
      dyz     :     0.005344
      dx2y2   :     0.004916
      dxy     :     0.003378
      f0      :     0.000076  f :     0.000686
      f+1     :     0.000004
      f-1     :     0.000122
      f+2     :     0.000180
      f-2     :     0.000064
      f+3     :     0.000109
      f-3     :     0.000131

 13 F s       :     3.931366  s :     3.931366
      pz      :     1.442620  p :     5.223223
      px      :     1.901990
      py      :     1.878613
      dz2     :     0.008446  d :     0.016405
      dxz     :     0.003813
      dyz     :     0.003584
      dx2y2   :     0.000275
      dxy     :     0.000287
      f0      :     0.000330  f :     0.000676
      f+1     :     0.000155
      f-1     :     0.000161
      f+2     :     0.000011
      f-2     :     0.000018
      f+3     :     0.000001
      f-3     :     0.000001

 14 F s       :     3.929920  s :     3.929920
      pz      :     1.704300  p :     5.222341
      px      :     1.899567
      py      :     1.618474
      dz2     :     0.002726  d :     0.016683
      dxz     :     0.001655
      dyz     :     0.006559
      dx2y2   :     0.003151
      dxy     :     0.002593
      f0      :     0.000077  f :     0.000691
      f+1     :     0.000014
      f-1     :     0.000184
      f+2     :     0.000189
      f-2     :     0.000106
      f+3     :     0.000060
      f-3     :     0.000061

 15 F s       :     3.930050  s :     3.930050
      pz      :     1.497933  p :     5.224573
      px      :     1.903321
      py      :     1.823318
      dz2     :     0.006813  d :     0.016619
      dxz     :     0.003384
      dyz     :     0.004986
      dx2y2   :     0.000634
      dxy     :     0.000803
      f0      :     0.000227  f :     0.000688
      f+1     :     0.000109
      f-1     :     0.000233
      f+2     :     0.000050
      f-2     :     0.000060
      f+3     :     0.000005
      f-3     :     0.000004

 16 F s       :     3.929727  s :     3.929727
      pz      :     1.589517  p :     5.224675
      px      :     1.898436
      py      :     1.736723
      dz2     :     0.004556  d :     0.016655
      dxz     :     0.002667
      dyz     :     0.006296
      dx2y2   :     0.001547
      dxy     :     0.001588
      f0      :     0.000118  f :     0.000689
      f+1     :     0.000056
      f-1     :     0.000253
      f+2     :     0.000122
      f-2     :     0.000102
      f+3     :     0.000021
      f-3     :     0.000018

 17 F s       :     3.929495  s :     3.929495
      pz      :     1.602596  p :     5.216923
      px      :     1.896237
      py      :     1.718090
      dz2     :     0.004307  d :     0.016626
      dxz     :     0.002542
      dyz     :     0.006409
      dx2y2   :     0.001685
      dxy     :     0.001683
      f0      :     0.000111  f :     0.000689
      f+1     :     0.000050
      f-1     :     0.000247
      f+2     :     0.000132
      f-2     :     0.000104
      f+3     :     0.000024
      f-3     :     0.000021

 18 F s       :     3.933807  s :     3.933807
[...]
      dz2     :    -0.000047  d :    -0.000279
      dxz     :    -0.000062
      dyz     :     0.000008
      dx2y2   :    -0.000021
      dxy     :    -0.000157
      f0      :    -0.000001  f :    -0.000014
      f+1     :     0.000001
      f-1     :    -0.000001
      f+2     :    -0.000001
      f-2     :    -0.000007
      f+3     :    -0.000004
      f-3     :    -0.000000

 17 F s       :     0.001221  s :     0.001221
      pz      :     0.008027  p :     0.014547
      px      :     0.005926
      py      :     0.000594
      dz2     :    -0.000072  d :    -0.000171
      dxz     :    -0.000087
      dyz     :     0.000014
      dx2y2   :     0.000022
      dxy     :    -0.000048
      f0      :    -0.000005  f :    -0.000008
      f+1     :    -0.000000
      f-1     :     0.000001
      f+2     :    -0.000001
      f-2     :    -0.000003
      f+3     :     0.000001
      f-3     :    -0.000000

 18 F s       :     0.003175  s :     0.003175
      pz      :     0.013147  p :     0.095819
      px      :     0.008810
      py      :     0.073862
      dz2     :     0.004189  d :     0.010733
      dxz     :     0.001086
      dyz     :     0.003202
      dx2y2   :     0.002165
      dxy     :     0.000092
      f0      :     0.000266  f :     0.000579
      f+1     :     0.000085
      f-1     :     0.000009
      f+2     :     0.000184
      f-2     :     0.000003
      f+3     :     0.000010
      f-3     :     0.000023

 19 F s       :     0.002281  s :     0.002281
      pz      :     0.008867  p :     0.032663
      px      :     0.011540
      py      :     0.012256
      dz2     :     0.000029  d :     0.000088
      dxz     :     0.000095
      dyz     :     0.000024
      dx2y2   :    -0.000057
      dxy     :    -0.000003
      f0      :     0.000002  f :     0.000003
      f+1     :    -0.000000
      f-1     :     0.000003
      f+2     :     0.000000
      f-2     :     0.000000
      f+3     :     0.000005
      f-3     :    -0.000006

 20 F s       :     0.000691  s :     0.000691
      pz      :     0.008579  p :     0.014576
      px      :     0.001262
      py      :     0.004736
      dz2     :    -0.000094  d :    -0.000106
      dxz     :    -0.000070
      dyz     :     0.000069
      dx2y2   :    -0.000013
      dxy     :     0.000002
      f0      :    -0.000005  f :    -0.000010
      f+1     :    -0.000004
      f-1     :     0.000001
      f+2     :    -0.000002
      f-2     :    -0.000001
      f+3     :    -0.000000
      f-3     :     0.000000

 21 F s       :     0.000110  s :     0.000110
      pz      :    -0.000064  p :     0.000984
      px      :     0.000985
      py      :     0.000063
      dz2     :     0.000011  d :     0.000037
      dxz     :    -0.000002
      dyz     :     0.000001
      dx2y2   :     0.000027
      dxy     :    -0.000000
      f0      :     0.000000  f :     0.000001
      f+1     :     0.000000
      f-1     :     0.000000
      f+2     :    -0.000000
      f-2     :    -0.000000
      f+3     :    -0.000000
      f-3     :     0.000001

 22 F s       :     0.000012  s :     0.000012
      pz      :    -0.000044  p :     0.000319
      px      :     0.000007
      py      :     0.000356
      dz2     :     0.000002  d :     0.000015
      dxz     :     0.000002
      dyz     :     0.000010
      dx2y2   :    -0.000000
      dxy     :     0.000001
      f0      :     0.000000  f :     0.000001
      f+1     :     0.000000
      f-1     :     0.000000
      f+2     :     0.000000
      f-2     :     0.000000
      f+3     :    -0.000000
      f-3     :    -0.000000

 23 F s       :     0.000064  s :     0.000064
      pz      :     0.000094  p :     0.001388
      px      :     0.000625
      py      :     0.000669
      dz2     :     0.000003  d :     0.000053
      dxz     :     0.000023
      dyz     :     0.000015
      dx2y2   :     0.000010
      dxy     :     0.000003
      f0      :     0.000000  f :     0.000003
      f+1     :     0.000000
      f-1     :     0.000001
      f+2     :     0.000001
      f-2     :     0.000000
      f+3     :     0.000000
      f-3     :     0.000000

 24 H s       :     0.000033  s :     0.000033
      pz      :     0.000004  p :     0.000002
      px      :    -0.000001
      py      :    -0.000001



                      *****************************
                      * MAYER POPULATION ANALYSIS *
                      *****************************

  NA   - Mulliken gross atomic population
  ZA   - Total nuclear charge
  QA   - Mulliken gross atomic charge
  VA   - Mayer's total valence
  BVA  - Mayer's bonded valence
  FA   - Mayer's free valence

  ATOM       NA         ZA         QA         VA         BVA        FA
  0 C      5.7174     6.0000     0.2826     4.3365     4.3365     0.0000
  1 O      8.3655     8.0000    -0.3655     2.1741     2.1741     0.0000
  2 O      8.3266     8.0000    -0.3266     2.1845     2.1845     0.0000
  3 C      5.5886     6.0000     0.4114     4.1185     4.1185     0.0000
  4 C      5.7122     6.0000     0.2878     4.1785     4.1785     0.0000
  5 C      5.6936     6.0000     0.3064     4.1764     4.1755     0.0009
  6 C      5.6091     6.0000     0.3909     4.2241     4.2211     0.0030
  7 C      5.8923     6.0000     0.1077     3.9029     3.3048     0.5981
  8 C      5.6386     6.0000     0.3614     4.2169     4.2140     0.0029
  9 C      5.5266     6.0000     0.4734     4.4590     4.4589     0.0000
 10 F      9.1745     9.0000    -0.1745     1.1387     1.1387     0.0000
 11 F      9.1706     9.0000    -0.1706     1.1459     1.1459     0.0000
 12 F      9.1670     9.0000    -0.1670     1.1571     1.1571     0.0000
 13 F      9.1698     9.0000    -0.1698     1.1506     1.1506     0.0000
 14 F      9.1699     9.0000    -0.1699     1.1516     1.1516     0.0000
 15 F      9.1699     9.0000    -0.1699     1.1563     1.1563     0.0000
 16 F      9.1678     9.0000    -0.1678     1.1455     1.1454     0.0001
 17 F      9.1696     9.0000    -0.1696     1.1439     1.1436     0.0003
 18 F      9.1422     9.0000    -0.1422     1.1969     1.1858     0.0111
 19 F      9.1743     9.0000    -0.1743     1.1300     1.1288     0.0013
 20 F      9.1708     9.0000    -0.1708     1.1349     1.1346     0.0003
 21 F      9.1595     9.0000    -0.1595     1.1595     1.1595     0.0000
 22 F      9.1549     9.0000    -0.1549     1.1646     1.1646     0.0000
 23 F      9.1575     9.0000    -0.1575     1.1604     1.1604     0.0000
 24 H      0.6111     1.0000     0.3889     0.8746     0.8746     0.0000

  Mayer bond orders larger than 0.100000
B(  0-C ,  1-O ) :   1.2949 B(  0-C ,  2-O ) :   2.0424 B(  0-C ,  3-C ) :   0.8834 
B(  1-O , 24-H ) :   0.8173 B(  3-C ,  4-C ) :   0.9453 B(  3-C , 10-F ) :   1.0804 
B(  3-C , 11-F ) :   1.0996 B(  4-C ,  5-C ) :   0.9240 B(  4-C , 12-F ) :   1.0829 
B(  4-C , 13-F ) :   1.0755 B(  5-C ,  6-C ) :   0.9298 B(  5-C , 14-F ) :   1.0759 
B(  5-C , 15-F ) :   1.0798 B(  6-C ,  7-C ) :   1.0037 B(  6-C , 16-F ) :   1.0855 
B(  6-C , 17-F ) :   1.0690 B(  7-C ,  8-C ) :   1.0389 B(  7-C , 18-F ) :   1.1258 
B(  8-C ,  9-C ) :   0.9427 B(  8-C , 19-F ) :   1.0753 B(  8-C , 20-F ) :   1.0674 
B(  9-C , 21-F ) :   1.1337 B(  9-C , 22-F ) :   1.1360 B(  9-C , 23-F ) :   1.1339 


-------
TIMINGS
-------

Total SCF time: 0 days 0 hours 0 min 37 sec 

Total time                  ....      37.514 sec
Sum of individual times     ....      36.498 sec  ( 97.3%)

SCF preparation             ....       1.320 sec  (  3.5%)
Fock matrix formation       ....      31.159 sec  ( 83.1%)
  Startup                   ....       0.197 sec  (  0.6% of F)
  Split-RI-J                ....       1.554 sec  (  5.0% of F)
  Chain of spheres X        ....      22.066 sec  ( 70.8% of F)
  XC integration            ....       5.608 sec  ( 18.0% of F)
    XC Preparation          ....       0.000 sec  (  0.0% of XC)
    Basis function eval.    ....       0.330 sec  (  5.9% of XC)
    Density eval.           ....       1.734 sec  ( 30.9% of XC)
    XC-Functional eval.     ....       0.100 sec  (  1.8% of XC)
    XC-Potential eval.      ....       2.043 sec  ( 36.4% of XC)
  CPCM terms                ....       1.490 sec  (  4.8% of F)
Diagonalization             ....       0.000 sec  (  0.0%)
Density matrix formation    ....       0.267 sec  (  0.7%)
Total Energy calculation    ....       0.236 sec  (  0.6%)
Population analysis         ....       0.663 sec  (  1.8%)
Orbital Transformation      ....       0.548 sec  (  1.5%)
Orbital Orthonormalization  ....       0.000 sec  (  0.0%)
DIIS solution               ....       0.649 sec  (  1.7%)
SOSCF solution              ....       1.657 sec  (  4.4%)
Finished LeanSCF after  38.1 sec

Maximum memory used throughout the entire LEANSCF-calculation: 110.7 MB


-------------------------------------------------------------------------------
                          DFT DISPERSION CORRECTION                            
                                                                               
                              DFTD3 V3.1  Rev 1                                
                          USING Becke-Johnson damping                          
-------------------------------------------------------------------------------
The R2SCANh functional is recognized
Active option DFTDOPT                   ...         4   

molecular C6(AA) [au] = 6512.085902 


            DFT-D V3
 parameters
 s6 scaling factor         :     1.0000 
 a1 scaling factor         :     0.4709 
 s8 scaling factor         :     1.1236 
 a2 scaling factor         :     5.9157 
 ad hoc parameters k1-k3   :    16.0000     1.3333    -4.0000 

 Edisp/kcal,au: -5.201869213801  -0.008289705373 
 E6   /kcal   :  -3.796852604 
 E8   /kcal   :  -1.405016609 
 % E8         :  27.009841109 

-------------------------   ----------------
Dispersion correction           -0.008289705
-------------------------   ----------------


-------------------------   --------------------
FINAL SINGLE POINT ENERGY     -1853.569248925586
-------------------------   --------------------

                                *** OPTIMIZATION RUN DONE ***



           ************************************************************
           *        Program running with 20 parallel MPI-processes    *
           *              working on a common directory               *
           ************************************************************

------------------------------------------------------------------------------
                              ORCA PROPERTY CALCULATIONS
------------------------------------------------------------------------------

GBWName                                 ... rf_mecn_opt_r2s_C6_P_B.gbw
Number of atoms                         ...     25
Number of basis functions               ...    750
Max core memory                         ...   8000 MB

Electric properties:
Dipole moment                           ... YES
Quadrupole moment                       ...  NO
Static polarizability (Dipole/Dipole)   ...  NO
Static polarizability (Dipole/Quad.)    ...  NO
Static polarizability (Quad./Quad.)     ...  NO
Static polarizability (Velocity)        ...  NO

Atomic electric properties:
Dipole moment                           ...  NO
Quadrupole moment                       ...  NO
Static polarizability                   ...  NO

Choice of electric origin               ... Center of mass
Position of electric origin             ...     0.071830     0.007559    -0.077846

General magnetic properties:
Magnetizability                         ...  NO

EPR properties:
g-Tensor (aka g-matrix)                 ...  NO
Zero-Field splitting spin-orbit         ...  NO
Zero-field splitting spin-spin          ...  NO
Hyperfine couplings                     ...  NO (   0 nuclei)
Quadrupole couplings                    ...  NO (   0 nuclei)
Contact density                         ...  NO (   0 nuclei)

NMR properties:
Chemical shifts                         ...  NO (   0 nuclei)
Spin-rotation constants                 ...  NO (   0 nuclei)
Spin-spin couplings                     ...  NO (   0 nuclei,    0 pairs)

Choice of magnetic origin               ... GIAO
Position of magnetic origin             ...     0.000000     0.000000     0.000000

Properties with geometric perturbations:
SCF Hessian                             ...  NO
IR spectrum                             ...  NO
VCD spectrum                            ...  NO
X-ray spectroscopy properties:
SCF XES/XAS/RIXS spectra                ...  NO


-------------
DIPOLE MOMENT
-------------

Method             : SCF
Type of density    : Electron Density
Multiplicity       :   2
Irrep              :   0
Energy             : -1853.5609592202126805 Eh
Relativity type    : 
Basis              : AO
                                X                 Y                 Z
Electronic contribution:    -14.111429400       0.632182382       0.480491975
Nuclear contribution   :     14.815439641      -1.328356388      -1.375287196
                        -----------------------------------------
Total Dipole Moment    :      0.704010241      -0.696174006      -0.894795221
                        -----------------------------------------
Magnitude (a.u.)       :      1.334521320
Magnitude (Debye)      :      3.392083623



--------------------
Rotational spectrum 
--------------------
 
Rotational constants in cm-1:             0.020404             0.004108             0.004067 
Rotational constants in MHz :           611.686423           123.161239           121.914328 

Dipole components along the rotational axes: 
x,y,z [a.u.] :     0.727446    -0.179302    -1.104364 
x,y,z [Debye]:     1.849020    -0.455750    -2.807071 

 

Dipole moment calculation done in   0.2 sec 

Maximum memory used throughout the entire PROP-calculation: 58.6 MB

--------------------------------
SUGGESTED CITATIONS FOR THIS RUN
--------------------------------

Below you find a list of papers that are relevant to this ORCA run
We neither can nor want to force you to cite these papers, but we appreciate if you do
You receive ORCA, which is the product of decades of hard work by many enthusiastic individuals, for free
The only thing we kindly ask in return is that you cite our papers,
We deeply appreciate it, if you show your appreciation for ORCA by not just citing the generic ORCA reference.

Please note that relegating all ORCA citations to the supporting information does *not* help us.
SI sections are not indexed - citations you put there will not count into any citation statistics
But we need these citations in order to attract the funding resources that allow us to do what we are doing

Therefore, if you are a happy ORCA user, please consider citing a few of the papers listed below in the main body of your paper

In addition to the list printed below, the program has created the file rf_mecn_opt_r2s_C6_P_B.bibtex that contains the list in bibtex format
You can import this file easily into all common literature databanks and citation aid programs


List of essential papers. We consider these as the minimum necessary citations

  1. Neese,F.
     Software update: the ORCA program system, version 5.0
     WIRES Comput. Molec. Sci., 2022 12(1)e1606
     doi.org/10.1002/wcms.1606

List of papers to cite with high priority. The work reported in these papers was absolutely
necessary for this run to complete.
Our perspective: the developers of density functionals and basis sets usually get cited in chemistry papers
Good! But without the algorithms to do something with them, the functionals or basis sets would not do anything.
Hence, in our opinion, the algorithm design and method developments papers are equally worthy of getting cited

  1. Neese,F.
     An improvement of the resolution of the identity approximation for the formation of the Coulomb matrix
     J. Comp. Chem., 2003 24(14)1740-1747
     doi.org/10.1002/jcc.10318
  2. Neese,F.; Wennmohs,F.; Hansen,A.; Becker,U.
     Efficient, approximate and parallel Hartree-Fock and hybrid DFT calculations. A 'chain-of-spheres' algorithm for the Hartree-Fock exchange
     Chem. Phys., 2009 356(1-3)98-109
     doi.org/10.1016/j.chemphys.2008.10.036
  3. Garcia-Rates,M.; Neese,F.
     Effect of the Solute Cavity on the Solvation Energy and its Derivatives within the Framework of the Gaussian Charge Scheme
     J. Comput. Chem., 2020 41 922-939
     doi.org/10.1002/jcc.26139
  4. Helmich-Paris,B.; de Souza,B.; Neese,F.; Izsák,R.
     An improved chain of spheres for exchange algorithm
     J. Chem. Phys., 2021 155 104109
     doi.org/doi: 10.1063/5.0058766.
  5. Neese,F.
     The SHARK Integral Generation and Digestion System
     J. Comp. Chem., 2022  1-16
     doi.org/10.1002/jcc.26942
  6. Lehtola,S.; Steigemann,C.; Oliveira,M.; Marques,M.
     Recent developments in Libxc - A comprehensive library of functionals for density functional theory
     Software X, 2018 7 
     doi.org/10.1016/j.softx.2017.11.002
  7. Grimme,S.; Antony,J.; Ehrlich,S.; Krieg,H.
     A consistent and accurate ab initio parametrization of density functional dispersion correction (DFT-D) for the 94 elements H-Pu
     J. Chem. Phys., 2010 132 154104
     doi.org/10.1063/1.3382344
  8. Grimme,S.; Ehrlich,S.; Goerigk,L.
     Effect of the damping function in dispersion corrected density functional theory
     J. Comput. Chem., 2011 32(7)1456-1465
     doi.org/10.1002/jcc.21759
  9. Bursch,M.; Neugebauer,H.; Ehlert,S.; Grimme,S.
     Dispersion corrected r2SCAN based global hybrid functionals: r2SCANh, r2SCAN0, and r2SCAN50
     J. Phys. Chem., 2022 156(13)134105
     doi.org/10.1063/5.0086040

List of suggested additional citations. These are papers that are important in the 'surrounding' of 
of this run, or papers that preceded the highly important papers. If you like your results we are grateful for a citation.

  1. Izsak,R.; Neese,F.
     An overlap fitted chain of spheres exchange method
     J. Chem. Phys., 2011 135 144105
     doi.org/10.1063/1.3646921
  2. Izsak,R.; Hansen,A.; Neese,F.
     The resolution of identity and chain of spheres approximations for the LPNO-CCSD singles Fock term
     Molec. Phys., 2012 110 2413-2417
     doi.org/10.1080/00268976.2012.687466
  3. Neese,F.
     The ORCA program system
     WIRES Comput. Molec. Sci., 2012 2(1)73-78
     doi.org/10.1002/wcms.81
  4. Izsak,R.; Neese,F.; Klopper,W.
     Robust fitting techniques in the chain of spheres approximation to the Fock exchange: The role of the complementary space
     J. Chem. Phys., 2013 139 
     doi.org/10.1063/1.4819264
  5. Neese,F.
     Software update: the ORCA program system, version 4.0
     WIRES Comput. Molec. Sci., 2018 8(1)1-6
     doi.org/10.1002/wcms.1327
  6. Neese,F.; Wennmohs,F.; Becker,U.; Riplinger,C.
     The ORCA quantum chemistry program package
     J. Chem. Phys., 2020 152 Art. No. L224108
     doi.org/10.1063/5.0004608
  7. Wittmann,L.; Neugebauer,H.; Grimme,S.; Bursch,M.
     Dispersion-corrected r2SCAN based double-hybrid functionals
     J. Chem. Phys., 2023 159(22)224103
     doi.org/10.1063/5.0174988

List of optional additional citations

  1. Neese,F.
     Approximate second-order SCF convergence for spin unrestricted wavefunctions
     Chem. Phys. Lett., 2000 325(1-3)93-98
     doi.org/10.1016/s0009-2614(00)00662-x

Timings for individual modules:

Sum of individual times          ...     4834.057 sec (=  80.568 min)
Startup calculation              ...      238.884 sec (=   3.981 min)   4.9 %
SCF iterations                   ...     3425.469 sec (=  57.091 min)  70.9 %
Property calculations            ...        1.075 sec (=   0.018 min)   0.0 %
SCF Gradient evaluation          ...     1167.574 sec (=  19.460 min)  24.2 %
Geometry relaxation              ...        1.055 sec (=   0.018 min)   0.0 %
                             ****ORCA TERMINATED NORMALLY****
TOTAL RUN TIME: 0 days 1 hours 21 minutes 13 seconds 668 msec
