
                                 *****************
                                 * O   R   C   A *
                                 *****************

                                            #,                                       
                                            ###                                      
                                            ####                                     
                                            #####                                    
                                            ######                                   
                                           ########,                                 
                                     ,,################,,,,,                         
                               ,,#################################,,                 
                          ,,##########################################,,             
                       ,#########################################, ''#####,          
                    ,#############################################,,   '####,        
                  ,##################################################,,,,####,       
                ,###########''''           ''''###############################       
              ,#####''   ,,,,##########,,,,          '''####'''          '####       
            ,##' ,,,,###########################,,,                        '##       
           ' ,,###''''                  '''############,,,                           
         ,,##''                                '''############,,,,        ,,,,,,###''
      ,#''                                            '''#######################'''  
     '                                                          ''''####''''         
             ,#######,   #######,   ,#######,      ##                                
            ,#'     '#,  ##    ##  ,#'     '#,    #''#        ,####,   ,####,        
            ##       ##  ##   ,#'  ##            #'  '#       #'       #'  '#        
            ##       ##  #######   ##           ,######,      #####,   #    #        
            '#,     ,#'  ##    ##  '#,     ,#' ,#      #,     #,   #   #,  ,#        
             '#######'   ##     ##  '#######'  #'      '#     '####' # '####'        



                #########################################################
                #                        -***-                          #
                #          Department of theory and spectroscopy        #
                #                                                       #
                #                      Frank Neese                      #
                #                                                       #
                #     Directorship, Architecture, Infrastructure        #
                #                    SHARK, DRIVERS                     #
                #        Core code/Algorithms in most modules           #
                #                                                       #
                #        Max Planck Institute fuer Kohlenforschung      #
                #                Kaiser Wilhelm Platz 1                 #
                #                 D-45470 Muelheim/Ruhr                 #
                #                      Germany                          #
                #                                                       #
                #                  All rights reserved                  #
                #                        -***-                          #
                #########################################################


                         Program Version 6.0.1  -  RELEASE   -


 With contributions from (in alphabetic order):
[Max-Planck-Institut fuer Kohlenforschung]                               
  Daniel Aravena         : Magnetic Suceptibility                        
  Michael Atanasov       : Ab Initio Ligand Field Theory (pilot matlab implementation)
  Alexander A. Auer      : GIAO ZORA, VPT2 properties, NMR spectrum      
  Ute Becker             : All parallelization in ORCA, NUMFREQ, NUMCALC 
  Giovanni Bistoni       : ED, misc. LED, open-shell LED, HFLD           
  Martin Brehm           : Molecular dynamics                            
  Dmytro Bykov           : pre 5.0 version of the SCF Hessian            
  Marcos Casanova-Páez   : Triplet and SCS-CIS(D). UHF-(DLPNO)-IP/EA/STEOM-CCSD. UHF-CVS-IP/STEOM-CCSD   
  Vijay G. Chilkuri      : MRCI spin determinant printing, contributions to CSF-ICE 
  Pauline Colinet        : FMM embedding                                 
  Dipayan Datta          : RHF DLPNO-CCSD density                        
  Achintya Kumar Dutta   : EOM-CC, STEOM-CC                              
  Nicolas Foglia         : Exact transition moments, OPA infrastructure, MCD improvements    
  Dmitry Ganyushin       : Spin-Orbit,Spin-Spin,Magnetic field MRCI      
  Miquel Garcia-Rates    : C-PCM and meta-GGA Hessian, CCSD/C-PCM, Gaussian charge scheme 
  Tiago L. C. Gouveia    : GS-ROHF, GS-ROCIS                             
  Yang Guo               : DLPNO-NEVPT2, F12-NEVPT2, CIM, IAO-localization        
  Andreas Hansen         : Spin unrestricted coupled pair/coupled cluster methods 
  Ingolf Harden          : AUTO-CI MPn and infrastructure                
  Benjamin Helmich-Paris : MC-RPA, TRAH-(SCF,CASSCF), AVAS, COSX integrals, SCF dyn. polar. 
  Lee Huntington         : MR-EOM, pCC                                   
  Robert Izsak           : Overlap fitted RIJCOSX, COSX-SCS-MP3, EOM     
  Riya Kayal             : Wick's Theorem for AUTO-CI, AUTO-CI UHF-CCSDT 
  Emily Kempfer          : AUTO-CI, RHF CISDT and CCSDT                  
  Christian Kollmar      : KDIIS, OOCD, Brueckner-CCSD(T), CCSD density, CASPT2, CASPT2-K, improved NEVPT2 
  Axel Koslowski         : Symmetry handling                             
  Simone Kossmann        : meta-GGA functionals, TD-DFT gradient, OOMP2, (MP2 Hessian; deprecated post 5.0) 
  Lucas Lang             : DCDCAS                                        
  Marvin Lechner         : AUTO-CI (C++ implementation), FIC-MRCC        
  Spencer Leger          : CASSCF response                               
  Dagmar Lenk            : GEPOL surface, SMD, ORCA-2-JSON               
  Dimitrios Liakos       : Extrapolation schemes; Compound Job, initial MDCI parallelization 
  Dimitrios Manganas     : Further ROCIS development; embedding schemes. LFT, Crystal Embedding 
  Dimitrios Pantazis     : SARC Basis sets                               
  Anastasios Papadopoulos: AUTO-CI, single reference methods and gradients 
  Taras Petrenko         : pre 6.0 DFT Hessian and TD-DFT gradient, (ASA, deprecated), ECA, 1-Electron XAS/XES, NRVS 
  Peter Pinski           : DLPNO-MP2, DLPNO-MP2 Gradient                 
  Christoph Reimann      : Effective Core Potentials                     
  Marius Retegan         : Local ZFS, SOC                                
  Christoph Riplinger    : Optimizer, TS searches, QM/MM, DLPNO-CCSD(T), (RO)-DLPNO pert. Triples 
  Michael Roemelt        : Original ROCIS implementation                 
  Masaaki Saitow         : Open-shell DLPNO-CCSD energy and density      
  Barbara Sandhoefer     : DKH picture change effects                    
  Kantharuban Sivalingam : CASSCF convergence/infrastructure, NEVPT2 and variants, FIC-MRCI 
  Bernardo de Souza      : ESD, SOC TD-DFT                               
  Georgi L. Stoychev     : AutoAux, RI-MP2 NMR, DLPNO-MP2 response, X2C  
  Van Anh Tran           : RI-MP2 g-tensors                              
  Willem Van den Heuvel  : Paramagnetic NMR                              
  Zikuan Wang            : NOTCH, Electric field optimization            
  Frank Wennmohs         : Technical directorship and infrastructure     
  Hang Xu                : AUTO-CI-Response properties                   
                                                                         
[FACCTs GmbH]                                                            
  Markus Bursch, Miquel Garcia-Rates, Christoph Riplinger, Bernardo de Souza, Georgi L. Stoychev 
                                                                 
  APM, Basis sets (HGBS, AHGBS, def-TZVP (Ac-Lr), def2-XVPD (La-Lu)), CI-OPT, improved COSX, DLPNO-Multilevel,           
  DOCKER, DRACO, updates on ESD, GOAT, IRC, LR-CPCM, MBIS, meta-GGA TD-DFT gradient, ML-optimized integration grids, 
  MM, NACMEs, nearIR, NEB, NEB-TS, NL-DFT gradient (VV10), 2- and 3-layer-ONIOM, interface openCOSMO-RS, QMMM,   
  Crystal-QMMM, SF, symmetry and pop. for TD-DFT, r2SCAN hybrids, SOLVATOR                                   
                                                                         
[Other institutions]                                                     
  V. Asgeirsson          : NEB                                           
  Christoph Bannwarth    : sTDA-DFT, sTD-DFT, PBEh-3c, B97-3c, D3        
  Sebastian Ehlert       : rSCAN, r2SCAN, r2SCAN-3c, D4, dhf basis sets  
  Marvin Friede          : D4 for Fr, Ra, Ac-Lr                          
  Lars Goerigk           : TD-DFT with DH, B97 family of functionals     
  Stefan Grimme          : VdW corrections, initial TS optimization, DFT functionals, gCP, sTDA/sTD-DF 
  Waldemar Hujo          : DFT-NL                                        
  H. Jonsson             : NEB                                           
  Holger Kruse           : gCP                                           
  Marcel Mueller         : wB97X-3c, vDZP basis set                      
  Hagen Neugebauer       : wr2SCAN                                       
  Tobias Risthaus        : range-separated hybrid DFT                    
  Lukas Wittmann         : regularized MP2, r2SCAN double-hybrids, wr2SCAN        
                                                                         
We gratefully acknowledge several colleagues who have allowed us to      
interface, adapt or use parts of their codes:                            
  Ed Valeev, F. Pavosevic, A. Kumar             : LibInt (2-el integral package), F12 methods 
  Garnet Chan, S. Sharma, J. Yang, R. Olivares  : DMRG                   
  Ulf Ekstrom                                   : XCFun DFT Library      
  Mihaly Kallay                                 : mrcc  (arbitrary order and MRCC methods)
  Frank Weinhold                                : gennbo (NPA and NBO analysis)           
  Simon Mueller                                 : openCOSMO-RS                            
  Christopher J. Cramer and Donald G. Truhlar   : smd solvation model                     
  S Lehtola, MJT Oliveira, MAL Marques          : LibXC Library                           
  Liviu Ungur et al                             : ANISO software                          


 Your calculation uses the libint2 library for the computation of 2-el integrals
 For citations please refer to: http://libint.valeyev.net

 Your ORCA version has been built with support for libXC version: 6.2.2
 For citations please refer to: https://libxc.gitlab.io

 This ORCA versions uses:
   CBLAS   interface :  Fast vector & matrix operations
   LAPACKE interface :  Fast linear algebra routines
   SCALAPACK package :  Parallel linear algebra routines
   Shared memory     :  Shared parallel matrices
   BLAS/LAPACK       :  OpenBLAS 0.3.27  USE64BITINT DYNAMIC_ARCH NO_AFFINITY SkylakeX SINGLE_THREADED
        Core in use  :  SkylakeX
   Copyright (c) 2011-2014, The OpenBLAS Project


NOTE: MaxCore=8000 MB was set to SCF,MP2,MDCI,CIPSI,MRCI and CIS
      => If you want to overwrite this, your respective input block should be placed after the MaxCore statement
Your calculation utilizes the atom-pairwise dispersion correction
with the Becke-Johnson damping scheme (D3BJ)


Your calculation utilizes the SMD solvation module
Please cite in your paper:
A.V. Marenich, C.J. Cramer, D.G. Truhlar J. Phys. Chem. B, 113, (2009), 6378 

Warning: RI is on but no J-basis has been assigned. Assigning Def2/J (nothing to worry about!)
================================================================================

----- Orbital basis set information -----
Your calculation utilizes the basis: def2-TZVP
   F. Weigend and R. Ahlrichs, Phys. Chem. Chem. Phys. 7, 3297 (2005).

----- AuxJ basis set information -----
Your calculation utilizes the auxiliary basis: def2/J
   F. Weigend, Phys. Chem. Chem. Phys. 8, 1057 (2006).

================================================================================
                                        WARNINGS
                       Please study these warnings very carefully!
================================================================================



WARNING: SCAN, rSCAN, or r2SCAN functional requested.
  ===> : libXC variant has now been activated.



WARNING: your system is open-shell and RHF/RKS was chosen
  ===> : WILL SWITCH to UHF/UKS


================================================================================
                                       INPUT FILE
================================================================================
NAME = rf_mecn_1H2O_freq_r2s_con_02.inp
|  1> !r2scanh def2-TZVP freq d3 TightSCF SlowConv defgrid2
|  2>  
|  3> %pal
|  4> nprocs 20
|  5> end
|  6>  
|  7> %scf
|  8> MaxIter 1500
|  9> end
| 10>  
| 11> %maxcore 8000
| 12>  
| 13> !CPCM
| 14> %cpcm smd true
| 15> SMDsolvent "ACETONITRILE"
| 16> end
| 17>  
| 18> * xyz -1 2
| 19> 6        7.930283000     27.233140000      2.969767000
| 20> 6        6.628072000     26.696745000      2.315146000
| 21> 6        6.692988000     25.194917000      1.920586000
| 22> 6        5.309028000     24.533260000      1.652052000
| 23> 6        5.403467000     23.203417000      0.974813000
| 24> 6        5.563560000     21.854049000      1.596236000
| 25> 6        6.743681000     21.030287000      1.025573000
| 26> 6        7.091762000     19.781561000      1.910322000
| 27> 9        8.989186000     26.903660000      2.237849000
| 28> 9        8.080505000     26.746625000      4.193987000
| 29> 9        7.857092000     28.557200000      3.046059000
| 30> 9        5.625343000     26.898401000      3.183942000
| 31> 9        6.398834000     27.422622000      1.211937000
| 32> 9        7.426406000     25.091920000      0.798755000
| 33> 9        7.302806000     24.506133000      2.899383000
| 34> 9        4.660860000     24.412432000      2.824118000
| 35> 9        4.612714000     25.374528000      0.853110000
| 36> 9        5.492877000     23.250667000     -0.341391000
| 37> 9        5.764572000     22.001917000      2.926771000
| 38> 9        4.421262000     21.137717000      1.432324000
| 39> 9        6.423091000     20.654604000     -0.239964000
| 40> 9        7.798192000     21.882735000      0.923892000
| 41> 8        8.106687000     19.882983000      2.597539000
| 42> 8        6.270205000     18.850598000      1.802523000
| 43> 8        4.187723000     18.202695000      0.128643000
| 44> 1        4.594899000     17.478416000     -0.354346000
| 45> 1        4.905033000     18.535176000      0.705866000
| 46> *
| 47> 
| 48>                          ****END OF INPUT****
================================================================================

                       ****************************
                       * Single Point Calculation *
                       ****************************

---------------------------------
CARTESIAN COORDINATES (ANGSTROEM)
---------------------------------
  C      7.930283   27.233140    2.969767
  C      6.628072   26.696745    2.315146
  C      6.692988   25.194917    1.920586
  C      5.309028   24.533260    1.652052
  C      5.403467   23.203417    0.974813
  C      5.563560   21.854049    1.596236
  C      6.743681   21.030287    1.025573
  C      7.091762   19.781561    1.910322
  F      8.989186   26.903660    2.237849
  F      8.080505   26.746625    4.193987
  F      7.857092   28.557200    3.046059
  F      5.625343   26.898401    3.183942
  F      6.398834   27.422622    1.211937
  F      7.426406   25.091920    0.798755
  F      7.302806   24.506133    2.899383
  F      4.660860   24.412432    2.824118
  F      4.612714   25.374528    0.853110
  F      5.492877   23.250667   -0.341391
  F      5.764572   22.001917    2.926771
  F      4.421262   21.137717    1.432324
  F      6.423091   20.654604   -0.239964
  F      7.798192   21.882735    0.923892
  O      8.106687   19.882983    2.597539
  O      6.270205   18.850598    1.802523
  O      4.187723   18.202695    0.128643
  H      4.594899   17.478416   -0.354346
  H      4.905033   18.535176    0.705866

----------------------------
CARTESIAN COORDINATES (A.U.)
----------------------------
  NO LB      ZA    FRAG     MASS         X           Y           Z
   0 C     6.0000    0    12.011   14.986063   51.463176    5.612046
   1 C     6.0000    0    12.011   12.525241   50.449537    4.374992
   2 C     6.0000    0    12.011   12.647914   47.611493    3.629382
   3 C     6.0000    0    12.011   10.032609   46.361143    3.121926
   4 C     6.0000    0    12.011   10.211073   43.848104    1.842130
   5 C     6.0000    0    12.011   10.513605   41.298168    3.016449
   6 C     6.0000    0    12.011   12.743710   39.741483    1.938052
   7 C     6.0000    0    12.011   13.401488   37.381733    3.609985
   8 F     9.0000    0    18.998   16.987100   50.840549    4.228922
   9 F     9.0000    0    18.998   15.269941   50.543796    7.925487
  10 F     9.0000    0    18.998   14.847752   53.965287    5.756217
  11 F     9.0000    0    18.998   10.630358   50.830611    6.016778
  12 F     9.0000    0    18.998   12.092044   51.821245    2.290229
  13 F     9.0000    0    18.998   14.033873   47.416857    1.509428
  14 F     9.0000    0    18.998   13.800303   46.309880    5.479040
  15 F     9.0000    0    18.998    8.807749   46.132811    5.336810
  16 F     9.0000    0    18.998    8.716766   47.950909    1.612144
  17 F     9.0000    0    18.998   10.380033   43.937393   -0.645135
  18 F     9.0000    0    18.998   10.893462   41.577598    5.530796
  19 F     9.0000    0    18.998    8.354974   39.944496    2.706700
  20 F     9.0000    0    18.998   12.137883   39.031545   -0.453466
  21 F     9.0000    0    18.998   14.736447   41.352376    1.745903
  22 O     8.0000    0    15.999   15.319418   37.573393    4.908637
  23 O     8.0000    0    15.999   11.848970   35.622468    3.406275
  24 O     8.0000    0    15.999    7.913650   34.398108    0.243100
  25 H     1.0000    0     1.008    8.683101   33.029419   -0.669617
  26 H     1.0000    0     1.008    9.269169   35.026406    1.333893

--------------------------------
INTERNAL COORDINATES (ANGSTROEM)
--------------------------------
 C      0   0   0     0.000000000000     0.00000000     0.00000000
 C      1   0   0     1.553062052265     0.00000000     0.00000000
 C      2   1   0     1.554148970414   113.93738994     0.00000000
 C      3   2   1     1.557320062288   114.65935463   163.22246751
 C      4   3   2     1.495344038170   113.56663886   166.55865538
 C      5   4   3     1.494185501537   128.42850439    87.46645620
 C      6   5   4     1.548200783766   114.13456046   232.60872321
 C      7   6   5     1.569476918797   112.61919038   166.60388037
 F      1   2   3     1.328734959476   110.51079358    49.59200344
 F      1   2   3     1.325887666022   110.94369430   288.43525181
 F      1   2   3     1.328274171753   108.80152542   169.02205914
 F      2   1   3     1.341989969930   107.56158654   122.11106096
 F      2   1   3     1.340342335918   107.65543725   239.30620164
 F      3   2   1     1.344252631500   107.98083353   283.60520167
 F      3   2   1     1.343259081112   109.23713835    41.69388306
 F      4   3   2     1.344789898149   108.43436986   289.40913106
 F      4   3   2     1.353105078619   107.15622086    46.70684322
 F      5   4   3     1.320083209580   115.08823179   275.04496173
 F      6   5   4     1.353733413857   109.02819967   353.31389947
 F      6   5   4     1.358250123789   109.63211166   110.77722468
 F      7   6   5     1.358491649940   108.09751577   289.53049398
 F      7   6   5     1.359779418724   106.56670233    43.85591703
 O      8   7   6     1.229888768466   115.61958574   255.18059719
 O      8   7   6     1.246301984279   113.53847067    74.45911658
 O     24   8   7     2.749251503979   136.72085440    12.13803109
 H     25  24   8     0.961067499678    99.36151445   107.97121243
 H     25  24   8     0.978909415212     6.22443934   329.45448841

---------------------------
INTERNAL COORDINATES (A.U.)
---------------------------
 C      0   0   0     0.000000000000     0.00000000     0.00000000
 C      1   0   0     2.934861947767     0.00000000     0.00000000
 C      2   1   0     2.936915925399   113.93738994     0.00000000
 C      3   2   1     2.942908420586   114.65935463   163.22246751
 C      4   3   2     2.825790708133   113.56663886   166.55865538
 C      5   4   3     2.823601391180   128.42850439    87.46645620
 C      6   5   4     2.925675481640   114.13456046   232.60872321
 C      7   6   5     2.965881550038   112.61919038   166.60388037
 F      1   2   3     2.510945177976   110.51079358    49.59200344
 F      1   2   3     2.505564573125   110.94369430   288.43525181
 F      1   2   3     2.510074415373   108.80152542   169.02205914
 F      2   1   3     2.535993517637   107.56158654   122.11106096
 F      2   1   3     2.532879940585   107.65543725   239.30620164
 F      3   2   1     2.540269328337   107.98083353   283.60520167
 F      3   2   1     2.538391790204   109.23713835    41.69388306
 F      4   3   2     2.541284615166   108.43436986   289.40913106
 F      4   3   2     2.556998029008   107.15622086    46.70684322
 F      5   4   3     2.494595740095   115.08823179   275.04496173
 F      6   5   4     2.558185410528   109.02819967   353.31389947
 F      6   5   4     2.566720755325   109.63211166   110.77722468
 F      7   6   5     2.567177173606   108.09751577   289.53049398
 F      7   6   5     2.569610703931   106.56670233    43.85591703
 O      8   7   6     2.324152947586   115.61958574   255.18059719
 O      8   7   6     2.355169430451   113.53847067    74.45911658
 O     24   8   7     5.195332415792   136.72085440    12.13803109
 H     25  24   8     1.816154370605    99.36151445   107.97121243
 H     25  24   8     1.849870704667     6.22443934   329.45448841

---------------------
BASIS SET INFORMATION
---------------------
There are 4 groups of distinct atoms

 Group   1 Type C   : 11s6p2d1f contracted to 5s3p2d1f pattern {62111/411/11/1}
 Group   2 Type F   : 11s6p2d1f contracted to 5s3p2d1f pattern {62111/411/11/1}
 Group   3 Type O   : 11s6p2d1f contracted to 5s3p2d1f pattern {62111/411/11/1}
 Group   4 Type H   : 5s1p contracted to 3s1p pattern {311/1}

Atom   0C    basis set group =>   1
Atom   1C    basis set group =>   1
Atom   2C    basis set group =>   1
Atom   3C    basis set group =>   1
Atom   4C    basis set group =>   1
Atom   5C    basis set group =>   1
Atom   6C    basis set group =>   1
Atom   7C    basis set group =>   1
Atom   8F    basis set group =>   2
Atom   9F    basis set group =>   2
Atom  10F    basis set group =>   2
Atom  11F    basis set group =>   2
Atom  12F    basis set group =>   2
Atom  13F    basis set group =>   2
Atom  14F    basis set group =>   2
Atom  15F    basis set group =>   2
Atom  16F    basis set group =>   2
Atom  17F    basis set group =>   2
Atom  18F    basis set group =>   2
Atom  19F    basis set group =>   2
Atom  20F    basis set group =>   2
Atom  21F    basis set group =>   2
Atom  22O    basis set group =>   3
Atom  23O    basis set group =>   3
Atom  24O    basis set group =>   3
Atom  25H    basis set group =>   4
Atom  26H    basis set group =>   4
---------------------------------
AUXILIARY/J BASIS SET INFORMATION
---------------------------------
There are 4 groups of distinct atoms

 Group   1 Type C   : 12s5p4d2f1g contracted to 6s4p3d1f1g pattern {711111/2111/211/2/1}
 Group   2 Type F   : 12s5p4d2f1g contracted to 6s4p3d1f1g pattern {711111/2111/211/2/1}
 Group   3 Type O   : 12s5p4d2f1g contracted to 6s4p3d1f1g pattern {711111/2111/211/2/1}
 Group   4 Type H   : 5s2p1d contracted to 3s1p1d pattern {311/2/1}

Atom   0C    basis set group =>   1
Atom   1C    basis set group =>   1
Atom   2C    basis set group =>   1
Atom   3C    basis set group =>   1
Atom   4C    basis set group =>   1
Atom   5C    basis set group =>   1
Atom   6C    basis set group =>   1
Atom   7C    basis set group =>   1
Atom   8F    basis set group =>   2
Atom   9F    basis set group =>   2
Atom  10F    basis set group =>   2
Atom  11F    basis set group =>   2
Atom  12F    basis set group =>   2
Atom  13F    basis set group =>   2
Atom  14F    basis set group =>   2
Atom  15F    basis set group =>   2
Atom  16F    basis set group =>   2
Atom  17F    basis set group =>   2
Atom  18F    basis set group =>   2
Atom  19F    basis set group =>   2
Atom  20F    basis set group =>   2
Atom  21F    basis set group =>   2
Atom  22O    basis set group =>   3
Atom  23O    basis set group =>   3
Atom  24O    basis set group =>   3
Atom  25H    basis set group =>   4
Atom  26H    basis set group =>   4


           ************************************************************
           *        Program running with 20 parallel MPI-processes    *
           *              working on a common directory               *
           ************************************************************
------------------------------------------------------------------------------
                             ORCA STARTUP CALCULATIONS
                           -- RI-GTO INTEGRALS CHOSEN --
------------------------------------------------------------------------------
------------------------------------------------------------------------------
                   ___                                                        
                  /   \      - P O W E R E D   B Y -                         
                 /     \                                                     
                 |  |  |   _    _      __       _____    __    __             
                 |  |  |  | |  | |    /  \     |  _  \  |  |  /  |          
                  \  \/   | |  | |   /    \    | | | |  |  | /  /          
                 / \  \   | |__| |  /  /\  \   | |_| |  |  |/  /          
                |  |  |   |  __  | /  /__\  \  |    /   |      \           
                |  |  |   | |  | | |   __   |  |    \   |  |\   \          
                \     /   | |  | | |  |  |  |  | |\  \  |  | \   \       
                 \___/    |_|  |_| |__|  |__|  |_| \__\ |__|  \__/        
                                                                              
                      - O R C A' S   B I G   F R I E N D -                    
                                      &                                       
                       - I N T E G R A L  F E E D E R -                       
                                                                              
 v1 FN, 2020, v2 2021, v3 2022-2024                                           
------------------------------------------------------------------------------


----------------------
SHARK INTEGRAL PACKAGE
----------------------

Number of atoms                             ...     27
Number of basis functions                   ...    787
Number of shells                            ...    283
Maximum angular momentum                    ...      3
Integral batch strategy                     ... SHARK/LIBINT Hybrid
RI-J (if used) integral strategy            ... SPLIT-RIJ (Revised 2003 algorithm where possible)
Printlevel                                  ...      1
Contraction scheme used                     ... SEGMENTED contraction
Prescreening option                         ... SCHWARTZ
   Thresh                                   ... 2.500e-11
   Tcut                                     ... 2.500e-12
   Tpresel                                  ... 2.500e-12 
Coulomb Range Separation                    ... NOT USED
Exchange Range Separation                   ... NOT USED
Multipole approximations                    ... NOT USED
Finite Nucleus Model                        ... NOT USED
CABS basis                                  ... NOT available
Auxiliary Coulomb fitting basis             ... AVAILABLE
   # of basis functions in Aux-J            ...   1247
   # of shells in Aux-J                     ...    385
   Maximum angular momentum in Aux-J        ...      4
Auxiliary J/K fitting basis                 ... NOT available
Auxiliary Correlation fitting basis         ... NOT available
Auxiliary 'external' fitting basis          ... NOT available

Checking pre-screening integrals            ... done (  0.0 sec) Dimension = 283
Check shell pair data                       ... done (  0.0 sec)
Shell pair information
Shell pair cut-off parameter TPreSel        ...   2.5e-12
Total number of shell pairs                 ...     40186
Shell pairs after pre-screening             ...     24582
Total number of primitive shell pairs       ...    131884
Primitive shell pairs kept                  ...     51555
          la=0 lb=0:   4778 shell pairs
          la=1 lb=0:   6770 shell pairs
          la=1 lb=1:   2309 shell pairs
          la=2 lb=0:   3616 shell pairs
          la=2 lb=1:   2629 shell pairs
          la=2 lb=2:    731 shell pairs
          la=3 lb=0:   1660 shell pairs
          la=3 lb=1:   1266 shell pairs
          la=3 lb=2:    658 shell pairs
          la=3 lb=3:    165 shell pairs

Calculating one electron integrals          ... done (  0.2 sec)
Calculating RI/J V-Matrix + Cholesky decomp.... done (  0.2 sec)
Calculating Nuclear repulsion               ... done (  0.0 sec) ENN=   2859.807836227867 Eh

Diagonalization of the overlap matrix:
Smallest eigenvalue                        ... 7.065e-05
Time for diagonalization                   ...    0.182 sec
Threshold for overlap eigenvalues          ... 1.000e-07
Number of eigenvalues below threshold      ... 0
Time for construction of square roots      ...    0.048 sec
Total time needed                          ...    0.236 sec

-------------------
DFT GRID GENERATION
-------------------

General Integration Accuracy     IntAcc      ... 4.388
Radial Grid Type                 RadialGrid  ... OptM3 with GC (2021)
Angular Grid (max. ang.)         AngularGrid ... 4 (Lebedev-302)
Angular grid pruning method      GridPruning ... 4 (adaptive)
Weight generation scheme         WeightScheme... mBecke (2022)
Basis function cutoff            BFCut       ... 1.0000e-11
Integration weight cutoff        WCut        ... 1.0000e-14
Partially contracted basis set               ... off
Rotationally invariant grid construction     ... off
Angular grids for H and He will be reduced by one unit

Total number of grid points                  ...   157929
Total number of batches                      ...     2480
Average number of points per batch           ...       63
Average number of grid points per atom       ...     5849

--------------------
COSX GRID GENERATION
--------------------

GRIDX 1
-------
General Integration Accuracy     IntAcc      ... 3.816
Radial Grid Type                 RadialGrid  ... OptM3 with GC (2021)
Angular Grid (max. ang.)         AngularGrid ... 1 (Lebedev-50)
Angular grid pruning method      GridPruning ... 4 (adaptive)
Weight generation scheme         WeightScheme... mBecke (2022)
Basis function cutoff            BFCut       ... 1.0000e-11
Integration weight cutoff        WCut        ... 1.0000e-14
Partially contracted basis set               ... on
Rotationally invariant grid construction     ... off
Angular grids for H and He will be reduced by one unit

Total number of grid points                  ...    19860
Total number of batches                      ...      167
Average number of points per batch           ...      118
Average number of grid points per atom       ...      736
UseSFitting                                  ... on

GRIDX 2
-------
General Integration Accuracy     IntAcc      ... 4.020
Radial Grid Type                 RadialGrid  ... OptM3 with GC (2021)
Angular Grid (max. ang.)         AngularGrid ... 2 (Lebedev-110)
Angular grid pruning method      GridPruning ... 4 (adaptive)
Weight generation scheme         WeightScheme... mBecke (2022)
Basis function cutoff            BFCut       ... 1.0000e-11
Integration weight cutoff        WCut        ... 1.0000e-14
Partially contracted basis set               ... on
Rotationally invariant grid construction     ... off
Angular grids for H and He will be reduced by one unit

Total number of grid points                  ...    46529
Total number of batches                      ...      379
Average number of points per batch           ...      122
Average number of grid points per atom       ...     1723
UseSFitting                                  ... on

GRIDX 3
-------
General Integration Accuracy     IntAcc      ... 4.338
Radial Grid Type                 RadialGrid  ... OptM3 with GC (2021)
Angular Grid (max. ang.)         AngularGrid ... 3 (Lebedev-194)
Angular grid pruning method      GridPruning ... 4 (adaptive)
Weight generation scheme         WeightScheme... mBecke (2022)
Basis function cutoff            BFCut       ... 1.0000e-11
Integration weight cutoff        WCut        ... 1.0000e-14
Partially contracted basis set               ... on
Rotationally invariant grid construction     ... off
Angular grids for H and He will be reduced by one unit

Total number of grid points                  ...   102944
Total number of batches                      ...      818
Average number of points per batch           ...      125
Average number of grid points per atom       ...     3813
UseSFitting                                  ... on
Initializing property integral containers    ... done (  0.0 sec)

SHARK setup successfully completed in   3.9 seconds

Maximum memory used throughout the entire STARTUP-calculation: 61.6 MB


           ************************************************************
           *        Program running with 20 parallel MPI-processes    *
           *              working on a common directory               *
           ************************************************************
-------------------------------------------------------------------------------
                                 ORCA GUESS
                   Start orbitals & Density for SCF / CASSCF
-------------------------------------------------------------------------------

------------
SCF SETTINGS
------------
Hamiltonian:
 Density Functional     Method          .... DFT(GTOs)
  Functional kind                       .... Exchange
  Functional name                       .... Re-regularized SCAN exchange by Furness et al
  Functional family                     .... MGGA
  Functional refs                              
    [ 0] J. W. Furness, A. D. Kaplan, J. Ning, J. P. Perdew, and J. Sun.,  J. Phys. Chem. Lett. 11, 8208-8215 (2020), doi: 10.1021/acs.jpclett.0c02405
    [ 1] J. W. Furness, A. D. Kaplan, J. Ning, J. P. Perdew, and J. Sun.,  J. Phys. Chem. Lett. 11, 9248-9248 (2020), doi: 10.1021/acs.jpclett.0c03077
  Functional external parameters        .... 6
    Parameter  0 _c1        =  6.670000e-01 : c1 parameter        
    Parameter  1 _c2        =  8.000000e-01 : c2 parameter        
    Parameter  2 _d         =  1.240000e+00 : d parameter         
    Parameter  3 _k1        =  6.500000e-02 : k1 parameter        
    Parameter  4 _eta       =  1.000000e-03 : eta parameter       
    Parameter  5 _dp2       =  3.610000e-01 : dp2 parameter       
  Functional kind                       .... Correlation
  Functional name                       .... Re-regularized SCAN correlation by Furness et al
  Functional family                     .... MGGA
  Functional refs                              
    [ 0] J. W. Furness, A. D. Kaplan, J. Ning, J. P. Perdew, and J. Sun.,  J. Phys. Chem. Lett. 11, 8208-8215 (2020), doi: 10.1021/acs.jpclett.0c02405
    [ 1] J. W. Furness, A. D. Kaplan, J. Ning, J. P. Perdew, and J. Sun.,  J. Phys. Chem. Lett. 11, 9248-9248 (2020), doi: 10.1021/acs.jpclett.0c03077
  Functional external parameters        .... 1
    Parameter  0 _eta       =  1.000000e-03 : Regularization parameter
 Gradients option       PostSCFGGA      .... off
 Hybrid DFT is turned on
   Fraction HF Exchange ScalHFX         ....  0.100000
   Scaling of DF-GGA-X  ScalDFX         ....  0.900000
   Scaling of DF-GGA-C  ScalDFC         ....  1.000000
   Scaling of DF-LDA-C  ScalLDAC        ....  1.000000
   Perturbative correction              ....  0.000000
   NL short-range parameter             .... 11.900000
 RI-approximation to the Coulomb term is turned on
   Number of AuxJ basis functions       .... 1247
   RIJ-COSX (HFX calculated with COS-X)).... on


General Settings:
 Integral files         IntName         .... rf_mecn_1H2O_freq_r2s_con_02
 Hartree-Fock type      HFTyp           .... UHF
 Total Charge           Charge          ....   -1
 Multiplicity           Mult            ....    2
 Number of Electrons    NEL             ....  201
 Basis Dimension        Dim             ....  787
 Nuclear Repulsion      ENuc            ....   2859.8078362279 Eh

Convergence Acceleration:
 AO-DIIS                CNVDIIS         .... on
   Start iteration      DIISMaxIt       ....     0
   Startup error        DIISStart       ....  0.200000
   # of expansion vecs  DIISMaxEq       ....     5
   Bias factor          DIISBfac        ....   1.050
   Max. coefficient     DIISMaxC        ....  10.000
 MO-DIIS                CNVKDIIS        .... off
 Trust-Rad. Augm. Hess. CNVTRAH         .... auto
   Auto Start mean grad. ratio tolernc. ....  1.125000
   Auto Start start iteration           ....    50
   Auto Start num. interpolation iter.  ....    10
   Max. Number of Micro iterations      ....    24
   Max. Number of Macro iterations      .... Maxiter - #DIIS iter
   Number of Davidson start vectors     ....     2
   Converg. threshold    (grad. norm)   ....   1.000e-05
   Grad. Scal. Fac. for Micro threshold ....   0.100
   Minimum threshold for Micro iter.    ....   1.000e-02
   NR start threshold (gradient norm)   ....   1.000e-04
   Initial trust radius                 ....   0.400
   Minimum AH scaling param. (alpha)    ....   1.000
   Maximum AH scaling param. (alpha)    .... 1000.000
   Quad. conv. algorithm                .... NR
   White noise on init. David. guess    .... on
   Maximum white noise                  ....   0.010
   Pseudo random numbers                .... off
   Inactive MOs                         .... canonical
   Orbital update algorithm             .... Taylor
   Preconditioner                       .... Diag
   Full preconditioner red. dimension   ....   250
 SOSCF                  CNVSOSCF        .... on
   Start iteration      SOSCFMaxIt      ....   150
   Startup grad/error   SOSCFStart      ....  0.001000
   Hessian update       SOSCFHessUp     .... L-BFGS
 Level Shifting         CNVShift        .... on
   Level shift para.    LevelShift      ....    0.2500
   Turn off err/grad.   ShiftErr        ....    0.0000
 Zerner damping         CNVZerner       .... off
 Static damping         CNVDamp         .... on
   Fraction old density DampFac         ....    0.8500
   Max. Damping (<1)    DampMax         ....    0.9800
   Min. Damping (>=0)   DampMin         ....    0.0000
   Turn off err/grad.   DampErr         ....    0.0300

SCF Procedure:
 Maximum # iterations   MaxIter         ....  1500
 SCF integral mode      SCFMode         .... Direct
   Integral package                     .... SHARK and LIBINT hybrid scheme
 Reset frequency        DirectResetFreq ....    20
 Integral Threshold     Thresh          ....  2.500e-11 Eh
 Primitive CutOff       TCut            ....  2.500e-12 Eh

Convergence Tolerance:
 Convergence Check Mode ConvCheckMode   .... Total+1el-Energy
 Convergence forced     ConvForced      .... 0
 Energy Change          TolE            ....  1.000e-08 Eh
 1-El. energy change                    ....  1.000e-05 Eh
 Orbital Gradient       TolG            ....  1.000e-05
 Orbital Rotation angle TolX            ....  1.000e-05
 DIIS Error             TolErr          ....  5.000e-07

------------------------------
INITIAL GUESS: MODEL POTENTIAL
------------------------------
Loading Hartree-Fock densities                     ... done
Calculating cut-offs                               ... done
Initializing the effective Hamiltonian             ... done
Setting up the integral package (SHARK)            ... done
Starting the Coulomb interaction                   ... done (   0.4 sec)
Making the grid                                    ... done (   0.4 sec)
Mapping shells                                     ... done
Starting the XC term evaluation                    ... done (   0.1 sec)
  promolecular density results
     # of electrons  =    199.995777796
     EX              =   -205.991978374
     EC              =     -7.003846346
     EX+EC           =   -212.995824720
Transforming the Hamiltonian                       ... done (   0.0 sec)
Diagonalizing the Hamiltonian                      ... done (   0.2 sec)
Back transforming the eigenvectors                 ... done (   0.0 sec)
Now organizing SCF variables                       ... done
                      ------------------
                      INITIAL GUESS DONE (   1.3 sec)
                      ------------------
             **** ENERGY FILE WAS UPDATED (rf_mecn_1H2O_freq_r2s_con_02.en.tmp) ****
Finished Guess after   2.2 sec
Maximum memory used throughout the entire GUESS-calculation: 50.7 MB


           ************************************************************
           *        Program running with 20 parallel MPI-processes    *
           *              working on a common directory               *
           ************************************************************

-------------------------------------------------------------------------------------------
                                      ORCA LEAN-SCF
                              memory conserving SCF solver
-------------------------------------------------------------------------------------------

--------------------
CPCM SOLVATION MODEL
--------------------
CPCM parameters:
  Epsilon                                         ...      35.6880
  Refrac                                          ...       1.3442
  Rsolv                                           ...       1.3000
  Surface type                                    ... GAUSSIAN VDW
  Discretization scheme                           ... Constant charge density
    Threshold for H atoms                         ...       5.0000 (charges/Ang^2)
    Threshold for non-H atoms                     ...       5.0000 (charges/Ang^2)
  Epsilon function type                           ...         CPCM
Solvent:                                          ... ACETONITRILE
SMD-CDS solvent descriptors:
  Soln                                            ...       1.3442
  Soln25                                          ...       1.3416
  Sola                                            ...       0.0700
  Solb                                            ...       0.3200
  Solg                                            ...      41.2500
  Solc                                            ...       0.0000
  Solh                                            ...       0.0000
Radii:
  Scheme                                          ... Element-dependent radii
  Radius for C  used is    3.4960 Bohr (=   1.8500 Ang.)
  Radius for F  used is    3.2692 Bohr (=   1.7300 Ang.)
  Radius for O  used is    4.0969 Bohr (=   2.1680 Ang.)
  Radius for H  used is    2.2677 Bohr (=   1.2000 Ang.)
Calculating surface                               ...        done! (  0.0s)
Cavity surface points                             ...         2383
Cavity Volume                                     ...    2324.9532
Cavity Surface-area                               ...    1198.3327
Calculating surface distance matrix               ...        done! (  0.0s)
Performing Cholesky decomposition & store         ...        done! (  0.1s)
Overall time for CPCM initialization              ...                 0.1s

----------------------------------------D-I-I-S--------------------------------------------
Iteration    Energy (Eh)           Delta-E    RMSDP     MaxDP     DIISErr   Damp  Time(sec)
-------------------------------------------------------------------------------------------
               ***  Starting incremental Fock matrix formation  ***
    1    -1929.0387374698275380     0.00e+00  2.49e-04  3.04e-02  1.62e-01  0.850   7.5
Warning: op=0 Small HOMO/LUMO gap (   0.081) - skipping pre-diagonalization
         Will do a full diagonalization
    2    -1929.1902022373260479    -1.51e-01  3.08e-04  4.94e-02  1.15e-01  0.850   4.8
                               ***Turning on AO-DIIS***
    3    -1929.2755658322466843    -8.54e-02  1.58e-04  2.68e-02  7.35e-02  0.850   4.1
    4    -1929.3276596782334309    -5.21e-02  9.07e-05  1.27e-02  5.55e-02  0.850   4.1
    5    -1929.3649166434533981    -3.73e-02  6.14e-05  4.95e-03  4.52e-02  0.850   3.9
    6    -1929.3944132134547544    -2.95e-02  4.86e-05  4.59e-03  3.83e-02  0.850   3.8
    7    -1929.4188780657095776    -2.45e-02  4.25e-05  4.25e-03  3.29e-02  0.850   3.9
    8    -1929.4394887094777005    -2.06e-02  3.74e-05  3.78e-03  2.80e-02  0.850   3.8
    9    -1929.4566863415848275    -1.72e-02  2.15e-04  2.18e-02  2.34e-02  0.000   3.8
   10    -1929.5470878362075382    -9.04e-02  1.51e-05  2.04e-03  3.24e-03  0.000   4.1
                              *** Initializing SOSCF ***
---------------------------------------S-O-S-C-F--------------------------------------
Iteration    Energy (Eh)           Delta-E    RMSDP     MaxDP     MaxGrad    Time(sec)
--------------------------------------------------------------------------------------
   11    -1929.5472159295677557    -1.28e-04  8.99e-06  1.55e-03  9.47e-04     4.0
               *** Restarting incremental Fock matrix formation ***
   12    -1929.5472174393316891    -1.51e-06  1.22e-05  1.08e-03  9.11e-04     6.6
   13    -1929.5472165311020945     9.08e-07  8.30e-06  1.06e-03  9.60e-04     4.6
   14    -1929.5472338784029489    -1.73e-05  3.60e-06  3.39e-04  2.48e-04     4.3
   15    -1929.5472339287334762    -5.03e-08  1.52e-06  1.93e-04  9.54e-05     4.2
   16    -1929.5472351177104429    -1.19e-06  1.07e-06  1.09e-04  6.16e-05     3.9
   17    -1929.5472351764638006    -5.88e-08  3.33e-07  2.53e-05  2.41e-05     3.7
   18    -1929.5472352246051742    -4.81e-08  2.56e-07  2.43e-05  1.05e-05     3.3
   19    -1929.5472352278411563    -3.24e-09  1.26e-07  9.90e-06  7.08e-06     3.5
                 **** Energy Check signals convergence ****

               *****************************************************
               *                     SUCCESS                       *
               *           SCF CONVERGED AFTER  19 CYCLES          *
               *****************************************************

Recomputing exchange energy using gridx3       ... done (    7.551 sec)
Old exchange energy                            :    -20.812753341 Eh
New exchange energy                            :    -20.812771168 Eh
Exchange energy change after final integration :     -0.000017827 Eh
Total energy after final integration           :  -1929.547253055 Eh

SMD CDS free energy correction energy :                 2.86334     Kcal/mol
Total Energy after SMD CDS correction =             -1929.542690039 Eh
             **** ENERGY FILE WAS UPDATED (rf_mecn_1H2O_freq_r2s_con_02.en.tmp) ****

----------------
TOTAL SCF ENERGY
----------------

Total Energy       :      -1929.54269003865761 Eh          -52505.52593 eV

Components:
Nuclear Repulsion  :       2859.80783622786657 Eh           77819.32748 eV
Electronic Energy  :      -4789.27332507899700 Eh         -130322.75266 eV
One Electron Energy:      -8400.10042463660648 Eh         -228578.35325 eV
Two Electron Energy:       3610.82709955760947 Eh           98255.60060 eV
CPCM Dielectric    :         -0.08174637671081 Eh              -2.22443 eV
SMD CDS (Gcds)     :          0.00456301602361 Eh               0.12417 eV

Virial components:
Potential Energy   :      -3852.65770980755678 Eh         -104836.14605 eV
Kinetic Energy     :       1923.11501976889895 Eh           52330.62013 eV
Virial Ratio       :          2.00334232232793

DFT components:
N(Alpha)           :      100.999947576932 electrons
N(Beta)            :       99.999963909800 electrons
N(Total)           :      200.999911486732 electrons
E(X)               :     -188.310276925447 Eh       
E(C)               :       -6.974703630582 Eh       
E(XC)              :     -195.284980556029 Eh       

CPCM Solvation Model Properties:
Surface-charge          :          0.99069348932582
Corrected charge        :          1.00000000000000
Outlying charge corr.   :          0.00000459667811 Eh               0.00013 eV
Free-energy (cav+disp)  :          0.00456301602361 Eh               0.12417 eV

---------------
SCF CONVERGENCE
---------------

  Last Energy change         ...    3.2360e-09  Tolerance :   1.0000e-08
  Last MAX-Density change    ...    9.9015e-06  Tolerance :   1.0000e-07
  Last RMS-Density change    ...    1.2572e-07  Tolerance :   5.0000e-09
  Last DIIS Error            ...    9.4734e-04  Tolerance :   5.0000e-07
  Last Orbital Gradient      ...    7.0827e-06  Tolerance :   1.0000e-05
  Last Orbital Rotation      ...    5.6227e-05  Tolerance :   1.0000e-05


----------------------
UHF SPIN CONTAMINATION
----------------------

Warning: in a DFT calculation there is little theoretical justification to 
         calculate <S**2> as in Hartree-Fock theory. We will do it anyways
         but you should keep in mind that the values have only limited relevance

Expectation value of <S**2>     :     0.757084
Ideal value S*(S+1) for S=0.5   :     0.750000
Deviation                       :     0.007084

----------------
ORBITAL ENERGIES
----------------
                 SPIN UP ORBITALS
  NO   OCC          E(Eh)            E(eV) 
   0   1.0000     -24.735250      -673.0804 
   1   1.0000     -24.731243      -672.9713 
   2   1.0000     -24.730096      -672.9401 
   3   1.0000     -24.729578      -672.9260 
   4   1.0000     -24.729490      -672.9236 
   5   1.0000     -24.729465      -672.9230 
   6   1.0000     -24.728227      -672.8893 
   7   1.0000     -24.728205      -672.8887 
   8   1.0000     -24.721196      -672.6979 
   9   1.0000     -24.721160      -672.6970 
  10   1.0000     -24.709191      -672.3713 
  11   1.0000     -24.701606      -672.1649 
  12   1.0000     -24.689084      -671.8241 
  13   1.0000     -24.688961      -671.8208 
  14   1.0000     -19.072325      -518.9843 
  15   1.0000     -19.060873      -518.6727 
  16   1.0000     -19.057510      -518.5812 
  17   1.0000     -10.438598      -284.0487 
  18   1.0000     -10.383089      -282.5382 
  19   1.0000     -10.380965      -282.4804 
  20   1.0000     -10.380791      -282.4757 
  21   1.0000     -10.359932      -281.9081 
  22   1.0000     -10.325305      -280.9658 
  23   1.0000     -10.299550      -280.2650 
  24   1.0000     -10.243301      -278.7344 
  25   1.0000      -1.360313       -37.0160 
  26   1.0000      -1.330702       -36.2103 
  27   1.0000      -1.314040       -35.7568 
  28   1.0000      -1.308492       -35.6059 
  29   1.0000      -1.298508       -35.3342 
  30   1.0000      -1.289355       -35.0851 
  31   1.0000      -1.271607       -34.6022 
  32   1.0000      -1.271200       -34.5911 
  33   1.0000      -1.265553       -34.4375 
  34   1.0000      -1.262097       -34.3434 
  35   1.0000      -1.254588       -34.1391 
  36   1.0000      -1.248883       -33.9838 
  37   1.0000      -1.234125       -33.5822 
  38   1.0000      -1.213606       -33.0239 
  39   1.0000      -1.039786       -28.2940 
  40   1.0000      -0.973886       -26.5008 
  41   1.0000      -0.953614       -25.9492 
  42   1.0000      -0.849469       -23.1152 
  43   1.0000      -0.827213       -22.5096 
  44   1.0000      -0.789003       -21.4699 
  45   1.0000      -0.751679       -20.4542 
  46   1.0000      -0.707356       -19.2481 
  47   1.0000      -0.682475       -18.5711 
  48   1.0000      -0.653959       -17.7951 
  49   1.0000      -0.636641       -17.3239 
  50   1.0000      -0.633903       -17.2494 
  51   1.0000      -0.626727       -17.0541 
  52   1.0000      -0.613480       -16.6936 
  53   1.0000      -0.607920       -16.5424 
  54   1.0000      -0.606229       -16.4963 
  55   1.0000      -0.597596       -16.2614 
  56   1.0000      -0.592588       -16.1251 
  57   1.0000      -0.582448       -15.8492 
  58   1.0000      -0.579800       -15.7772 
  59   1.0000      -0.569101       -15.4860 
  60   1.0000      -0.568777       -15.4772 
  61   1.0000      -0.552343       -15.0300 
  62   1.0000      -0.542190       -14.7537 
  63   1.0000      -0.514471       -13.9995 
  64   1.0000      -0.499509       -13.5923 
  65   1.0000      -0.494577       -13.4581 
  66   1.0000      -0.492426       -13.3996 
  67   1.0000      -0.489171       -13.3110 
  68   1.0000      -0.485007       -13.1977 
  69   1.0000      -0.481337       -13.0978 
  70   1.0000      -0.474952       -12.9241 
  71   1.0000      -0.471053       -12.8180 
  72   1.0000      -0.466262       -12.6876 
  73   1.0000      -0.458966       -12.4891 
  74   1.0000      -0.457453       -12.4479 
  75   1.0000      -0.453019       -12.3273 
  76   1.0000      -0.449442       -12.2299 
  77   1.0000      -0.448044       -12.1919 
  78   1.0000      -0.447172       -12.1682 
  79   1.0000      -0.438484       -11.9318 
  80   1.0000      -0.437021       -11.8920 
  81   1.0000      -0.433570       -11.7980 
  82   1.0000      -0.430364       -11.7108 
  83   1.0000      -0.427851       -11.6424 
  84   1.0000      -0.425926       -11.5900 
  85   1.0000      -0.425149       -11.5689 
  86   1.0000      -0.418186       -11.3794 
  87   1.0000      -0.414567       -11.2809 
  88   1.0000      -0.403735       -10.9862 
  89   1.0000      -0.402261       -10.9461 
  90   1.0000      -0.397871       -10.8266 
  91   1.0000      -0.392388       -10.6774 
  92   1.0000      -0.384692       -10.4680 
  93   1.0000      -0.357319        -9.7232 
  94   1.0000      -0.343079        -9.3357 
  95   1.0000      -0.337827        -9.1927 
  96   1.0000      -0.269147        -7.3239 
  97   1.0000      -0.260097        -7.0776 
  98   1.0000      -0.251695        -6.8490 
  99   1.0000      -0.237087        -6.4515 
 100   1.0000      -0.230649        -6.2763 
 101   0.0000      -0.007009        -0.1907 
 102   0.0000       0.016447         0.4476 
 103   0.0000       0.018696         0.5087 
 104   0.0000       0.047505         1.2927 
 105   0.0000       0.071811         1.9541 
 106   0.0000       0.083830         2.2811 
 107   0.0000       0.092477         2.5164 
 108   0.0000       0.107329         2.9206 
 109   0.0000       0.113115         3.0780 
 110   0.0000       0.125735         3.4214 
 111   0.0000       0.132396         3.6027 

                 SPIN DOWN ORBITALS
  NO   OCC          E(Eh)            E(eV) 
   0   1.0000     -24.731248      -672.9715 
   1   1.0000     -24.730223      -672.9436 
   2   1.0000     -24.730094      -672.9401 
   3   1.0000     -24.729587      -672.9263 
   4   1.0000     -24.729445      -672.9224 
   5   1.0000     -24.729438      -672.9222 
   6   1.0000     -24.728218      -672.8890 
   7   1.0000     -24.728187      -672.8882 
   8   1.0000     -24.720667      -672.6835 
   9   1.0000     -24.720547      -672.6803 
  10   1.0000     -24.709034      -672.3670 
  11   1.0000     -24.700042      -672.1223 
  12   1.0000     -24.689019      -671.8224 
  13   1.0000     -24.688816      -671.8168 
  14   1.0000     -19.072323      -518.9843 
  15   1.0000     -19.060838      -518.6718 
  16   1.0000     -19.057324      -518.5762 
  17   1.0000     -10.438530      -284.0468 
  18   1.0000     -10.382932      -282.5340 
  19   1.0000     -10.382062      -282.5103 
  20   1.0000     -10.380008      -282.4544 
  21   1.0000     -10.360947      -281.9357 
  22   1.0000     -10.324826      -280.9528 
  23   1.0000     -10.282656      -279.8053 
  24   1.0000     -10.243274      -278.7337 
  25   1.0000      -1.360258       -37.0145 
  26   1.0000      -1.330185       -36.1962 
  27   1.0000      -1.313520       -35.7427 
  28   1.0000      -1.306968       -35.5644 
  29   1.0000      -1.296344       -35.2753 
  30   1.0000      -1.282657       -34.9029 
  31   1.0000      -1.271166       -34.5902 
  32   1.0000      -1.271059       -34.5873 
  33   1.0000      -1.265493       -34.4358 
  34   1.0000      -1.261862       -34.3370 
  35   1.0000      -1.254480       -34.1361 
  36   1.0000      -1.247716       -33.9521 
  37   1.0000      -1.232186       -33.5295 
  38   1.0000      -1.213293       -33.0154 
  39   1.0000      -1.039616       -28.2894 
  40   1.0000      -0.973871       -26.5004 
  41   1.0000      -0.953413       -25.9437 
  42   1.0000      -0.840368       -22.8676 
  43   1.0000      -0.816619       -22.2213 
  44   1.0000      -0.787330       -21.4243 
  45   1.0000      -0.744670       -20.2635 
  46   1.0000      -0.703197       -19.1350 
  47   1.0000      -0.681522       -18.5452 
  48   1.0000      -0.649312       -17.6687 
  49   1.0000      -0.635054       -17.2807 
  50   1.0000      -0.632262       -17.2047 
  51   1.0000      -0.626539       -17.0490 
  52   1.0000      -0.612013       -16.6537 
  53   1.0000      -0.606707       -16.5093 
  54   1.0000      -0.602578       -16.3970 
  55   1.0000      -0.596277       -16.2255 
  56   1.0000      -0.591327       -16.0908 
  57   1.0000      -0.579288       -15.7632 
  58   1.0000      -0.578584       -15.7441 
  59   1.0000      -0.568628       -15.4731 
  60   1.0000      -0.566846       -15.4247 
  61   1.0000      -0.550298       -14.9744 
  62   1.0000      -0.540599       -14.7105 
  63   1.0000      -0.499406       -13.5895 
  64   1.0000      -0.495073       -13.4716 
  65   1.0000      -0.493236       -13.4216 
  66   1.0000      -0.489670       -13.3246 
  67   1.0000      -0.485355       -13.2072 
  68   1.0000      -0.483445       -13.1552 
  69   1.0000      -0.480915       -13.0864 
  70   1.0000      -0.472417       -12.8551 
  71   1.0000      -0.469767       -12.7830 
  72   1.0000      -0.464944       -12.6518 
  73   1.0000      -0.457645       -12.4531 
  74   1.0000      -0.456576       -12.4241 
  75   1.0000      -0.452361       -12.3094 
  76   1.0000      -0.447916       -12.1884 
  77   1.0000      -0.446309       -12.1447 
  78   1.0000      -0.445139       -12.1129 
  79   1.0000      -0.436951       -11.8900 
  80   1.0000      -0.436542       -11.8789 
  81   1.0000      -0.433276       -11.7900 
  82   1.0000      -0.429117       -11.6769 
  83   1.0000      -0.426629       -11.6092 
  84   1.0000      -0.425177       -11.5697 
  85   1.0000      -0.424674       -11.5560 
  86   1.0000      -0.417290       -11.3550 
  87   1.0000      -0.413286       -11.2461 
  88   1.0000      -0.402041       -10.9401 
  89   1.0000      -0.401707       -10.9310 
  90   1.0000      -0.397583       -10.8188 
  91   1.0000      -0.389969       -10.6116 
  92   1.0000      -0.384441       -10.4612 
  93   1.0000      -0.353841        -9.6285 
  94   1.0000      -0.342938        -9.3318 
  95   1.0000      -0.334953        -9.1145 
  96   1.0000      -0.269129        -7.3234 
  97   1.0000      -0.251525        -6.8443 
  98   1.0000      -0.237082        -6.4513 
  99   1.0000      -0.232207        -6.3187 
 100   0.0000      -0.116991        -3.1835 
 101   0.0000      -0.004902        -0.1334 
 102   0.0000       0.019011         0.5173 
 103   0.0000       0.023732         0.6458 
 104   0.0000       0.051334         1.3969 
 105   0.0000       0.077165         2.0998 
 106   0.0000       0.085356         2.3227 
 107   0.0000       0.100755         2.7417 
 108   0.0000       0.110012         2.9936 
 109   0.0000       0.124482         3.3873 
 110   0.0000       0.128477         3.4960 
*Only the first 10 virtual orbitals were printed.

                    ********************************
                    * MULLIKEN POPULATION ANALYSIS *
                    ********************************

--------------------------------------------
MULLIKEN ATOMIC CHARGES AND SPIN POPULATIONS
--------------------------------------------
   0 C :    0.472929    0.002708
   1 C :    0.333253    0.005235
   2 C :    0.273715    0.032993
   3 C :    0.409063   -0.026610
   4 C :    0.087529    0.845222
   5 C :    0.343604   -0.016818
   6 C :    0.340290    0.011534
   7 C :    0.262106   -0.000365
   8 F :   -0.156753   -0.000062
   9 F :   -0.154844    0.000043
  10 F :   -0.154780    0.000919
  11 F :   -0.164410   -0.000116
  12 F :   -0.162336    0.000240
  13 F :   -0.172608    0.000270
  14 F :   -0.172754    0.000380
  15 F :   -0.169263    0.007134
  16 F :   -0.174906    0.010695
  17 F :   -0.152591    0.088389
  18 F :   -0.192228    0.002012
  19 F :   -0.184225    0.026141
  20 F :   -0.209227    0.002633
  21 F :   -0.207773    0.000671
  22 O :   -0.490042    0.005520
  23 O :   -0.553387    0.001128
  24 O :   -0.747773    0.000004
  25 H :    0.335632    0.000012
  26 H :    0.361777    0.000087
Sum of atomic charges         :   -1.0000000
Sum of atomic spin populations:    1.0000000

-----------------------------------------------------
MULLIKEN REDUCED ORBITAL CHARGES AND SPIN POPULATIONS
-----------------------------------------------------
CHARGE
  0 C s       :     3.021096  s :     3.021096
      pz      :     0.663913  p :     2.107493
      px      :     0.789968
      py      :     0.653613
      dz2     :     0.070254  d :     0.357858
      dxz     :     0.066678
      dyz     :     0.084323
      dx2y2   :     0.060512
      dxy     :     0.076091
      f0      :     0.007120  f :     0.040624
      f+1     :     0.007544
      f-1     :     0.004213
      f+2     :     0.006810
      f-2     :     0.004235
      f+3     :     0.006878
      f-3     :     0.003824

  1 C s       :     3.099980  s :     3.099980
      pz      :     0.637593  p :     2.251641
      px      :     0.760884
      py      :     0.853164
      dz2     :     0.074414  d :     0.287071
      dxz     :     0.064480
      dyz     :     0.051545
      dx2y2   :     0.053802
      dxy     :     0.042830
      f0      :     0.005380  f :     0.028055
      f+1     :     0.005036
      f-1     :     0.002527
      f+2     :     0.004118
      f-2     :     0.005868
      f+3     :     0.002529
      f-3     :     0.002596

  2 C s       :     3.155030  s :     3.155030
      pz      :     0.594873  p :     2.249239
      px      :     0.790865
      py      :     0.863501
      dz2     :     0.077216  d :     0.293990
      dxz     :     0.056671
      dyz     :     0.064814
      dx2y2   :     0.055814
      dxy     :     0.039475
      f0      :     0.006014  f :     0.028025
      f+1     :     0.003829
      f-1     :     0.003719
      f+2     :     0.005180
      f-2     :     0.004842
      f+3     :     0.002109
      f-3     :     0.002332

  3 C s       :     3.038745  s :     3.038745
      pz      :     0.632077  p :     2.222194
      px      :     0.784496
      py      :     0.805621
      dz2     :     0.074595  d :     0.302254
      dxz     :     0.053372
      dyz     :     0.067585
      dx2y2   :     0.051182
      dxy     :     0.055522
      f0      :     0.004910  f :     0.027743
      f+1     :     0.003912
      f-1     :     0.004427
      f+2     :     0.004745
      f-2     :     0.004386
      f+3     :     0.002649
      f-3     :     0.002714

  4 C s       :     3.236794  s :     3.236794
      pz      :     0.595878  p :     2.503269
      px      :     1.010923
      py      :     0.896469
      dz2     :     0.025157  d :     0.154412
      dxz     :     0.038870
      dyz     :     0.066360
      dx2y2   :     0.009819
      dxy     :     0.014206
      f0      :     0.002709  f :     0.017995
      f+1     :     0.004723
      f-1     :     0.005644
      f+2     :     0.001231
      f-2     :     0.000690
      f+3     :     0.001525
      f-3     :     0.001474

  5 C s       :     3.087868  s :     3.087868
      pz      :     0.639918  p :     2.256065
      px      :     0.762396
      py      :     0.853751
      dz2     :     0.048175  d :     0.285185
      dxz     :     0.067415
      dyz     :     0.061865
      dx2y2   :     0.052243
      dxy     :     0.055486
      f0      :     0.005197  f :     0.027279
      f+1     :     0.005181
      f-1     :     0.005003
      f+2     :     0.001593
      f-2     :     0.003049
      f+3     :     0.004940
      f-3     :     0.002317

  6 C s       :     3.120184  s :     3.120184
      pz      :     0.679181  p :     2.255775
      px      :     0.731962
      py      :     0.844632
      dz2     :     0.046712  d :     0.257228
      dxz     :     0.056162
      dyz     :     0.058317
      dx2y2   :     0.052682
      dxy     :     0.043355
      f0      :     0.005740  f :     0.026524
      f+1     :     0.003850
      f-1     :     0.003740
      f+2     :     0.001919
      f-2     :     0.004238
      f+3     :     0.004305
      f-3     :     0.002733

  7 C s       :     3.023706  s :     3.023706
      pz      :     0.827263  p :     2.437525
      px      :     0.751682
      py      :     0.858580
      dz2     :     0.032428  d :     0.251901
      dxz     :     0.042322
      dyz     :     0.046378
      dx2y2   :     0.078111
      dxy     :     0.052663
      f0      :     0.002716  f :     0.024762
      f+1     :     0.003687
      f-1     :     0.001389
      f+2     :     0.002079
      f-2     :     0.005520
      f+3     :     0.003810
      f-3     :     0.005562

  8 F s       :     3.924444  s :     3.924444
      pz      :     1.756338  p :     5.214192
      px      :     1.597167
      py      :     1.860688
      dz2     :     0.002560  d :     0.017348
      dxz     :     0.006105
      dyz     :     0.001630
      dx2y2   :     0.003935
      dxy     :     0.003118
      f0      :     0.000085  f :     0.000768
      f+1     :     0.000159
      f-1     :     0.000019
      f+2     :     0.000177
      f-2     :     0.000135
      f+3     :     0.000098
      f-3     :     0.000095

  9 F s       :     3.923157  s :     3.923157
      pz      :     1.501736  p :     5.213404
      px      :     1.880883
      py      :     1.830785
      dz2     :     0.007137  d :     0.017501
      dxz     :     0.003690
      dyz     :     0.005222
      dx2y2   :     0.000849
      dxy     :     0.000603
      f0      :     0.000236  f :     0.000782
      f+1     :     0.000144
      f-1     :     0.000258
      f+2     :     0.000076
      f-2     :     0.000056
      f+3     :     0.000005
      f-3     :     0.000007

 10 F s       :     3.923003  s :     3.923003
      pz      :     1.888893  p :     5.213623
      px      :     1.884841
      py      :     1.439888
      dz2     :     0.002450  d :     0.017376
      dxz     :     0.000196
      dyz     :     0.003691
      dx2y2   :     0.007065
      dxy     :     0.003974
      f0      :     0.000067  f :     0.000778
      f+1     :     0.000012
      f-1     :     0.000154
      f+2     :     0.000110
      f-2     :     0.000012
      f+3     :     0.000173
      f-3     :     0.000249

 11 F s       :     3.928091  s :     3.928091
      pz      :     1.706703  p :     5.218384
      px      :     1.630291
      py      :     1.881390
      dz2     :     0.002883  d :     0.017213
      dxz     :     0.006556
      dyz     :     0.001963
      dx2y2   :     0.003352
      dxy     :     0.002460
      f0      :     0.000076  f :     0.000722
      f+1     :     0.000192
      f-1     :     0.000023
      f+2     :     0.000190
      f-2     :     0.000115
      f+3     :     0.000072
      f-3     :     0.000054

 12 F s       :     3.926477  s :     3.926477
      pz      :     1.586259  p :     5.217838
      px      :     1.873090
      py      :     1.758489
      dz2     :     0.004935  d :     0.017288
      dxz     :     0.003041
      dyz     :     0.006212
      dx2y2   :     0.001768
      dxy     :     0.001331
      f0      :     0.000125  f :     0.000734
      f+1     :     0.000087
      f-1     :     0.000250
      f+2     :     0.000132
      f-2     :     0.000101
      f+3     :     0.000017
      f-3     :     0.000022

 13 F s       :     3.930289  s :     3.930289
      pz      :     1.577963  p :     5.224423
      px      :     1.752156
      py      :     1.894304
      dz2     :     0.005030  d :     0.017178
      dxz     :     0.006259
      dyz     :     0.002899
      dx2y2   :     0.001662
      dxy     :     0.001328
      f0      :     0.000132  f :     0.000718
      f+1     :     0.000260
      f-1     :     0.000074
      f+2     :     0.000126
      f-2     :     0.000090
      f+3     :     0.000020
      f-3     :     0.000015

 14 F s       :     3.931775  s :     3.931775
      pz      :     1.656461  p :     5.223021
      px      :     1.792227
      py      :     1.774334
      dz2     :     0.003530  d :     0.017241
      dxz     :     0.004274
      dyz     :     0.004739
      dx2y2   :     0.002185
      dxy     :     0.002514
      f0      :     0.000086  f :     0.000716
      f+1     :     0.000119
      f-1     :     0.000144
      f+2     :     0.000112
      f-2     :     0.000173
      f+3     :     0.000045
      f-3     :     0.000036

 15 F s       :     3.928726  s :     3.928726
      pz      :     1.549150  p :     5.222930
      px      :     1.779619
      py      :     1.894161
      dz2     :     0.005691  d :     0.016894
      dxz     :     0.005839
      dyz     :     0.003039
      dx2y2   :     0.001210
      dxy     :     0.001115
      f0      :     0.000160  f :     0.000713
      f+1     :     0.000257
      f-1     :     0.000093
      f+2     :     0.000099
      f-2     :     0.000080
      f+3     :     0.000011
      f-3     :     0.000013

 16 F s       :     3.928313  s :     3.928313
      pz      :     1.743555  p :     5.229462
      px      :     1.767951
      py      :     1.717956
      dz2     :     0.002401  d :     0.016444
      dxz     :     0.003487
      dyz     :     0.004265
      dx2y2   :     0.002698
      dxy     :     0.003591
      f0      :     0.000073  f :     0.000687
      f+1     :     0.000068
      f-1     :     0.000104
      f+2     :     0.000096
      f-2     :     0.000195
      f+3     :     0.000086
      f-3     :     0.000067

 17 F s       :     3.930370  s :     3.930370
      pz      :     1.452690  p :     5.202896
      px      :     1.845341
      py      :     1.904864
      dz2     :     0.008871  d :     0.018555
      dxz     :     0.005156
      dyz     :     0.004295
      dx2y2   :     0.000119
      dxy     :     0.000113
      f0      :     0.000368  f :     0.000770
      f+1     :     0.000212
      f-1     :     0.000180
      f+2     :     0.000005
      f-2     :     0.000004
      f+3     :     0.000001
      f-3     :     0.000001

 18 F s       :     3.930290  s :     3.930290
      pz      :     1.457320  p :     5.244809
      px      :     1.887755
      py      :     1.899734
      dz2     :     0.008234  d :     0.016443
      dxz     :     0.003781
      dyz     :     0.003836
      dx2y2   :     0.000240
      dxy     :     0.000352
      f0      :     0.000313  f :     0.000685
      f+1     :     0.000171
      f-1     :     0.000162
      f+2     :     0.000015
      f-2     :     0.000020
      f+3     :     0.000002
      f-3     :     0.000002

 19 F s       :     3.926472  s :     3.926472
      pz      :     1.885956  p :     5.241079
      px      :     1.582142
      py      :     1.772980
      dz2     :     0.002259  d :     0.015998
      dxz     :     0.002421
      dyz     :     0.001127
      dx2y2   :     0.004357
      dxy     :     0.005833
      f0      :     0.000056  f :     0.000676
      f+1     :     0.000097
      f-1     :     0.000044
      f+2     :     0.000024
      f-2     :     0.000087
      f+3     :     0.000149
      f-3     :     0.000218

 20 F s       :     3.923035  s :     3.923035
      pz      :     1.513479  p :     5.269681
      px      :     1.878223
      py      :     1.877978
      dz2     :     0.006506  d :     0.015838
      dxz     :     0.003683
      dyz     :     0.004332
      dx2y2   :     0.000624
      dxy     :     0.000694
      f0      :     0.000210  f :     0.000673
      f+1     :     0.000156
      f-1     :     0.000190
      f+2     :     0.000048
      f-2     :     0.000060
      f+3     :     0.000004
      f-3     :     0.000005

 21 F s       :     3.923560  s :     3.923560
      pz      :     1.894601  p :     5.267622
      px      :     1.644883
      py      :     1.728138
      dz2     :     0.002151  d :     0.015917
      dxz     :     0.002169
      dyz     :     0.001314
      dx2y2   :     0.003968
      dxy     :     0.006315
      f0      :     0.000055  f :     0.000673
      f+1     :     0.000085
      f-1     :     0.000058
      f+2     :     0.000013
      f-2     :     0.000092
      f+3     :     0.000168
      f-3     :     0.000203

 22 O s       :     3.807432  s :     3.807432
      pz      :     1.489263  p :     4.651107
      px      :     1.416597
      py      :     1.745247
      dz2     :     0.006268  d :     0.029618
      dxz     :     0.008576
      dyz     :     0.002641
      dx2y2   :     0.006412
      dxy     :     0.005722
      f0      :     0.000158  f :     0.001886
      f+1     :     0.000504
      f-1     :     0.000029
      f+2     :     0.000374
      f-2     :     0.000292
      f+3     :     0.000262
      f-3     :     0.000266

 23 O s       :     3.834694  s :     3.834694
      pz      :     1.652164  p :     4.689892
      px      :     1.497229
      py      :     1.540499
      dz2     :     0.002846  d :     0.026996
      dxz     :     0.003689
      dyz     :     0.004722
      dx2y2   :     0.007784
      dxy     :     0.007956
      f0      :     0.000204  f :     0.001804
      f+1     :     0.000139
      f-1     :     0.000157
      f+2     :     0.000033
      f-2     :     0.000348
      f+3     :     0.000441
      f-3     :     0.000483

 24 O s       :     3.808125  s :     3.808125
      pz      :     1.656789  p :     4.918919
      px      :     1.664699
      py      :     1.597432
      dz2     :     0.000832  d :     0.019514
      dxz     :     0.006830
      dyz     :     0.002285
      dx2y2   :     0.003760
      dxy     :     0.005806
      f0      :     0.000239  f :     0.001215
      f+1     :     0.000046
      f-1     :     0.000144
      f+2     :     0.000245
      f-2     :     0.000416
      f+3     :     0.000100
      f-3     :     0.000026

 25 H s       :     0.616468  s :     0.616468
      pz      :     0.016335  p :     0.047900
      px      :     0.013843
      py      :     0.017722

 26 H s       :     0.584382  s :     0.584382
      pz      :     0.019129  p :     0.053841
      px      :     0.021214
      py      :     0.013497


SPIN
  0 C s       :     0.001009  s :     0.001009
      pz      :     0.000201  p :     0.001419
      px      :     0.001478
      py      :    -0.000260
      dz2     :     0.000001  d :     0.000262
      dxz     :     0.000013
      dyz     :     0.000015
      dx2y2   :     0.000246
      dxy     :    -0.000013
      f0      :    -0.000002  f :     0.000019
      f+1     :    -0.000001
      f-1     :     0.000000
      f+2     :     0.000004
      f-2     :     0.000002
      f+3     :     0.000017
      f-3     :    -0.000001

  1 C s       :    -0.001247  s :    -0.001247
      pz      :     0.000490  p :     0.005601
      px      :     0.000961
      py      :     0.004150
      dz2     :     0.000037  d :     0.000849
      dxz     :     0.000147
      dyz     :     0.000107
      dx2y2   :     0.000026
      dxy     :     0.000532
      f0      :     0.000002  f :     0.000033
      f+1     :     0.000003
      f-1     :    -0.000003
      f+2     :    -0.000003
      f-2     :     0.000004
      f+3     :     0.000026
      f-3     :     0.000001

  2 C s       :    -0.000959  s :    -0.000959
      pz      :     0.001495  p :     0.029581
      px      :     0.019787
      py      :     0.008299
      dz2     :     0.000338  d :     0.004406
      dxz     :     0.000121
      dyz     :     0.000589
      dx2y2   :     0.002557
      dxy     :     0.000801
      f0      :    -0.000003  f :    -0.000035
      f+1     :    -0.000019
      f-1     :     0.000006
      f+2     :    -0.000001
      f-2     :    -0.000013
      f+3     :     0.000009
      f-3     :    -0.000015

  3 C s       :    -0.009063  s :    -0.009063
      pz      :    -0.009991  p :    -0.040372
      px      :    -0.007311
      py      :    -0.023070
      dz2     :     0.000324  d :     0.021484
      dxz     :     0.003202
      dyz     :     0.000799
      dx2y2   :    -0.000886
      dxy     :     0.018046
      f0      :     0.000044  f :     0.001341
      f+1     :     0.000030
      f-1     :     0.000054
      f+2     :     0.000034
      f-2     :     0.000557
      f+3     :     0.000563
      f-3     :     0.000059

  4 C s       :     0.062420  s :     0.062420
      pz      :    -0.002803  p :     0.783448
      px      :     0.752853
      py      :     0.033398
      dz2     :    -0.001500  d :     0.002364
      dxz     :     0.002877
      dyz     :     0.002243
      dx2y2   :    -0.003160
      dxy     :     0.001904
      f0      :    -0.000568  f :    -0.003010
      f+1     :    -0.000731
      f-1     :    -0.000061
      f+2     :    -0.000517
      f-2     :     0.000035
      f+3     :    -0.000294
      f-3     :    -0.000875

  5 C s       :    -0.013676  s :    -0.013676
      pz      :    -0.007264  p :    -0.018682
      px      :     0.007916
      py      :    -0.019334
      dz2     :     0.000247  d :     0.014058
      dxz     :     0.000286
      dyz     :    -0.000571
      dx2y2   :    -0.001180
      dxy     :     0.015276
      f0      :     0.000026  f :     0.001482
      f+1     :    -0.000007
      f-1     :     0.000035
      f+2     :     0.000032
      f-2     :     0.000523
      f+3     :     0.000688
      f-3     :     0.000185

  6 C s       :    -0.000841  s :    -0.000841
      pz      :     0.000472  p :     0.012264
      px      :     0.013154
      py      :    -0.001363
      dz2     :    -0.000120  d :     0.000095
      dxz     :    -0.000044
      dyz     :    -0.000045
      dx2y2   :     0.000241
      dxy     :     0.000063
      f0      :    -0.000010  f :     0.000016
      f+1     :    -0.000010
      f-1     :    -0.000004
      f+2     :     0.000022
      f-2     :    -0.000010
      f+3     :     0.000020
      f-3     :     0.000008

  7 C s       :    -0.000969  s :    -0.000969
      pz      :     0.000428  p :     0.000432
      px      :    -0.000207
      py      :     0.000211
      dz2     :     0.000156  d :     0.000130
      dxz     :     0.000043
      dyz     :     0.000119
      dx2y2   :     0.000006
      dxy     :    -0.000194
      f0      :    -0.000002  f :     0.000042
[...]
 29:    280.85   0.000454    2.29  0.000504  ( 0.008783 -0.018739  0.008717)
 30:    288.54   0.001051    5.31  0.001137  (-0.005310 -0.031242 -0.011522)
 31:    314.18   0.000165    0.83  0.000163  ( 0.006328 -0.009916 -0.005011)
 32:    330.10   0.000198    1.00  0.000187  (-0.004034  0.011875  0.005438)
 33:    346.86   0.000152    0.77  0.000137  ( 0.004946  0.001858  0.010437)
 34:    360.34   0.000015    0.08  0.000013  (-0.003163  0.001274  0.001168)
 35:    366.11   0.000224    1.13  0.000191  ( 0.000960 -0.002800  0.013505)
 36:    374.02   0.003070   15.52  0.002562  ( 0.006806  0.043974  0.024121)
 37:    378.77   0.000025    0.13  0.000021  ( 0.002170  0.002936 -0.002715)
 38:    394.74   0.014716   74.37  0.011634  (-0.028471 -0.070017 -0.076945)
 39:    404.84   0.005046   25.50  0.003890  ( 0.025294  0.042600  0.037883)
 40:    441.02   0.000314    1.59  0.000222  (-0.009044  0.002843  0.011496)
 41:    457.34   0.001909    9.65  0.001302  ( 0.014605 -0.016752 -0.028433)
 42:    515.61   0.000247    1.25  0.000149  (-0.010392 -0.001742  0.006186)
 43:    532.43   0.007983   40.34  0.004679  ( 0.011534 -0.066634 -0.010291)
 44:    555.10   0.000845    4.27  0.000475  (-0.005273 -0.018582  0.010106)
 45:    560.29   0.004201   21.23  0.002340  (-0.011251  0.032779  0.033743)
 46:    578.64   0.004005   20.24  0.002160  ( 0.042718 -0.017326  0.005922)
 47:    591.81   0.006689   33.80  0.003527  (-0.034667 -0.047998 -0.004634)
 48:    607.19   0.002186   11.05  0.001124  ( 0.011768 -0.027071 -0.015882)
 49:    633.67   0.008009   40.48  0.003944  ( 0.001674 -0.062204 -0.008499)
 50:    658.73   0.008620   43.56  0.004084  ( 0.018192 -0.061091  0.004521)
 51:    697.91   0.016031   81.01  0.007168  ( 0.001199 -0.083553 -0.013621)
 52:    707.23   0.007504   37.92  0.003311  ( 0.053219  0.012171  0.018186)
 53:    726.21   0.031342  158.39  0.013468  (-0.051759 -0.090002  0.051854)
 54:    737.97   0.014861   75.10  0.006284  (-0.055097 -0.031819 -0.047288)
 55:    787.69   0.006633   33.52  0.002628  ( 0.018391  0.047761  0.002926)
 56:    812.34   0.023859  120.57  0.009165  (-0.019739  0.063141 -0.069203)
 57:    880.85   0.009431   47.66  0.003341  (-0.047760 -0.026684 -0.018660)
 58:   1009.11   0.003927   19.84  0.001214  (-0.019137  0.013007  0.026055)
 59:   1065.32   0.033856  171.10  0.009918  ( 0.041652  0.090309 -0.005192)
 60:   1111.38   0.049536  250.33  0.013909  (-0.101090 -0.043329 -0.042574)
 61:   1117.47   0.034900  176.37  0.009746  ( 0.066528  0.060609  0.040578)
 62:   1126.51   0.028197  142.50  0.007811  (-0.047178  0.020114  0.071977)
 63:   1141.89   0.090500  457.35  0.024732  (-0.142222  0.053188 -0.040944)
 64:   1154.49   0.042399  214.27  0.011461  ( 0.026263  0.015354 -0.102641)
 65:   1163.68   0.001991   10.06  0.000534  (-0.016614 -0.003150 -0.015747)
 66:   1169.57   0.051078  258.13  0.013629  (-0.011025 -0.013777  0.115401)
 67:   1180.90   0.071827  362.98  0.018981  (-0.012889  0.074008 -0.115488)
 68:   1191.24   0.121033  611.65  0.031706  (-0.103890  0.054527  0.133940)
 69:   1209.29   0.075315  380.61  0.019435  (-0.022898 -0.071386  0.117538)
 70:   1213.61   0.012186   61.58  0.003133  (-0.000491 -0.013102 -0.054420)
 71:   1236.10   0.021477  108.54  0.005422  (-0.001817  0.072533 -0.012556)
 72:   1285.30   0.004385   22.16  0.001065  (-0.007556  0.030532 -0.008678)
 73:   1342.66   0.013271   67.07  0.003085  ( 0.028944 -0.041388  0.023105)
 74:   1351.13   0.026410  133.46  0.006100  (-0.030982 -0.044654 -0.056088)
 75:   1371.84   0.072647  367.13  0.016526  (-0.005935  0.122365 -0.038951)
 76:   1415.03   0.010880   54.98  0.002399  ( 0.008645  0.045724  0.015298)
 77:   1665.39   0.026264  132.73  0.004921  (-0.066932  0.016455 -0.013068)
 78:   1749.93   0.185683  938.37  0.033113  (-0.147849 -0.077693 -0.072230)
 79:   3478.34   0.216841  1095.83  0.019454  (-0.097856 -0.064549 -0.075576)
 80:   3856.13   0.016290   82.32  0.001318  ( 0.003864  0.027839  0.022986)

* The epsilon (eps) is given for a Dirac delta lineshape.
** The dipole moment derivative (T) already includes vibrational overlap.

The first frequency considered to be a vibration is 6
The total number of vibrations considered is 75


--------------------------
THERMOCHEMISTRY AT 298.15K
--------------------------

Temperature         ...   298.15 K
Pressure            ...     1.00 atm
Total Mass          ...   412.07 AMU
Quasi RRHO          ...     True
Cut-Off Frequency   ...     1.00 cm^-1

Throughout the following assumptions are being made:
  (1) The electronic state is orbitally nondegenerate
      but the spin degeneracy is treated
  (2) There are no thermally accessible electronically excited states
  (3) Hindered rotations indicated by low frequency modes are not
      treated as such but are treated as vibrations and this may
      cause some error
  (4) All equations used are the standard statistical mechanics
      equations for an ideal gas
  (5) All vibrations are strictly harmonic

freq.      16.08  E(vib)   ...       0.57 
freq.      23.26  E(vib)   ...       0.56 
freq.      27.76  E(vib)   ...       0.55 
freq.      36.50  E(vib)   ...       0.54 
freq.      38.89  E(vib)   ...       0.54 
freq.      52.64  E(vib)   ...       0.52 
freq.      54.71  E(vib)   ...       0.52 
freq.      59.71  E(vib)   ...       0.51 
freq.      69.68  E(vib)   ...       0.50 
freq.      87.19  E(vib)   ...       0.48 
freq.      89.50  E(vib)   ...       0.47 
freq.     109.09  E(vib)   ...       0.45 
freq.     123.32  E(vib)   ...       0.43 
freq.     168.10  E(vib)   ...       0.38 
freq.     171.76  E(vib)   ...       0.38 
freq.     187.01  E(vib)   ...       0.36 
freq.     190.57  E(vib)   ...       0.36 
freq.     203.33  E(vib)   ...       0.35 
freq.     217.37  E(vib)   ...       0.34 
freq.     229.93  E(vib)   ...       0.32 
freq.     241.94  E(vib)   ...       0.31 
freq.     243.07  E(vib)   ...       0.31 
freq.     264.64  E(vib)   ...       0.29 
freq.     280.85  E(vib)   ...       0.28 
freq.     288.54  E(vib)   ...       0.27 
freq.     314.18  E(vib)   ...       0.25 
freq.     330.10  E(vib)   ...       0.24 
freq.     346.86  E(vib)   ...       0.23 
freq.     360.34  E(vib)   ...       0.22 
freq.     366.11  E(vib)   ...       0.22 
freq.     374.02  E(vib)   ...       0.21 
freq.     378.77  E(vib)   ...       0.21 
freq.     394.74  E(vib)   ...       0.20 
freq.     404.84  E(vib)   ...       0.19 
freq.     441.02  E(vib)   ...       0.17 
freq.     457.34  E(vib)   ...       0.16 
freq.     515.61  E(vib)   ...       0.13 
freq.     532.43  E(vib)   ...       0.13 
freq.     555.10  E(vib)   ...       0.12 
freq.     560.29  E(vib)   ...       0.11 
freq.     578.64  E(vib)   ...       0.11 
freq.     591.81  E(vib)   ...       0.10 
freq.     607.19  E(vib)   ...       0.10 
freq.     633.67  E(vib)   ...       0.09 
freq.     658.73  E(vib)   ...       0.08 
freq.     697.91  E(vib)   ...       0.07 
freq.     707.23  E(vib)   ...       0.07 
freq.     726.21  E(vib)   ...       0.06 
freq.     737.97  E(vib)   ...       0.06 
freq.     787.69  E(vib)   ...       0.05 
freq.     812.34  E(vib)   ...       0.05 
freq.     880.85  E(vib)   ...       0.04 
freq.    1009.11  E(vib)   ...       0.02 
freq.    1065.32  E(vib)   ...       0.02 
freq.    1111.38  E(vib)   ...       0.01 
freq.    1117.47  E(vib)   ...       0.01 
freq.    1126.51  E(vib)   ...       0.01 
freq.    1141.89  E(vib)   ...       0.01 
freq.    1154.49  E(vib)   ...       0.01 
freq.    1163.68  E(vib)   ...       0.01 
freq.    1169.57  E(vib)   ...       0.01 
freq.    1180.90  E(vib)   ...       0.01 
freq.    1191.24  E(vib)   ...       0.01 
freq.    1209.29  E(vib)   ...       0.01 
freq.    1213.61  E(vib)   ...       0.01 
freq.    1236.10  E(vib)   ...       0.01 
freq.    1285.30  E(vib)   ...       0.01 
freq.    1342.66  E(vib)   ...       0.01 
freq.    1351.13  E(vib)   ...       0.01 
freq.    1371.84  E(vib)   ...       0.01 
freq.    1415.03  E(vib)   ...       0.00 
freq.    1665.39  E(vib)   ...       0.00 
freq.    1749.93  E(vib)   ...       0.00 
freq.    3478.34  E(vib)   ...       0.00 
freq.    3856.13  E(vib)   ...       0.00 

------------
INNER ENERGY
------------

The inner energy is: U= E(el) + E(ZPE) + E(vib) + E(rot) + E(trans)
    E(el)   - is the total energy from the electronic structure calculation
              = E(kin-el) + E(nuc-el) + E(el-el) + E(nuc-nuc)
    E(ZPE)  - the the zero temperature vibrational energy from the frequency calculation
    E(vib)  - the the finite temperature correction to E(ZPE) due to population
              of excited vibrational states
    E(rot)  - is the rotational thermal energy
    E(trans)- is the translational thermal energy

Summary of contributions to the inner energy U:
Electronic energy                ...  -1929.55177866 Eh
Zero point energy                ...      0.11808602 Eh      74.10 kcal/mol
Thermal vibrational correction   ...      0.02310464 Eh      14.50 kcal/mol
Thermal rotational correction    ...      0.00141627 Eh       0.89 kcal/mol
Thermal translational correction ...      0.00141627 Eh       0.89 kcal/mol
-----------------------------------------------------------------------
Total thermal energy                  -1929.40775546 Eh


Summary of corrections to the electronic energy:
(perhaps to be used in another calculation)
Total thermal correction                  0.02593718 Eh      16.28 kcal/mol
Non-thermal (ZPE) correction              0.11808602 Eh      74.10 kcal/mol
-----------------------------------------------------------------------
Total correction                          0.14402320 Eh      90.38 kcal/mol


--------
ENTHALPY
--------

The enthalpy is H = U + kB*T
                kB is Boltzmann's constant
Total thermal energy              ...  -1929.40775546 Eh 
Thermal Enthalpy correction       ...      0.00094421 Eh       0.59 kcal/mol
-----------------------------------------------------------------------
Total Enthalpy                    ...  -1929.40681125 Eh


Note: Only C1 symmetry has been detected, increase convergence thresholds 
      if your molecule has a higher symmetry. Symmetry factor of 1.0 is   
      used for the rotational entropy correction. 
 

Note: Rotational entropy computed according to Herzberg 
Infrared and Raman Spectra, Chapter V,1, Van Nostrand Reinhold, 1945 
Point Group:  C1, Symmetry Number:   1  
Rotational constants in cm-1:     0.016166     0.004021     0.003745 

Vibrational entropy computed according to the QRRHO of S. Grimme
Chem.Eur.J. 2012 18 9955 using a reference frequency of 100.0 cm-1


-------
ENTROPY
-------

The entropy contributions are T*S = T*(S(el)+S(vib)+S(rot)+S(trans))
     S(el)   - electronic entropy
     S(vib)  - vibrational entropy
     S(rot)  - rotational entropy
     S(trans)- translational entropy
The entropies will be listed as multiplied by the temperature to get
units of energy

Electronic entropy                ...      0.00065446 Eh      0.41 kcal/mol
Vibrational entropy               ...      0.04253471 Eh     26.69 kcal/mol
Rotational entropy                ...      0.01670000 Eh     10.48 kcal/mol
Translational entropy             ...      0.02087673 Eh     13.10 kcal/mol
-----------------------------------------------------------------------
Final entropy term                ...      0.08076589 Eh     50.68 kcal/mol

In case the symmetry of your molecule has not been determined correctly
or in case you have a reason to use a different symmetry number we print 
out the resulting rotational entropy values for sn=1,12:

 non-linear molecules -----------------------------------
|  sn= 1 | S(rot)=       0.01670000 Eh     10.48 kcal/mol|
|  sn= 2 | S(rot)=       0.01604555 Eh     10.07 kcal/mol|
|  sn= 3 | S(rot)=       0.01566271 Eh      9.83 kcal/mol|
|  sn= 4 | S(rot)=       0.01539109 Eh      9.66 kcal/mol|
|  sn= 5 | S(rot)=       0.01518040 Eh      9.53 kcal/mol|
|  sn= 6 | S(rot)=       0.01500826 Eh      9.42 kcal/mol|
|  sn= 7 | S(rot)=       0.01486271 Eh      9.33 kcal/mol|
|  sn= 8 | S(rot)=       0.01473663 Eh      9.25 kcal/mol|
|  sn= 9 | S(rot)=       0.01462543 Eh      9.18 kcal/mol|
|  sn=10 | S(rot)=       0.01452595 Eh      9.12 kcal/mol|
|  sn=11 | S(rot)=       0.01443596 Eh      9.06 kcal/mol|
|  sn=12 | S(rot)=       0.01435380 Eh      9.01 kcal/mol|
 linear molecules ---------------------------------------
|  Dinfh | S(rot)=       0.01060137 Eh      6.65 kcal/mol|
|  Cinfv | S(rot)=       0.01125583 Eh      7.06 kcal/mol|
 --------------------------------------------------------


-------------------
GIBBS FREE ENERGY
-------------------

The Gibbs free energy is G = H - T*S

Total enthalpy                    ...  -1929.40681125 Eh 
Total entropy correction          ...     -0.08076589 Eh    -50.68 kcal/mol
-----------------------------------------------------------------------
Final Gibbs free energy         ...  -1929.48757714 Eh

For completeness - the Gibbs free energy minus the electronic energy
G-E(el)                           ...      0.06420152 Eh     40.29 kcal/mol


Maximum memory used throughout the entire PROP-calculation: 611.8 MB

--------------------------------
SUGGESTED CITATIONS FOR THIS RUN
--------------------------------

Below you find a list of papers that are relevant to this ORCA run
We neither can nor want to force you to cite these papers, but we appreciate if you do
You receive ORCA, which is the product of decades of hard work by many enthusiastic individuals, for free
The only thing we kindly ask in return is that you cite our papers,
We deeply appreciate it, if you show your appreciation for ORCA by not just citing the generic ORCA reference.

Please note that relegating all ORCA citations to the supporting information does *not* help us.
SI sections are not indexed - citations you put there will not count into any citation statistics
But we need these citations in order to attract the funding resources that allow us to do what we are doing

Therefore, if you are a happy ORCA user, please consider citing a few of the papers listed below in the main body of your paper

In addition to the list printed below, the program has created the file rf_mecn_1H2O_freq_r2s_con_02.bibtex that contains the list in bibtex format
You can import this file easily into all common literature databanks and citation aid programs


List of essential papers. We consider these as the minimum necessary citations

  1. Neese,F.
     Software update: the ORCA program system, version 5.0
     WIRES Comput. Molec. Sci., 2022 12(1)e1606
     doi.org/10.1002/wcms.1606

List of papers to cite with high priority. The work reported in these papers was absolutely
necessary for this run to complete.
Our perspective: the developers of density functionals and basis sets usually get cited in chemistry papers
Good! But without the algorithms to do something with them, the functionals or basis sets would not do anything.
Hence, in our opinion, the algorithm design and method developments papers are equally worthy of getting cited

  1. Neese,F.
     An improvement of the resolution of the identity approximation for the formation of the Coulomb matrix
     J. Comp. Chem., 2003 24(14)1740-1747
     doi.org/10.1002/jcc.10318
  2. Neese,F.; Wennmohs,F.; Hansen,A.; Becker,U.
     Efficient, approximate and parallel Hartree-Fock and hybrid DFT calculations. A 'chain-of-spheres' algorithm for the Hartree-Fock exchange
     Chem. Phys., 2009 356(1-3)98-109
     doi.org/10.1016/j.chemphys.2008.10.036
  3. Bykov,D.; Petrenko,T.; Izsak,R.; Kossmann,S.; Becker,U.; Valeev,E.; Neese,F.
     Efficient implementation of the analytic second derivatives of Hartree-Fock and hybrid DFT energies: a detailed analysis of different approximations
     Molec. Phys., 2015 113 1961-1977
     doi.org/10.1080/00268976.2015.1025114
  4. Garcia-Rates,M.; Neese,F.
     Efficient implementation of the analytical second derivatives of hartree-fock and hybrid DFT energies within the framework of the conductor-like polarizable continuum model
     J. Comput. Chem., 2019 40 1816-1828
     doi.org/10.1002/jcc.25833
  5. Garcia-Rates,M.; Neese,F.
     Effect of the Solute Cavity on the Solvation Energy and its Derivatives within the Framework of the Gaussian Charge Scheme
     J. Comput. Chem., 2020 41 922-939
     doi.org/10.1002/jcc.26139
  6. Helmich-Paris,B.; de Souza,B.; Neese,F.; Izsák,R.
     An improved chain of spheres for exchange algorithm
     J. Chem. Phys., 2021 155 104109
     doi.org/doi: 10.1063/5.0058766.
  7. Neese,F.
     The SHARK Integral Generation and Digestion System
     J. Comp. Chem., 2022  1-16
     doi.org/10.1002/jcc.26942
  8. Lehtola,S.; Steigemann,C.; Oliveira,M.; Marques,M.
     Recent developments in Libxc - A comprehensive library of functionals for density functional theory
     Software X, 2018 7 
     doi.org/10.1016/j.softx.2017.11.002
  9. Grimme,S.; Antony,J.; Ehrlich,S.; Krieg,H.
     A consistent and accurate ab initio parametrization of density functional dispersion correction (DFT-D) for the 94 elements H-Pu
     J. Chem. Phys., 2010 132 154104
     doi.org/10.1063/1.3382344
 10. Grimme,S.; Ehrlich,S.; Goerigk,L.
     Effect of the damping function in dispersion corrected density functional theory
     J. Comput. Chem., 2011 32(7)1456-1465
     doi.org/10.1002/jcc.21759
 11. Bursch,M.; Neugebauer,H.; Ehlert,S.; Grimme,S.
     Dispersion corrected r2SCAN based global hybrid functionals: r2SCANh, r2SCAN0, and r2SCAN50
     J. Phys. Chem., 2022 156(13)134105
     doi.org/10.1063/5.0086040

List of suggested additional citations. These are papers that are important in the 'surrounding' of 
of this run, or papers that preceded the highly important papers. If you like your results we are grateful for a citation.

  1. Izsak,R.; Neese,F.
     An overlap fitted chain of spheres exchange method
     J. Chem. Phys., 2011 135 144105
     doi.org/10.1063/1.3646921
  2. Izsak,R.; Hansen,A.; Neese,F.
     The resolution of identity and chain of spheres approximations for the LPNO-CCSD singles Fock term
     Molec. Phys., 2012 110 2413-2417
     doi.org/10.1080/00268976.2012.687466
  3. Neese,F.
     The ORCA program system
     WIRES Comput. Molec. Sci., 2012 2(1)73-78
     doi.org/10.1002/wcms.81
  4. Izsak,R.; Neese,F.; Klopper,W.
     Robust fitting techniques in the chain of spheres approximation to the Fock exchange: The role of the complementary space
     J. Chem. Phys., 2013 139 
     doi.org/10.1063/1.4819264
  5. Neese,F.
     Software update: the ORCA program system, version 4.0
     WIRES Comput. Molec. Sci., 2018 8(1)1-6
     doi.org/10.1002/wcms.1327
  6. Neese,F.; Wennmohs,F.; Becker,U.; Riplinger,C.
     The ORCA quantum chemistry program package
     J. Chem. Phys., 2020 152 Art. No. L224108
     doi.org/10.1063/5.0004608
  7. Wittmann,L.; Neugebauer,H.; Grimme,S.; Bursch,M.
     Dispersion-corrected r2SCAN based double-hybrid functionals
     J. Chem. Phys., 2023 159(22)224103
     doi.org/10.1063/5.0174988

List of optional additional citations

  1. Neese,F.
     Approximate second-order SCF convergence for spin unrestricted wavefunctions
     Chem. Phys. Lett., 2000 325(1-3)93-98
     doi.org/10.1016/s0009-2614(00)00662-x

Timings for individual modules:

Sum of individual times          ...     1262.321 sec (=  21.039 min)
Startup calculation              ...        7.672 sec (=   0.128 min)   0.6 %
SCF iterations                   ...       95.243 sec (=   1.587 min)   7.5 %
Property integrals               ...      358.230 sec (=   5.970 min)  28.4 %
SCF Response                     ...      581.678 sec (=   9.695 min)  46.1 %
Property calculations            ...      219.497 sec (=   3.658 min)  17.4 %
                             ****ORCA TERMINATED NORMALLY****
TOTAL RUN TIME: 0 days 0 hours 21 minutes 4 seconds 482 msec
