
                                 *****************
                                 * O   R   C   A *
                                 *****************

                                            #,                                       
                                            ###                                      
                                            ####                                     
                                            #####                                    
                                            ######                                   
                                           ########,                                 
                                     ,,################,,,,,                         
                               ,,#################################,,                 
                          ,,##########################################,,             
                       ,#########################################, ''#####,          
                    ,#############################################,,   '####,        
                  ,##################################################,,,,####,       
                ,###########''''           ''''###############################       
              ,#####''   ,,,,##########,,,,          '''####'''          '####       
            ,##' ,,,,###########################,,,                        '##       
           ' ,,###''''                  '''############,,,                           
         ,,##''                                '''############,,,,        ,,,,,,###''
      ,#''                                            '''#######################'''  
     '                                                          ''''####''''         
             ,#######,   #######,   ,#######,      ##                                
            ,#'     '#,  ##    ##  ,#'     '#,    #''#        ,####,   ,####,        
            ##       ##  ##   ,#'  ##            #'  '#       #'       #'  '#        
            ##       ##  #######   ##           ,######,      #####,   #    #        
            '#,     ,#'  ##    ##  '#,     ,#' ,#      #,     #,   #   #,  ,#        
             '#######'   ##     ##  '#######'  #'      '#     '####' # '####'        



                #########################################################
                #                        -***-                          #
                #          Department of theory and spectroscopy        #
                #                                                       #
                #                      Frank Neese                      #
                #                                                       #
                #     Directorship, Architecture, Infrastructure        #
                #                    SHARK, DRIVERS                     #
                #        Core code/Algorithms in most modules           #
                #                                                       #
                #        Max Planck Institute fuer Kohlenforschung      #
                #                Kaiser Wilhelm Platz 1                 #
                #                 D-45470 Muelheim/Ruhr                 #
                #                      Germany                          #
                #                                                       #
                #                  All rights reserved                  #
                #                        -***-                          #
                #########################################################


                         Program Version 6.0.1  -  RELEASE   -


 With contributions from (in alphabetic order):
[Max-Planck-Institut fuer Kohlenforschung]                               
  Daniel Aravena         : Magnetic Suceptibility                        
  Michael Atanasov       : Ab Initio Ligand Field Theory (pilot matlab implementation)
  Alexander A. Auer      : GIAO ZORA, VPT2 properties, NMR spectrum      
  Ute Becker             : All parallelization in ORCA, NUMFREQ, NUMCALC 
  Giovanni Bistoni       : ED, misc. LED, open-shell LED, HFLD           
  Martin Brehm           : Molecular dynamics                            
  Dmytro Bykov           : pre 5.0 version of the SCF Hessian            
  Marcos Casanova-Páez   : Triplet and SCS-CIS(D). UHF-(DLPNO)-IP/EA/STEOM-CCSD. UHF-CVS-IP/STEOM-CCSD   
  Vijay G. Chilkuri      : MRCI spin determinant printing, contributions to CSF-ICE 
  Pauline Colinet        : FMM embedding                                 
  Dipayan Datta          : RHF DLPNO-CCSD density                        
  Achintya Kumar Dutta   : EOM-CC, STEOM-CC                              
  Nicolas Foglia         : Exact transition moments, OPA infrastructure, MCD improvements    
  Dmitry Ganyushin       : Spin-Orbit,Spin-Spin,Magnetic field MRCI      
  Miquel Garcia-Rates    : C-PCM and meta-GGA Hessian, CCSD/C-PCM, Gaussian charge scheme 
  Tiago L. C. Gouveia    : GS-ROHF, GS-ROCIS                             
  Yang Guo               : DLPNO-NEVPT2, F12-NEVPT2, CIM, IAO-localization        
  Andreas Hansen         : Spin unrestricted coupled pair/coupled cluster methods 
  Ingolf Harden          : AUTO-CI MPn and infrastructure                
  Benjamin Helmich-Paris : MC-RPA, TRAH-(SCF,CASSCF), AVAS, COSX integrals, SCF dyn. polar. 
  Lee Huntington         : MR-EOM, pCC                                   
  Robert Izsak           : Overlap fitted RIJCOSX, COSX-SCS-MP3, EOM     
  Riya Kayal             : Wick's Theorem for AUTO-CI, AUTO-CI UHF-CCSDT 
  Emily Kempfer          : AUTO-CI, RHF CISDT and CCSDT                  
  Christian Kollmar      : KDIIS, OOCD, Brueckner-CCSD(T), CCSD density, CASPT2, CASPT2-K, improved NEVPT2 
  Axel Koslowski         : Symmetry handling                             
  Simone Kossmann        : meta-GGA functionals, TD-DFT gradient, OOMP2, (MP2 Hessian; deprecated post 5.0) 
  Lucas Lang             : DCDCAS                                        
  Marvin Lechner         : AUTO-CI (C++ implementation), FIC-MRCC        
  Spencer Leger          : CASSCF response                               
  Dagmar Lenk            : GEPOL surface, SMD, ORCA-2-JSON               
  Dimitrios Liakos       : Extrapolation schemes; Compound Job, initial MDCI parallelization 
  Dimitrios Manganas     : Further ROCIS development; embedding schemes. LFT, Crystal Embedding 
  Dimitrios Pantazis     : SARC Basis sets                               
  Anastasios Papadopoulos: AUTO-CI, single reference methods and gradients 
  Taras Petrenko         : pre 6.0 DFT Hessian and TD-DFT gradient, (ASA, deprecated), ECA, 1-Electron XAS/XES, NRVS 
  Peter Pinski           : DLPNO-MP2, DLPNO-MP2 Gradient                 
  Christoph Reimann      : Effective Core Potentials                     
  Marius Retegan         : Local ZFS, SOC                                
  Christoph Riplinger    : Optimizer, TS searches, QM/MM, DLPNO-CCSD(T), (RO)-DLPNO pert. Triples 
  Michael Roemelt        : Original ROCIS implementation                 
  Masaaki Saitow         : Open-shell DLPNO-CCSD energy and density      
  Barbara Sandhoefer     : DKH picture change effects                    
  Kantharuban Sivalingam : CASSCF convergence/infrastructure, NEVPT2 and variants, FIC-MRCI 
  Bernardo de Souza      : ESD, SOC TD-DFT                               
  Georgi L. Stoychev     : AutoAux, RI-MP2 NMR, DLPNO-MP2 response, X2C  
  Van Anh Tran           : RI-MP2 g-tensors                              
  Willem Van den Heuvel  : Paramagnetic NMR                              
  Zikuan Wang            : NOTCH, Electric field optimization            
  Frank Wennmohs         : Technical directorship and infrastructure     
  Hang Xu                : AUTO-CI-Response properties                   
                                                                         
[FACCTs GmbH]                                                            
  Markus Bursch, Miquel Garcia-Rates, Christoph Riplinger, Bernardo de Souza, Georgi L. Stoychev 
                                                                 
  APM, Basis sets (HGBS, AHGBS, def-TZVP (Ac-Lr), def2-XVPD (La-Lu)), CI-OPT, improved COSX, DLPNO-Multilevel,           
  DOCKER, DRACO, updates on ESD, GOAT, IRC, LR-CPCM, MBIS, meta-GGA TD-DFT gradient, ML-optimized integration grids, 
  MM, NACMEs, nearIR, NEB, NEB-TS, NL-DFT gradient (VV10), 2- and 3-layer-ONIOM, interface openCOSMO-RS, QMMM,   
  Crystal-QMMM, SF, symmetry and pop. for TD-DFT, r2SCAN hybrids, SOLVATOR                                   
                                                                         
[Other institutions]                                                     
  V. Asgeirsson          : NEB                                           
  Christoph Bannwarth    : sTDA-DFT, sTD-DFT, PBEh-3c, B97-3c, D3        
  Sebastian Ehlert       : rSCAN, r2SCAN, r2SCAN-3c, D4, dhf basis sets  
  Marvin Friede          : D4 for Fr, Ra, Ac-Lr                          
  Lars Goerigk           : TD-DFT with DH, B97 family of functionals     
  Stefan Grimme          : VdW corrections, initial TS optimization, DFT functionals, gCP, sTDA/sTD-DF 
  Waldemar Hujo          : DFT-NL                                        
  H. Jonsson             : NEB                                           
  Holger Kruse           : gCP                                           
  Marcel Mueller         : wB97X-3c, vDZP basis set                      
  Hagen Neugebauer       : wr2SCAN                                       
  Tobias Risthaus        : range-separated hybrid DFT                    
  Lukas Wittmann         : regularized MP2, r2SCAN double-hybrids, wr2SCAN        
                                                                         
We gratefully acknowledge several colleagues who have allowed us to      
interface, adapt or use parts of their codes:                            
  Ed Valeev, F. Pavosevic, A. Kumar             : LibInt (2-el integral package), F12 methods 
  Garnet Chan, S. Sharma, J. Yang, R. Olivares  : DMRG                   
  Ulf Ekstrom                                   : XCFun DFT Library      
  Mihaly Kallay                                 : mrcc  (arbitrary order and MRCC methods)
  Frank Weinhold                                : gennbo (NPA and NBO analysis)           
  Simon Mueller                                 : openCOSMO-RS                            
  Christopher J. Cramer and Donald G. Truhlar   : smd solvation model                     
  S Lehtola, MJT Oliveira, MAL Marques          : LibXC Library                           
  Liviu Ungur et al                             : ANISO software                          


 Your calculation uses the libint2 library for the computation of 2-el integrals
 For citations please refer to: http://libint.valeyev.net

 Your ORCA version has been built with support for libXC version: 6.2.2
 For citations please refer to: https://libxc.gitlab.io

 This ORCA versions uses:
   CBLAS   interface :  Fast vector & matrix operations
   LAPACKE interface :  Fast linear algebra routines
   SCALAPACK package :  Parallel linear algebra routines
   Shared memory     :  Shared parallel matrices
   BLAS/LAPACK       :  OpenBLAS 0.3.27  USE64BITINT DYNAMIC_ARCH NO_AFFINITY SkylakeX SINGLE_THREADED
        Core in use  :  SkylakeX
   Copyright (c) 2011-2014, The OpenBLAS Project


NOTE: MaxCore=8000 MB was set to SCF,MP2,MDCI,CIPSI,MRCI and CIS
      => If you want to overwrite this, your respective input block should be placed after the MaxCore statement
Your calculation utilizes the atom-pairwise dispersion correction
with the Becke-Johnson damping scheme (D3BJ)


Your calculation utilizes the SMD solvation module
Please cite in your paper:
A.V. Marenich, C.J. Cramer, D.G. Truhlar J. Phys. Chem. B, 113, (2009), 6378 

Warning: RI is on but no J-basis has been assigned. Assigning Def2/J (nothing to worry about!)
================================================================================

----- Orbital basis set information -----
Your calculation utilizes the basis: def2-TZVP
   F. Weigend and R. Ahlrichs, Phys. Chem. Chem. Phys. 7, 3297 (2005).

----- AuxJ basis set information -----
Your calculation utilizes the auxiliary basis: def2/J
   F. Weigend, Phys. Chem. Chem. Phys. 8, 1057 (2006).

================================================================================
                                        WARNINGS
                       Please study these warnings very carefully!
================================================================================


WARNING: Geometry Optimization
  ===> : Switching off AutoStart
         For restart on a previous wavefunction, please use MOREAD

================================================================================
                                       INPUT FILE
================================================================================
NAME = rf_mecn_1H2O_opt_TP_con_001.inp
|  1> !TPSSh def2-TZVP opt d3 TightSCF SlowConv defgrid2
|  2>  
|  3> %pal
|  4> nprocs 20
|  5> end
|  6>  
|  7> %scf
|  8> MaxIter 1500
|  9> end
| 10>  
| 11> %maxcore 8000
| 12>  
| 13> !CPCM
| 14> %cpcm smd true
| 15> SMDsolvent "ACETONITRILE"
| 16> end
| 17>  
| 18> * xyz -1 1
| 19> 6        6.857280945     27.901753127      3.100719684
| 20> 6        6.154044945     26.704598127      2.411135684
| 21> 6        7.086539945     25.482838127      2.185613684
| 22> 6        6.299616945     24.171731127      1.900070684
| 23> 6        7.185881945     23.070259127      1.248991684
| 24> 6        6.565390945     21.647303127      1.360366684
| 25> 6        7.185681945     20.616666127      0.394672684
| 26> 6        6.843394945     19.121603127      0.784430684
| 27> 9        8.006806945     28.182557127      2.503585684
| 28> 9        7.082780945     27.647576127      4.378925684
| 29> 9        6.067588945     28.966668127      3.018348684
| 30> 9        5.116418945     26.361022127      3.182510684
| 31> 9        5.702795945     27.135986127      1.230360684
| 32> 9        7.887905945     25.777720127      1.156931684
| 33> 9        7.829891945     25.318192127      3.287321684
| 34> 9        5.806494945     23.745652127      3.066652684
| 35> 9        5.287431945     24.474179127      1.076603684
| 36> 9        7.350609945     23.413929127     -0.034316316
| 37> 9        8.377622945     23.098911127      1.865134684
| 38> 9        6.756126945     21.255165127      2.631170684
| 39> 9        5.250981945     21.784657127      1.133608684
| 40> 9        6.706596945     20.903759127     -0.845345316
| 41> 9        8.519170945     20.869305127      0.364163684
| 42> 8        7.813741945     18.363469127      0.789215684
| 43> 8        5.634555945     18.967368127      0.997888684
| 44> 8        2.818390092     18.736599843      1.412612662
| 45> 1        2.716934106     17.791620290      1.243555674
| 46> 1        3.748070901     18.906228277      1.215686974
| 47> *
| 48> 
| 49>                          ****END OF INPUT****
================================================================================

                       *****************************
                       * Geometry Optimization Run *
                       *****************************

Geometry optimization settings:
Update method            Update   .... BFGS
Choice of coordinates    CoordSys .... (2022) Redundant Internals
Initial Hessian          InHess   .... Almloef's Model
Max. no of cycles        MaxIter  .... 84

Convergence Tolerances:
Energy Change            TolE     ....  5.0000e-06 Eh
Max. Gradient            TolMAXG  ....  3.0000e-04 Eh/bohr
RMS Gradient             TolRMSG  ....  1.0000e-04 Eh/bohr
Max. Displacement        TolMAXD  ....  4.0000e-03 bohr
RMS Displacement         TolRMSD  ....  2.0000e-03 bohr
Strict Convergence                .... False

------------------------------------------------------------------------------
                        ORCA OPTIMIZATION COORDINATE SETUP
------------------------------------------------------------------------------

The optimization will be done in redundant internal coordinates (2022)
Making redundant internal coordinates   ...  (2022 redundants) done
Evaluating the initial hessian          ...  (Almloef) done
Evaluating the coordinates              ...  done
Calculating the B-matrix                .... done
Calculating the G-matrix                .... done
Diagonalizing the G-matrix              .... done
Small eigenvalue found = 2.494e-03
Small eigenvalue found = 9.182e-03
Small eigenvalue found = 1.155e-02
Small eigenvalue found = 2.495e-02
The first mode is                       ....   42
The number of degrees of freedom        ....   78

    -----------------------------------------------------------------
                    Redundant Internal Coordinates


    -----------------------------------------------------------------
         Definition                    Initial Value    Approx d2E/dq
    -----------------------------------------------------------------
      1. B(C   1,C   0)                  1.5502         0.346804   
      2. B(C   2,C   1)                  1.5534         0.342781   
      3. B(C   3,C   2)                  1.5556         0.340086   
      4. B(C   4,C   3)                  1.5565         0.338954   
      5. B(C   5,C   4)                  1.5563         0.339111   
      6. B(C   6,C   5)                  1.5426         0.356709   
      7. B(C   7,C   6)                  1.5825         0.308055   
      8. B(F   8,C   0)                  1.3255         0.659090   
      9. B(F   9,C   0)                  1.3226         0.666042   
     10. B(F  10,C   0)                  1.3283         0.652181   
     11. B(F  11,C   1)                  1.3378         0.629847   
     12. B(F  12,C   1)                  1.3356         0.634870   
     13. B(F  13,C   2)                  1.3369         0.631928   
     14. B(F  14,C   2)                  1.3392         0.626649   
     15. B(F  15,C   3)                  1.3363         0.633409   
     16. B(F  16,C   3)                  1.3394         0.626090   
     17. B(F  17,C   4)                  1.3387         0.627782   
     18. B(F  18,C   4)                  1.3419         0.620447   
     19. B(F  19,C   5)                  1.3435         0.616728   
     20. B(F  20,C   5)                  1.3409         0.622782   
     21. B(F  21,C   6)                  1.3600         0.580545   
     22. B(F  22,C   6)                  1.3576         0.585779   
     23. B(O  23,C   7)                  1.2314         1.002075   
     24. B(O  24,C   7)                  1.2372         0.981004   
     25. B(H  26,O  25)                  0.9653         0.509876   
     26. B(H  27,O  24)                  1.9000         0.016453   
     27. B(H  27,O  25)                  0.9653         0.509876   
     28. A(C   1,C   0,F   9)          111.0282         0.392261   
     29. A(C   1,C   0,F   8)          110.8930         0.391542   
     30. A(F   8,C   0,F  10)          108.5307         0.433227   
     31. A(F   8,C   0,F   9)          109.1619         0.434870   
     32. A(C   1,C   0,F  10)          108.7739         0.390821   
     33. A(F   9,C   0,F  10)          108.3827         0.434046   
     34. A(C   2,C   1,F  11)          110.3230         0.387660   
     35. A(C   0,C   1,C   2)          113.5553         0.353571   
     36. A(F  11,C   1,F  12)          109.3079         0.427641   
     37. A(C   0,C   1,F  11)          107.0787         0.388450   
     38. A(C   2,C   1,F  12)          109.1769         0.388197   
     39. A(C   0,C   1,F  12)          107.2827         0.388989   
     40. A(C   3,C   2,F  13)          110.3587         0.387350   
     41. A(F  13,C   2,F  14)          109.1107         0.426896   
     42. A(C   1,C   2,F  14)          108.0873         0.387316   
     43. A(C   1,C   2,C   3)          112.6983         0.352402   
     44. A(C   1,C   2,F  13)          107.3405         0.387883   
     45. A(C   3,C   2,F  14)          109.1587         0.386784   
     46. A(F  15,C   3,F  16)          109.2595         0.427007   
     47. A(C   4,C   3,F  16)          109.4458         0.386499   
     48. A(C   2,C   3,F  16)          107.7470         0.386724   
     49. A(C   4,C   3,F  15)          110.4668         0.387282   
     50. A(C   2,C   3,C   4)          112.6559         0.351734   
     51. A(C   2,C   3,F  15)          107.1682         0.387508   
     52. A(C   3,C   4,F  18)          107.3682         0.385890   
     53. A(C   5,C   4,F  17)          110.6326         0.386712   
     54. A(C   3,C   4,F  17)          106.8213         0.386681   
     55. A(C   3,C   4,C   5)          112.9589         0.351563   
     56. A(F  17,C   4,F  18)          108.9895         0.425634   
     57. A(C   5,C   4,F  18)          109.9216         0.385921   
     58. A(C   4,C   5,C   6)          113.9380         0.354615   
     59. A(F  19,C   5,F  20)          109.2091         0.424568   
     60. A(C   6,C   5,F  20)          110.9006         0.389596   
     61. A(C   4,C   5,F  20)          106.5622         0.386174   
     62. A(C   6,C   5,F  19)          109.8795         0.388932   
     63. A(C   4,C   5,F  19)          106.1374         0.385517   
     64. A(C   5,C   6,C   7)          112.9578         0.348903   
     65. A(F  21,C   6,F  22)          106.6335         0.415450   
     66. A(C   7,C   6,F  22)          113.1920         0.375779   
     67. A(C   5,C   6,F  22)          106.5420         0.385457   
     68. A(C   7,C   6,F  21)          110.3532         0.375197   
     69. A(C   5,C   6,F  21)          106.7446         0.384856   
     70. A(O  23,C   7,O  24)          133.8297         0.508781   
     71. A(C   6,C   7,O  24)          111.8150         0.413089   
     72. A(C   6,C   7,O  23)          114.3410         0.414652   
     73. A(C   7,O  24,H  27)          173.6796         0.231741   
     74. A(H  26,O  25,H  27)          103.7396         0.319780   
     75. A(O  24,H  27,O  25)          170.1504         0.195092   
     76. D(F  11,C   1,C   0,F   9)     49.4768         0.009705   
     77. D(C   2,C   1,C   0,F   8)     48.9947         0.009705   
     78. D(F  11,C   1,C   0,F   8)    171.0207         0.009705   
     79. D(F  11,C   1,C   0,F  10)    -69.7011         0.009705   
     80. D(C   2,C   1,C   0,F   9)    -72.5492         0.009705   
     81. D(C   2,C   1,C   0,F  10)    168.2729         0.009705   
     82. D(C   3,C   2,C   1,C   0)    162.7875         0.009500   
     83. D(F  13,C   2,C   1,F  12)     44.1537         0.009500   
     84. D(F  13,C   2,C   1,C   0)    -75.4998         0.009500   
     85. D(F  13,C   2,C   1,F  11)    164.2939         0.009500   
     86. D(C   3,C   2,C   1,F  11)     42.5812         0.009500   
     87. D(C   3,C   2,C   1,F  12)    -77.5590         0.009500   
     88. D(C   4,C   3,C   2,F  13)     42.1846         0.009364   
     89. D(C   4,C   3,C   2,F  14)    -77.7232         0.009364   
     90. D(C   4,C   3,C   2,C   1)    162.1720         0.009364   
     91. D(F  15,C   3,C   2,F  14)     43.9807         0.009364   
     92. D(F  15,C   3,C   2,F  13)    163.8885         0.009364   
     93. D(F  15,C   3,C   2,C   1)    -76.1241         0.009364   
     94. D(F  17,C   4,C   3,F  16)     43.8732         0.009308   
     95. D(F  17,C   4,C   3,F  15)    164.2137         0.009308   
     96. D(F  17,C   4,C   3,C   2)    -75.9715         0.009308   
     97. D(C   5,C   4,C   3,F  16)    -77.9884         0.009308   
     98. D(C   5,C   4,C   3,F  15)     42.3521         0.009308   
     99. D(C   5,C   4,C   3,C   2)    162.1669         0.009308   
    100. D(F  19,C   5,C   4,F  18)     44.0726         0.009315   
    101. D(F  19,C   5,C   4,F  17)    164.4895         0.009315   
    102. D(F  19,C   5,C   4,C   3)    -75.8189         0.009315   
    103. D(C   6,C   5,C   4,F  18)    -76.9753         0.009315   
    104. D(C   6,C   5,C   4,F  17)     43.4416         0.009315   
    105. D(C   6,C   5,C   4,C   3)    163.1331         0.009315   
    106. D(C   7,C   6,C   5,C   4)    164.0956         0.010222   
    107. D(F  21,C   6,C   5,F  20)     45.7788         0.010222   
    108. D(F  21,C   6,C   5,F  19)    166.6154         0.010222   
    109. D(F  21,C   6,C   5,C   4)    -74.4447         0.010222   
    110. D(C   7,C   6,C   5,F  20)    -75.6808         0.010222   
    111. D(C   7,C   6,C   5,F  19)     45.1557         0.010222   
    112. D(O  24,C   7,C   6,F  21)    -70.5516         0.007386   
    113. D(O  24,C   7,C   6,C   5)     48.8461         0.007386   
    114. D(O  23,C   7,C   6,F  22)    -11.1459         0.007386   
    115. D(O  23,C   7,C   6,F  21)    108.2663         0.007386   
    116. D(O  23,C   7,C   6,C   5)   -132.3360         0.007386   
    117. D(H  27,O  24,C   7,O  23)   -158.3762         0.078375   
    118. D(H  27,O  24,C   7,C   6)     20.1307         0.078375   
    119. D(O  24,H  27,O  25,H  26)    -44.6419         0.289652   
    120. D(O  25,H  27,O  24,C   7)    180.0000         0.001625   
    -----------------------------------------------------------------

Number of atoms                         .... 28
Number of degrees of freedom            .... 120


         *************************************************************
         *                GEOMETRY OPTIMIZATION CYCLE   1            *
         *************************************************************
---------------------------------
CARTESIAN COORDINATES (ANGSTROEM)
---------------------------------
  C      6.857281   27.901753    3.100720
  C      6.154045   26.704598    2.411136
  C      7.086540   25.482838    2.185614
  C      6.299617   24.171731    1.900071
  C      7.185882   23.070259    1.248992
  C      6.565391   21.647303    1.360367
  C      7.185682   20.616666    0.394673
  C      6.843395   19.121603    0.784431
  F      8.006807   28.182557    2.503586
  F      7.082781   27.647576    4.378926
  F      6.067589   28.966668    3.018349
  F      5.116419   26.361022    3.182511
  F      5.702796   27.135986    1.230361
  F      7.887906   25.777720    1.156932
  F      7.829892   25.318192    3.287322
  F      5.806495   23.745652    3.066653
  F      5.287432   24.474179    1.076604
  F      7.350610   23.413929   -0.034316
  F      8.377623   23.098911    1.865135
  F      6.756127   21.255165    2.631171
  F      5.250982   21.784657    1.133609
  F      6.706597   20.903759   -0.845345
  F      8.519171   20.869305    0.364164
  O      7.813742   18.363469    0.789216
  O      5.634556   18.967368    0.997889
  O      2.818390   18.736600    1.412613
  H      2.716934   17.791620    1.243556
  H      3.748071   18.906228    1.215687

----------------------------
CARTESIAN COORDINATES (A.U.)
----------------------------
  NO LB      ZA    FRAG     MASS         X           Y           Z
   0 C     6.0000    0    12.011   12.958383   52.726672    5.859511
   1 C     6.0000    0    12.011   11.629460   50.464377    4.556386
   2 C     6.0000    0    12.011   13.391620   48.155585    4.130211
   3 C     6.0000    0    12.011   11.904551   45.677952    3.590613
   4 C     6.0000    0    12.011   13.579349   43.596472    2.360252
   5 C     6.0000    0    12.011   12.406791   40.907474    2.570720
   6 C     6.0000    0    12.011   13.578971   38.959853    0.745823
   7 C     6.0000    0    12.011   12.932142   36.134593    1.482359
   8 F     9.0000    0    18.998   15.130672   53.257315    4.731091
   9 F     9.0000    0    18.998   13.384516   52.246347    8.274970
  10 F     9.0000    0    18.998   11.466081   54.739070    5.703852
  11 F     9.0000    0    18.998    9.668631   49.815112    6.014074
  12 F     9.0000    0    18.998   10.776723   51.279582    2.325045
  13 F     9.0000    0    18.998   14.905982   48.712831    2.186284
  14 F     9.0000    0    18.998   14.796351   47.844449    6.212138
  15 F     9.0000    0    18.998   10.972685   44.872779    5.795134
  16 F     9.0000    0    18.998    9.991798   46.249496    2.034486
  17 F     9.0000    0    18.998   13.890640   44.245914   -0.064848
  18 F     9.0000    0    18.998   15.831413   43.650616    3.524594
  19 F     9.0000    0    18.998   12.767230   40.166441    4.972192
  20 F     9.0000    0    18.998    9.922918   41.167036    2.142210
  21 F     9.0000    0    18.998   12.673632   39.502380   -1.597471
  22 F     9.0000    0    18.998   16.098900   39.437271    0.688170
  23 O     8.0000    0    15.999   14.765832   34.701928    1.491402
  24 O     8.0000    0    15.999   10.647768   35.843131    1.885736
  25 O     8.0000    0    15.999    5.325985   35.407042    2.669451
  26 H     1.0000    0     1.008    5.134261   33.621290    2.349980
  27 H     1.0000    0     1.008    7.082828   35.727594    2.297315

--------------------------------
INTERNAL COORDINATES (ANGSTROEM)
--------------------------------
 C      0   0   0     0.000000000000     0.00000000     0.00000000
 C      1   0   0     1.550240967971     0.00000000     0.00000000
 C      2   1   0     1.553417070561   113.55533844     0.00000000
 C      3   2   1     1.555565549319   112.69827683   162.78749478
 C      4   3   2     1.556473604418   112.65593685   162.17204174
 C      5   4   3     1.556347406475   112.95890429   162.16693919
 C      6   5   4     1.542575266263   113.93798420   163.13314068
 C      7   6   5     1.582493305800   112.95775891   164.09560104
 F      1   2   3     1.325454610708   110.89295443    48.99470066
 F      1   2   3     1.322598493786   111.02821211   287.45080856
 F      1   2   3     1.328323151093   108.77385697   168.27294708
 F      2   1   3     1.337808496862   107.07872998   122.02597894
 F      2   1   3     1.335646235786   107.28270546   239.27402584
 F      3   2   1     1.336910437166   107.34054952   284.50021141
 F      3   2   1     1.339194167581   108.08730739    42.06766241
 F      4   3   2     1.336273244456   107.16821115   283.87589533
 F      4   3   2     1.339436884298   107.74698212    41.35047990
 F      5   4   3     1.338702284210   106.82131950   284.02853646
 F      5   4   3     1.341901540589   107.36821732    40.81959257
 F      6   5   4     1.343538328131   106.13743735   284.18106314
 F      6   5   4     1.340878939786   106.56217547    40.50128759
 F      7   6   5     1.359996128008   106.74461671   285.55525164
 F      7   6   5     1.357553010576   106.54195382    39.20780969
 O      8   7   6     1.231407064536   114.34099629   227.66396244
 O      8   7   6     1.237192176224   111.81500307    48.84611502
 O     25   8   7     2.855878164494   176.99440113    20.13066459
 H     26  25   8     0.965328927296    99.05067288   136.27702780
 H     26  25   8     0.965328927795     6.53484144     0.00000000

---------------------------
INTERNAL COORDINATES (A.U.)
---------------------------
 C      0   0   0     0.000000000000     0.00000000     0.00000000
 C      1   0   0     2.929530871051     0.00000000     0.00000000
 C      2   1   0     2.935532835118   113.55533844     0.00000000
 C      3   2   1     2.939592871575   112.69827683   162.78749478
 C      4   3   2     2.941308847027   112.65593685   162.17204174
 C      5   4   3     2.941070367477   112.95890429   162.16693919
 C      6   5   4     2.915044794198   113.93798420   163.13314068
 C      7   6   5     2.990478956726   112.95775891   164.09560104
 F      1   2   3     2.504746217182   110.89295443    48.99470066
 F      1   2   3     2.499348938392   111.02821211   287.45080856
 F      1   2   3     2.510166972913   108.77385697   168.27294708
 F      2   1   3     2.528091678703   107.07872998   122.02597894
 F      2   1   3     2.524005597439   107.28270546   239.27402584
 F      3   2   1     2.526394591825   107.34054952   284.50021141
 F      3   2   1     2.530710216873   108.08730739    42.06766241
 F      4   3   2     2.525190472108   107.16821115   283.87589533
 F      4   3   2     2.531168884996   107.74698212    41.35047990
 F      5   4   3     2.529780692011   106.82131950   284.02853646
 F      5   4   3     2.535826410399   107.36821732    40.81959257
 F      6   5   4     2.538919490593   106.13743735   284.18106314
 F      6   5   4     2.533893974938   106.56217547    40.50128759
 F      7   6   5     2.570020225129   106.74461671   285.55525164
 F      7   6   5     2.565403402268   106.54195382    39.20780969
 O      8   7   6     2.327022111350   114.34099629   227.66396244
 O      8   7   6     2.337954388093   111.81500307    48.84611502
 O     25   8   7     5.396827602739   176.99440113    20.13066459
 H     26  25   8     1.824207301742    99.05067288   136.27702780
 H     26  25   8     1.824207302685     6.53484144     0.00000000

---------------------
BASIS SET INFORMATION
---------------------
There are 4 groups of distinct atoms

 Group   1 Type C   : 11s6p2d1f contracted to 5s3p2d1f pattern {62111/411/11/1}
 Group   2 Type F   : 11s6p2d1f contracted to 5s3p2d1f pattern {62111/411/11/1}
 Group   3 Type O   : 11s6p2d1f contracted to 5s3p2d1f pattern {62111/411/11/1}
 Group   4 Type H   : 5s1p contracted to 3s1p pattern {311/1}

Atom   0C    basis set group =>   1
Atom   1C    basis set group =>   1
Atom   2C    basis set group =>   1
Atom   3C    basis set group =>   1
Atom   4C    basis set group =>   1
Atom   5C    basis set group =>   1
Atom   6C    basis set group =>   1
Atom   7C    basis set group =>   1
Atom   8F    basis set group =>   2
Atom   9F    basis set group =>   2
Atom  10F    basis set group =>   2
Atom  11F    basis set group =>   2
Atom  12F    basis set group =>   2
Atom  13F    basis set group =>   2
Atom  14F    basis set group =>   2
Atom  15F    basis set group =>   2
Atom  16F    basis set group =>   2
Atom  17F    basis set group =>   2
Atom  18F    basis set group =>   2
Atom  19F    basis set group =>   2
Atom  20F    basis set group =>   2
Atom  21F    basis set group =>   2
Atom  22F    basis set group =>   2
Atom  23O    basis set group =>   3
Atom  24O    basis set group =>   3
Atom  25O    basis set group =>   3
Atom  26H    basis set group =>   4
Atom  27H    basis set group =>   4
---------------------------------
AUXILIARY/J BASIS SET INFORMATION
---------------------------------
There are 4 groups of distinct atoms

 Group   1 Type C   : 12s5p4d2f1g contracted to 6s4p3d1f1g pattern {711111/2111/211/2/1}
 Group   2 Type F   : 12s5p4d2f1g contracted to 6s4p3d1f1g pattern {711111/2111/211/2/1}
 Group   3 Type O   : 12s5p4d2f1g contracted to 6s4p3d1f1g pattern {711111/2111/211/2/1}
 Group   4 Type H   : 5s2p1d contracted to 3s1p1d pattern {311/2/1}

Atom   0C    basis set group =>   1
Atom   1C    basis set group =>   1
Atom   2C    basis set group =>   1
Atom   3C    basis set group =>   1
Atom   4C    basis set group =>   1
Atom   5C    basis set group =>   1
Atom   6C    basis set group =>   1
Atom   7C    basis set group =>   1
Atom   8F    basis set group =>   2
Atom   9F    basis set group =>   2
Atom  10F    basis set group =>   2
Atom  11F    basis set group =>   2
Atom  12F    basis set group =>   2
Atom  13F    basis set group =>   2
Atom  14F    basis set group =>   2
Atom  15F    basis set group =>   2
Atom  16F    basis set group =>   2
Atom  17F    basis set group =>   2
Atom  18F    basis set group =>   2
Atom  19F    basis set group =>   2
Atom  20F    basis set group =>   2
Atom  21F    basis set group =>   2
Atom  22F    basis set group =>   2
Atom  23O    basis set group =>   3
Atom  24O    basis set group =>   3
Atom  25O    basis set group =>   3
Atom  26H    basis set group =>   4
Atom  27H    basis set group =>   4


           ************************************************************
           *        Program running with 20 parallel MPI-processes    *
           *              working on a common directory               *
           ************************************************************
------------------------------------------------------------------------------
                             ORCA STARTUP CALCULATIONS
                           -- RI-GTO INTEGRALS CHOSEN --
------------------------------------------------------------------------------
------------------------------------------------------------------------------
                   ___                                                        
                  /   \      - P O W E R E D   B Y -                         
                 /     \                                                     
                 |  |  |   _    _      __       _____    __    __             
                 |  |  |  | |  | |    /  \     |  _  \  |  |  /  |          
                  \  \/   | |  | |   /    \    | | | |  |  | /  /          
                 / \  \   | |__| |  /  /\  \   | |_| |  |  |/  /          
                |  |  |   |  __  | /  /__\  \  |    /   |      \           
                |  |  |   | |  | | |   __   |  |    \   |  |\   \          
                \     /   | |  | | |  |  |  |  | |\  \  |  | \   \       
                 \___/    |_|  |_| |__|  |__|  |_| \__\ |__|  \__/        
                                                                              
                      - O R C A' S   B I G   F R I E N D -                    
                                      &                                       
                       - I N T E G R A L  F E E D E R -                       
                                                                              
 v1 FN, 2020, v2 2021, v3 2022-2024                                           
------------------------------------------------------------------------------


----------------------
SHARK INTEGRAL PACKAGE
----------------------

Number of atoms                             ...     28
Number of basis functions                   ...    818
Number of shells                            ...    294
Maximum angular momentum                    ...      3
Integral batch strategy                     ... SHARK/LIBINT Hybrid
RI-J (if used) integral strategy            ... SPLIT-RIJ (Revised 2003 algorithm where possible)
Printlevel                                  ...      1
Contraction scheme used                     ... SEGMENTED contraction
Prescreening option                         ... SCHWARTZ
   Thresh                                   ... 2.500e-11
   Tcut                                     ... 2.500e-12
   Tpresel                                  ... 2.500e-12 
Coulomb Range Separation                    ... NOT USED
Exchange Range Separation                   ... NOT USED
Multipole approximations                    ... NOT USED
Finite Nucleus Model                        ... NOT USED
CABS basis                                  ... NOT available
Auxiliary Coulomb fitting basis             ... AVAILABLE
   # of basis functions in Aux-J            ...   1296
   # of shells in Aux-J                     ...    400
   Maximum angular momentum in Aux-J        ...      4
Auxiliary J/K fitting basis                 ... NOT available
Auxiliary Correlation fitting basis         ... NOT available
Auxiliary 'external' fitting basis          ... NOT available

Checking pre-screening integrals            ... done (  0.0 sec) Dimension = 294
Check shell pair data                       ... done (  0.0 sec)
Shell pair information
Shell pair cut-off parameter TPreSel        ...   2.5e-12
Total number of shell pairs                 ...     43365
Shell pairs after pre-screening             ...     25535
Total number of primitive shell pairs       ...    142356
Primitive shell pairs kept                  ...     53484
          la=0 lb=0:   4947 shell pairs
          la=1 lb=0:   7034 shell pairs
          la=1 lb=1:   2417 shell pairs
          la=2 lb=0:   3764 shell pairs
          la=2 lb=1:   2745 shell pairs
          la=2 lb=2:    755 shell pairs
          la=3 lb=0:   1708 shell pairs
          la=3 lb=1:   1309 shell pairs
          la=3 lb=2:    689 shell pairs
          la=3 lb=3:    167 shell pairs

Calculating one electron integrals          ... done (  0.0 sec)
Calculating RI/J V-Matrix + Cholesky decomp.... done (  0.1 sec)
Calculating Nuclear repulsion               ... done (  0.0 sec) ENN=   3082.708906043765 Eh

Diagonalization of the overlap matrix:
Smallest eigenvalue                        ... 5.067e-05
Time for diagonalization                   ...    0.127 sec
Threshold for overlap eigenvalues          ... 1.000e-07
Number of eigenvalues below threshold      ... 0
Time for construction of square roots      ...    0.061 sec
Total time needed                          ...    0.198 sec

-------------------
DFT GRID GENERATION
-------------------

General Integration Accuracy     IntAcc      ... 4.388
Radial Grid Type                 RadialGrid  ... OptM3 with GC (2021)
Angular Grid (max. ang.)         AngularGrid ... 4 (Lebedev-302)
Angular grid pruning method      GridPruning ... 4 (adaptive)
Weight generation scheme         WeightScheme... mBecke (2022)
Basis function cutoff            BFCut       ... 1.0000e-11
Integration weight cutoff        WCut        ... 1.0000e-14
Partially contracted basis set               ... off
Rotationally invariant grid construction     ... off
Angular grids for H and He will be reduced by one unit

Total number of grid points                  ...   164047
Total number of batches                      ...     2576
Average number of points per batch           ...       63
Average number of grid points per atom       ...     5859

--------------------
COSX GRID GENERATION
--------------------

GRIDX 1
-------
General Integration Accuracy     IntAcc      ... 3.816
Radial Grid Type                 RadialGrid  ... OptM3 with GC (2021)
Angular Grid (max. ang.)         AngularGrid ... 1 (Lebedev-50)
Angular grid pruning method      GridPruning ... 4 (adaptive)
Weight generation scheme         WeightScheme... mBecke (2022)
Basis function cutoff            BFCut       ... 1.0000e-11
Integration weight cutoff        WCut        ... 1.0000e-14
Partially contracted basis set               ... on
Rotationally invariant grid construction     ... off
Angular grids for H and He will be reduced by one unit

Total number of grid points                  ...    20660
Total number of batches                      ...      173
Average number of points per batch           ...      119
Average number of grid points per atom       ...      738
UseSFitting                                  ... on

GRIDX 2
-------
General Integration Accuracy     IntAcc      ... 4.020
Radial Grid Type                 RadialGrid  ... OptM3 with GC (2021)
Angular Grid (max. ang.)         AngularGrid ... 2 (Lebedev-110)
Angular grid pruning method      GridPruning ... 4 (adaptive)
Weight generation scheme         WeightScheme... mBecke (2022)
Basis function cutoff            BFCut       ... 1.0000e-11
Integration weight cutoff        WCut        ... 1.0000e-14
Partially contracted basis set               ... on
Rotationally invariant grid construction     ... off
Angular grids for H and He will be reduced by one unit

Total number of grid points                  ...    48341
Total number of batches                      ...      394
Average number of points per batch           ...      122
Average number of grid points per atom       ...     1726
UseSFitting                                  ... on

GRIDX 3
-------
General Integration Accuracy     IntAcc      ... 4.338
Radial Grid Type                 RadialGrid  ... OptM3 with GC (2021)
Angular Grid (max. ang.)         AngularGrid ... 3 (Lebedev-194)
Angular grid pruning method      GridPruning ... 4 (adaptive)
Weight generation scheme         WeightScheme... mBecke (2022)
Basis function cutoff            BFCut       ... 1.0000e-11
Integration weight cutoff        WCut        ... 1.0000e-14
Partially contracted basis set               ... on
Rotationally invariant grid construction     ... off
Angular grids for H and He will be reduced by one unit

Total number of grid points                  ...   106996
Total number of batches                      ...      848
Average number of points per batch           ...      126
Average number of grid points per atom       ...     3821
UseSFitting                                  ... on
Initializing property integral containers    ... done (  0.0 sec)

SHARK setup successfully completed in   3.3 seconds

Maximum memory used throughout the entire STARTUP-calculation: 64.0 MB


           ************************************************************
           *        Program running with 20 parallel MPI-processes    *
           *              working on a common directory               *
           ************************************************************
-------------------------------------------------------------------------------
                                 ORCA GUESS
                   Start orbitals & Density for SCF / CASSCF
-------------------------------------------------------------------------------

------------
SCF SETTINGS
------------
Hamiltonian:
 Density Functional     Method          .... DFT(GTOs)
 Exchange Functional    Exchange        .... TPSS
 Correlation Functional Correlation     .... TPSS
 LDA part of GGA corr.  LDAOpt          .... PW91-LDA
 Gradients option       PostSCFGGA      .... off
 Hybrid DFT is turned on
   Fraction HF Exchange ScalHFX         ....  0.100000
   Scaling of DF-GGA-X  ScalDFX         ....  0.900000
   Scaling of DF-GGA-C  ScalDFC         ....  1.000000
   Scaling of DF-LDA-C  ScalLDAC        ....  1.000000
   Perturbative correction              ....  0.000000
   NL short-range parameter             ....  5.200000
 RI-approximation to the Coulomb term is turned on
   Number of AuxJ basis functions       .... 1296
   RIJ-COSX (HFX calculated with COS-X)).... on


General Settings:
 Integral files         IntName         .... rf_mecn_1H2O_opt_TP_con_001
 Hartree-Fock type      HFTyp           .... RHF
 Total Charge           Charge          ....   -1
 Multiplicity           Mult            ....    1
 Number of Electrons    NEL             ....  210
 Basis Dimension        Dim             ....  818
 Nuclear Repulsion      ENuc            ....   3082.7089060438 Eh

Convergence Acceleration:
 AO-DIIS                CNVDIIS         .... on
   Start iteration      DIISMaxIt       ....     0
   Startup error        DIISStart       ....  0.200000
   # of expansion vecs  DIISMaxEq       ....     5
   Bias factor          DIISBfac        ....   1.050
   Max. coefficient     DIISMaxC        ....  10.000
 MO-DIIS                CNVKDIIS        .... off
 Trust-Rad. Augm. Hess. CNVTRAH         .... auto
   Auto Start mean grad. ratio tolernc. ....  1.125000
   Auto Start start iteration           ....    50
   Auto Start num. interpolation iter.  ....    10
   Max. Number of Micro iterations      ....    24
   Max. Number of Macro iterations      .... Maxiter - #DIIS iter
   Number of Davidson start vectors     ....     2
   Converg. threshold    (grad. norm)   ....   1.000e-05
   Grad. Scal. Fac. for Micro threshold ....   0.100
   Minimum threshold for Micro iter.    ....   1.000e-02
   NR start threshold (gradient norm)   ....   1.000e-04
   Initial trust radius                 ....   0.400
   Minimum AH scaling param. (alpha)    ....   1.000
   Maximum AH scaling param. (alpha)    .... 1000.000
   Quad. conv. algorithm                .... NR
   White noise on init. David. guess    .... on
   Maximum white noise                  ....   0.010
   Pseudo random numbers                .... off
   Inactive MOs                         .... canonical
   Orbital update algorithm             .... Taylor
   Preconditioner                       .... Diag
   Full preconditioner red. dimension   ....   250
 SOSCF                  CNVSOSCF        .... on
   Start iteration      SOSCFMaxIt      ....   150
   Startup grad/error   SOSCFStart      ....  0.001000
   Hessian update       SOSCFHessUp     .... L-BFGS
 Level Shifting         CNVShift        .... on
   Level shift para.    LevelShift      ....    0.2500
   Turn off err/grad.   ShiftErr        ....    0.0000
 Zerner damping         CNVZerner       .... off
 Static damping         CNVDamp         .... on
   Fraction old density DampFac         ....    0.8500
   Max. Damping (<1)    DampMax         ....    0.9800
   Min. Damping (>=0)   DampMin         ....    0.0000
   Turn off err/grad.   DampErr         ....    0.0300

SCF Procedure:
 Maximum # iterations   MaxIter         ....  1500
 SCF integral mode      SCFMode         .... Direct
   Integral package                     .... SHARK and LIBINT hybrid scheme
 Reset frequency        DirectResetFreq ....    20
 Integral Threshold     Thresh          ....  2.500e-11 Eh
 Primitive CutOff       TCut            ....  2.500e-12 Eh

Convergence Tolerance:
 Convergence Check Mode ConvCheckMode   .... Total+1el-Energy
 Convergence forced     ConvForced      .... 0
 Energy Change          TolE            ....  1.000e-08 Eh
 1-El. energy change                    ....  1.000e-05 Eh
 Orbital Gradient       TolG            ....  1.000e-05
 Orbital Rotation angle TolX            ....  1.000e-05
 DIIS Error             TolErr          ....  5.000e-07

------------------------------
INITIAL GUESS: MODEL POTENTIAL
------------------------------
Loading Hartree-Fock densities                     ... done
Calculating cut-offs                               ... done
Initializing the effective Hamiltonian             ... done
Setting up the integral package (SHARK)            ... done
Starting the Coulomb interaction                   ... done (   0.2 sec)
Making the grid                                    ... done (   0.5 sec)
Mapping shells                                     ... done
Starting the XC term evaluation                    ... done (   0.1 sec)
  promolecular density results
     # of electrons  =    208.999431122
     EX              =   -216.044774468
     EC              =     -7.338096311
     EX+EC           =   -223.382870779
Transforming the Hamiltonian                       ... done (   0.1 sec)
Diagonalizing the Hamiltonian                      ... done (   0.1 sec)
Back transforming the eigenvectors                 ... done (   0.0 sec)
Now organizing SCF variables                       ... done
                      ------------------
                      INITIAL GUESS DONE (   1.1 sec)
                      ------------------
             **** ENERGY FILE WAS UPDATED (rf_mecn_1H2O_opt_TP_con_001.en.tmp) ****
Finished Guess after   1.8 sec
Maximum memory used throughout the entire GUESS-calculation: 52.9 MB


           ************************************************************
           *        Program running with 20 parallel MPI-processes    *
           *              working on a common directory               *
           ************************************************************

-------------------------------------------------------------------------------------------
                                      ORCA LEAN-SCF
                              memory conserving SCF solver
-------------------------------------------------------------------------------------------

--------------------
CPCM SOLVATION MODEL
--------------------
CPCM parameters:
  Epsilon                                         ...      35.6880
  Refrac                                          ...       1.3442
  Rsolv                                           ...       1.3000
  Surface type                                    ... GAUSSIAN VDW
  Discretization scheme                           ... Constant charge density
    Threshold for H atoms                         ...       5.0000 (charges/Ang^2)
    Threshold for non-H atoms                     ...       5.0000 (charges/Ang^2)
  Epsilon function type                           ...         CPCM
Solvent:                                          ... ACETONITRILE
SMD-CDS solvent descriptors:
  Soln                                            ...       1.3442
  Soln25                                          ...       1.3416
  Sola                                            ...       0.0700
  Solb                                            ...       0.3200
  Solg                                            ...      41.2500
  Solc                                            ...       0.0000
  Solh                                            ...       0.0000
Radii:
  Scheme                                          ... Element-dependent radii
  Radius for C  used is    3.4960 Bohr (=   1.8500 Ang.)
  Radius for F  used is    3.2692 Bohr (=   1.7300 Ang.)
  Radius for O  used is    4.0969 Bohr (=   2.1680 Ang.)
  Radius for H  used is    2.2677 Bohr (=   1.2000 Ang.)
Calculating surface                               ...        done! (  0.0s)
Cavity surface points                             ...         2380
Cavity Volume                                     ...    2380.5219
Cavity Surface-area                               ...    1244.8621
Calculating surface distance matrix               ...        done! (  0.1s)
Performing Cholesky decomposition & store         ...        done! (  0.1s)
Overall time for CPCM initialization              ...                 0.2s

----------------------------------------D-I-I-S--------------------------------------------
Iteration    Energy (Eh)           Delta-E    RMSDP     MaxDP     DIISErr   Damp  Time(sec)
-------------------------------------------------------------------------------------------
               ***  Starting incremental Fock matrix formation  ***
    1    -2029.8057372256662347     0.00e+00  5.40e-04  9.42e-02  3.25e-01  0.850   6.3
Warning: op=0 Small HOMO/LUMO gap (   0.055) - skipping pre-diagonalization
         Will do a full diagonalization
    2    -2029.9698561180312026    -1.64e-01  7.54e-04  1.87e-01  2.27e-01  0.850   4.0
                               ***Turning on AO-DIIS***
    3    -2030.0584104955687508    -8.86e-02  3.67e-04  8.35e-02  1.39e-01  0.850   3.7
    4    -2030.1113548914918283    -5.29e-02  1.84e-04  3.06e-02  1.03e-01  0.850   3.5
    5    -2030.1489078108133981    -3.76e-02  1.09e-04  8.12e-03  8.41e-02  0.850   3.6
    6    -2030.1785802251342830    -2.97e-02  8.19e-05  7.07e-03  7.14e-02  0.850   3.3
    7    -2030.2032075992692626    -2.46e-02  7.10e-05  6.60e-03  6.15e-02  0.850   3.3
    8    -2030.2239907558778214    -2.08e-02  6.23e-05  5.81e-03  5.24e-02  0.850   3.3
    9    -2030.2413298612027575    -1.73e-02  5.33e-05  4.94e-03  4.36e-02  0.850   3.2
   10    -2030.2557134755152219    -1.44e-02  4.50e-05  4.18e-03  3.60e-02  0.850   3.2
   11    -2030.2676859074454114    -1.20e-02  3.79e-05  3.56e-03  3.00e-02  0.850   3.1
   12    -2030.2777028882137529    -1.00e-02  2.14e-04  2.04e-02  2.51e-02  0.000   3.2
   13    -2030.3321454206243288    -5.44e-02  1.82e-05  3.82e-03  2.66e-03  0.000   3.5
   14    -2030.3321663414690192    -2.09e-05  7.51e-06  1.52e-03  1.11e-03  0.000   3.0
                              *** Initializing SOSCF ***
---------------------------------------S-O-S-C-F--------------------------------------
Iteration    Energy (Eh)           Delta-E    RMSDP     MaxDP     MaxGrad    Time(sec)
--------------------------------------------------------------------------------------
   15    -2030.3321689623826387    -2.62e-06  3.01e-06  5.43e-04  4.48e-04     2.9
               *** Restarting incremental Fock matrix formation ***
   16    -2030.3321467710784418     2.22e-05  3.27e-06  3.50e-04  2.50e-05     6.2
   17    -2030.3321467827909146    -1.17e-08  1.28e-06  1.81e-04  4.23e-05     3.6
   18    -2030.3321468695448857    -8.68e-08  8.88e-07  9.59e-05  1.65e-05     2.9
   19    -2030.3321468452395493     2.43e-08  3.38e-07  4.09e-05  1.80e-05     2.9
   20    -2030.3321468459735115    -7.34e-10  2.45e-07  5.06e-05  2.56e-06     2.7
                 **** Energy Check signals convergence ****

               *****************************************************
               *                     SUCCESS                       *
               *           SCF CONVERGED AFTER  20 CYCLES          *
               *****************************************************

Recomputing exchange energy using gridx3       ... done (    7.870 sec)
Old exchange energy                            :    -21.824181732 Eh
New exchange energy                            :    -21.824169169 Eh
Exchange energy change after final integration :      0.000012563 Eh
Total energy after final integration           :  -2030.332134283 Eh

SMD CDS free energy correction energy :                 3.05739     Kcal/mol
Total Energy after SMD CDS correction =             -2030.327262019 Eh
             **** ENERGY FILE WAS UPDATED (rf_mecn_1H2O_opt_TP_con_001.en.tmp) ****

----------------
TOTAL SCF ENERGY
----------------

Total Energy       :      -2030.32726201862010 Eh          -55248.01355 eV

Components:
Nuclear Repulsion  :       3082.70890604376473 Eh           83884.77395 eV
Electronic Energy  :      -5112.96360038579223 Eh         -139130.81284 eV
One Electron Energy:      -8984.98972989739013 Eh         -244494.00039 eV
Two Electron Energy:       3872.02612951159836 Eh          105363.18754 eV
CPCM Dielectric    :         -0.07745250394717 Eh              -2.10759 eV
SMD CDS (Gcds)     :          0.00487226469455 Eh               0.13258 eV

Virial components:
Potential Energy   :      -4054.43515212048351 Eh         -110326.78939 eV
Kinetic Energy     :       2024.10789010186318 Eh           55078.77584 eV
Virial Ratio       :          2.00307264842313

DFT components:
N(Alpha)           :      104.999977863871 electrons
N(Beta)            :      104.999977863871 electrons
N(Total)           :      209.999955727743 electrons
E(X)               :     -198.288052504530 Eh       
E(C)               :       -7.395148651991 Eh       
E(XC)              :     -205.683201156522 Eh       

CPCM Solvation Model Properties:
Surface-charge          :          0.99036615924247
Corrected charge        :          1.00000000000000
Outlying charge corr.   :          0.00000480071266 Eh               0.00013 eV
Free-energy (cav+disp)  :          0.00487226469455 Eh               0.13258 eV

---------------
SCF CONVERGENCE
---------------

  Last Energy change         ...    7.3396e-10  Tolerance :   1.0000e-08
  Last MAX-Density change    ...    5.0558e-05  Tolerance :   1.0000e-07
  Last RMS-Density change    ...    2.4527e-07  Tolerance :   5.0000e-09
  Last DIIS Error            ...    4.4765e-04  Tolerance :   5.0000e-07
  Last Orbital Gradient      ...    2.5631e-06  Tolerance :   1.0000e-05
  Last Orbital Rotation      ...    3.9188e-06  Tolerance :   1.0000e-05


----------------
ORBITAL ENERGIES
----------------

  NO   OCC          E(Eh)            E(eV) 
   0   2.0000     -24.658957      -671.0043 
   1   2.0000     -24.658084      -670.9806 
   2   2.0000     -24.657868      -670.9747 
   3   2.0000     -24.657810      -670.9731 
   4   2.0000     -24.657116      -670.9542 
   5   2.0000     -24.656593      -670.9400 
   6   2.0000     -24.656339      -670.9331 
   7   2.0000     -24.654968      -670.8958 
   8   2.0000     -24.654724      -670.8892 
   9   2.0000     -24.649245      -670.7401 
  10   2.0000     -24.649216      -670.7393 
  11   2.0000     -24.639288      -670.4691 
  12   2.0000     -24.638933      -670.4594 
  13   2.0000     -24.617746      -669.8829 
  14   2.0000     -24.616859      -669.8588 
  15   2.0000     -19.022045      -517.6162 
  16   2.0000     -18.999059      -516.9907 
  17   2.0000     -18.995894      -516.9046 
  18   2.0000     -10.389073      -282.7011 
  19   2.0000     -10.336010      -281.2571 
  20   2.0000     -10.335449      -281.2419 
  21   2.0000     -10.332722      -281.1677 
  22   2.0000     -10.325458      -280.9700 
  23   2.0000     -10.311523      -280.5908 
  24   2.0000     -10.277001      -279.6514 
  25   2.0000     -10.197307      -277.4828 
  26   2.0000      -1.327465       -36.1222 
  27   2.0000      -1.304608       -35.5002 
  28   2.0000      -1.288974       -35.0748 
  29   2.0000      -1.280728       -34.8504 
  30   2.0000      -1.276996       -34.7488 
  31   2.0000      -1.266082       -34.4518 
  32   2.0000      -1.240762       -33.7629 
  33   2.0000      -1.239672       -33.7332 
  34   2.0000      -1.233821       -33.5740 
  35   2.0000      -1.231961       -33.5234 
  36   2.0000      -1.226468       -33.3739 
  37   2.0000      -1.223060       -33.2811 
  38   2.0000      -1.219171       -33.1753 
  39   2.0000      -1.208826       -32.8938 
  40   2.0000      -1.181983       -32.1634 
  41   2.0000      -1.010848       -27.5066 
  42   2.0000      -0.960509       -26.1368 
  43   2.0000      -0.931359       -25.3436 
  44   2.0000      -0.822893       -22.3920 
  45   2.0000      -0.801001       -21.7963 
  46   2.0000      -0.771954       -21.0059 
  47   2.0000      -0.733834       -19.9686 
  48   2.0000      -0.690836       -18.7986 
  49   2.0000      -0.662234       -18.0203 
  50   2.0000      -0.645102       -17.5541 
  51   2.0000      -0.625239       -17.0136 
  52   2.0000      -0.620349       -16.8805 
  53   2.0000      -0.612257       -16.6603 
  54   2.0000      -0.603846       -16.4315 
  55   2.0000      -0.599509       -16.3135 
  56   2.0000      -0.598156       -16.2766 
  57   2.0000      -0.585317       -15.9273 
  58   2.0000      -0.581958       -15.8359 
  59   2.0000      -0.578057       -15.7297 
  60   2.0000      -0.570416       -15.5218 
  61   2.0000      -0.559026       -15.2119 
  62   2.0000      -0.556526       -15.1439 
  63   2.0000      -0.550371       -14.9764 
  64   2.0000      -0.543853       -14.7990 
  65   2.0000      -0.527326       -14.3493 
  66   2.0000      -0.488527       -13.2935 
  67   2.0000      -0.486125       -13.2281 
  68   2.0000      -0.484244       -13.1769 
  69   2.0000      -0.478853       -13.0302 
  70   2.0000      -0.474803       -12.9201 
  71   2.0000      -0.470692       -12.8082 
  72   2.0000      -0.467293       -12.7157 
  73   2.0000      -0.463217       -12.6048 
  74   2.0000      -0.458151       -12.4669 
  75   2.0000      -0.453672       -12.3450 
  76   2.0000      -0.450955       -12.2711 
  77   2.0000      -0.448791       -12.2122 
  78   2.0000      -0.443615       -12.0714 
  79   2.0000      -0.440628       -11.9901 
  80   2.0000      -0.436833       -11.8868 
  81   2.0000      -0.432634       -11.7726 
  82   2.0000      -0.429393       -11.6844 
  83   2.0000      -0.422696       -11.5021 
  84   2.0000      -0.422183       -11.4882 
  85   2.0000      -0.418925       -11.3995 
  86   2.0000      -0.415018       -11.2932 
  87   2.0000      -0.414064       -11.2672 
  88   2.0000      -0.410613       -11.1734 
  89   2.0000      -0.410125       -11.1601 
  90   2.0000      -0.407096       -11.0777 
  91   2.0000      -0.405348       -11.0301 
  92   2.0000      -0.399849       -10.8804 
  93   2.0000      -0.393292       -10.7020 
  94   2.0000      -0.388939       -10.5836 
  95   2.0000      -0.386295       -10.5116 
  96   2.0000      -0.374118       -10.1803 
  97   2.0000      -0.372165       -10.1271 
  98   2.0000      -0.345633        -9.4052 
  99   2.0000      -0.341299        -9.2872 
 100   2.0000      -0.313896        -8.5415 
 101   2.0000      -0.268114        -7.2957 
 102   2.0000      -0.243751        -6.6328 
 103   2.0000      -0.230186        -6.2637 
 104   2.0000      -0.221317        -6.0224 
 105   0.0000      -0.009300        -0.2531 
 106   0.0000       0.003224         0.0877 
 107   0.0000       0.018233         0.4961 
 108   0.0000       0.048205         1.3117 
 109   0.0000       0.053002         1.4423 
 110   0.0000       0.060390         1.6433 
 111   0.0000       0.092951         2.5293 
 112   0.0000       0.100874         2.7449 
 113   0.0000       0.104409         2.8411 
 114   0.0000       0.114595         3.1183 
 115   0.0000       0.130306         3.5458 
*Only the first 10 virtual orbitals were printed.

                    ********************************
                    * MULLIKEN POPULATION ANALYSIS *
                    ********************************

-----------------------
MULLIKEN ATOMIC CHARGES
-----------------------
   0 C :    0.403869
   1 C :    0.287171
   2 C :    0.264567
   3 C :    0.286748
   4 C :    0.287798
   5 C :    0.303990
   6 C :    0.273472
   7 C :    0.186614
   8 F :   -0.134280
   9 F :   -0.131736
  10 F :   -0.134230
  11 F :   -0.144536
  12 F :   -0.142121
  13 F :   -0.146119
  14 F :   -0.147784
  15 F :   -0.146973
  16 F :   -0.149160
  17 F :   -0.152366
  18 F :   -0.154908
  19 F :   -0.169604
  20 F :   -0.163256
  21 F :   -0.196423
  22 F :   -0.190498
  23 O :   -0.456091
  24 O :   -0.505158
  25 O :   -0.729588
  26 H :    0.339342
  27 H :    0.361261
Sum of atomic charges:   -1.0000000

--------------------------------
MULLIKEN REDUCED ORBITAL CHARGES
--------------------------------
  0 C s       :     3.011790  s :     3.011790
      pz      :     0.690023  p :     2.172565
      px      :     0.685081
      py      :     0.797461
      dz2     :     0.067787  d :     0.369943
      dxz     :     0.082986
      dyz     :     0.078211
      dx2y2   :     0.072975
      dxy     :     0.067983
      f0      :     0.006342  f :     0.041833
      f+1     :     0.009121
      f-1     :     0.005154
      f+2     :     0.003267
      f-2     :     0.006157
      f+3     :     0.004624
      f-3     :     0.007168

  1 C s       :     3.094432  s :     3.094432
      pz      :     0.643826  p :     2.283971
      px      :     0.736172
      py      :     0.903974
      dz2     :     0.074755  d :     0.304804
      dxz     :     0.065759
      dyz     :     0.060898
      dx2y2   :     0.042374
      dxy     :     0.061017
      f0      :     0.005309  f :     0.029621
      f+1     :     0.006289
      f-1     :     0.003125
      f+2     :     0.004912
      f-2     :     0.004338
      f+3     :     0.002891
      f-3     :     0.002758

  2 C s       :     3.128677  s :     3.128677
      pz      :     0.600854  p :     2.266075
      px      :     0.735170
      py      :     0.930050
      dz2     :     0.082385  d :     0.311131
      dxz     :     0.057702
      dyz     :     0.070299
      dx2y2   :     0.036572
      dxy     :     0.064173
      f0      :     0.006633  f :     0.029550
      f+1     :     0.004422
      f-1     :     0.003582
      f+2     :     0.005171
      f-2     :     0.005291
      f+3     :     0.002279
      f-3     :     0.002170

  3 C s       :     3.121007  s :     3.121007
      pz      :     0.636308  p :     2.251936
      px      :     0.724002
      py      :     0.891627
      dz2     :     0.079548  d :     0.310774
      dxz     :     0.065201
      dyz     :     0.060108
      dx2y2   :     0.043593
      dxy     :     0.062324
      f0      :     0.005520  f :     0.029535
      f+1     :     0.006099
      f-1     :     0.003063
      f+2     :     0.004864
      f-2     :     0.004526
      f+3     :     0.002709
      f-3     :     0.002753

  4 C s       :     3.125254  s :     3.125254
      pz      :     0.623812  p :     2.250926
      px      :     0.703815
      py      :     0.923300
      dz2     :     0.065245  d :     0.306694
      dxz     :     0.072021
      dyz     :     0.065990
      dx2y2   :     0.041025
      dxy     :     0.062413
      f0      :     0.004304  f :     0.029327
      f+1     :     0.008052
      f-1     :     0.003913
      f+2     :     0.003215
      f-2     :     0.003605
      f+3     :     0.002387
      f-3     :     0.003851

  5 C s       :     3.112462  s :     3.112462
      pz      :     0.686738  p :     2.251453
      px      :     0.660334
      py      :     0.904381
      dz2     :     0.059702  d :     0.302883
      dxz     :     0.078383
      dyz     :     0.052448
      dx2y2   :     0.047930
      dxy     :     0.064421
      f0      :     0.005707  f :     0.029211
      f+1     :     0.005660
      f-1     :     0.003851
      f+2     :     0.004253
      f-2     :     0.002145
      f+3     :     0.002815
      f-3     :     0.004780

  6 C s       :     3.130712  s :     3.130712
      pz      :     0.680474  p :     2.298407
      px      :     0.631739
      py      :     0.986194
      dz2     :     0.045915  d :     0.270069
      dxz     :     0.063491
      dyz     :     0.051959
      dx2y2   :     0.049824
      dxy     :     0.058880
      f0      :     0.005753  f :     0.027339
      f+1     :     0.003469
      f-1     :     0.003553
      f+2     :     0.004369
      f-2     :     0.002497
      f+3     :     0.003162
      f-3     :     0.004536

  7 C s       :     3.050585  s :     3.050585
      pz      :     0.828073  p :     2.476641
      px      :     0.756219
      py      :     0.892350
      dz2     :     0.012802  d :     0.261116
      dxz     :     0.072244
      dyz     :     0.017130
      dx2y2   :     0.080222
      dxy     :     0.078719
      f0      :     0.002412  f :     0.025043
      f+1     :     0.002205
      f-1     :     0.001084
      f+2     :     0.002318
      f-2     :     0.002800
      f+3     :     0.006861
      f-3     :     0.007363

  8 F s       :     3.910879  s :     3.910879
      pz      :     1.796609  p :     5.205955
      px      :     1.544868
      py      :     1.864478
      dz2     :     0.002266  d :     0.016656
      dxz     :     0.005379
      dyz     :     0.001038
      dx2y2   :     0.004438
      dxy     :     0.003535
      f0      :     0.000090  f :     0.000790
      f+1     :     0.000137
      f-1     :     0.000014
      f+2     :     0.000188
      f-2     :     0.000099
      f+3     :     0.000133
      f-3     :     0.000131

  9 F s       :     3.909197  s :     3.909197
      pz      :     1.464343  p :     5.204912
      px      :     1.868291
      py      :     1.872278
      dz2     :     0.008056  d :     0.016822
      dxz     :     0.003799
      dyz     :     0.004179
      dx2y2   :     0.000330
      dxy     :     0.000458
      f0      :     0.000333  f :     0.000805
      f+1     :     0.000190
      f-1     :     0.000208
      f+2     :     0.000028
      f-2     :     0.000041
      f+3     :     0.000003
      f-3     :     0.000002

 10 F s       :     3.909617  s :     3.909617
      pz      :     1.886281  p :     5.207259
      px      :     1.732636
      py      :     1.588342
      dz2     :     0.002401  d :     0.016563
      dxz     :     0.001346
      dyz     :     0.002336
      dx2y2   :     0.003994
      dxy     :     0.006485
      f0      :     0.000067  f :     0.000791
      f+1     :     0.000066
      f-1     :     0.000110
      f+2     :     0.000016
      f-2     :     0.000104
      f+3     :     0.000247
      f-3     :     0.000181

 11 F s       :     3.915774  s :     3.915774
      pz      :     1.740462  p :     5.211513
      px      :     1.606743
      py      :     1.864308
      dz2     :     0.002399  d :     0.016508
      dxz     :     0.005762
      dyz     :     0.001772
      dx2y2   :     0.003285
      dxy     :     0.003291
      f0      :     0.000079  f :     0.000741
      f+1     :     0.000153
      f-1     :     0.000026
      f+2     :     0.000171
      f-2     :     0.000141
      f+3     :     0.000076
      f-3     :     0.000095

 12 F s       :     3.913359  s :     3.913359
      pz      :     1.535437  p :     5.211388
      px      :     1.826764
      py      :     1.849187
      dz2     :     0.005860  d :     0.016619
      dxz     :     0.004316
      dyz     :     0.004370
      dx2y2   :     0.000902
      dxy     :     0.001172
      f0      :     0.000184  f :     0.000754
      f+1     :     0.000190
      f-1     :     0.000186
      f+2     :     0.000070
      f-2     :     0.000105
      f+3     :     0.000010
      f-3     :     0.000008

 13 F s       :     3.916271  s :     3.916271
      pz      :     1.620698  p :     5.212485
      px      :     1.715351
      py      :     1.876435
      dz2     :     0.003886  d :     0.016620
      dxz     :     0.006018
      dyz     :     0.002814
      dx2y2   :     0.001832
      dxy     :     0.002071
      f0      :     0.000101  f :     0.000744
      f+1     :     0.000237
      f-1     :     0.000068
      f+2     :     0.000137
      f-2     :     0.000138
      f+3     :     0.000029
      f-3     :     0.000035

 14 F s       :     3.916595  s :     3.916595
      pz      :     1.581847  p :     5.213950
      px      :     1.739061
      py      :     1.893042
      dz2     :     0.004602  d :     0.016502
      dxz     :     0.006006
      dyz     :     0.002804
      dx2y2   :     0.001486
      dxy     :     0.001605
      f0      :     0.000127  f :     0.000737
      f+1     :     0.000268
      f-1     :     0.000070
      f+2     :     0.000124
      f-2     :     0.000109
      f+3     :     0.000018
      f-3     :     0.000022

 15 F s       :     3.915669  s :     3.915669
      pz      :     1.545207  p :     5.213946
      px      :     1.817400
      py      :     1.851338
      dz2     :     0.005593  d :     0.016612
      dxz     :     0.004496
      dyz     :     0.004242
      dx2y2   :     0.000991
      dxy     :     0.001289
      f0      :     0.000169  f :     0.000746
      f+1     :     0.000197
      f-1     :     0.000170
      f+2     :     0.000074
      f-2     :     0.000112
      f+3     :     0.000013
      f-3     :     0.000010

 16 F s       :     3.916097  s :     3.916097
      pz      :     1.722016  p :     5.215881
      px      :     1.621144
      py      :     1.872721
      dz2     :     0.002597  d :     0.016445
      dxz     :     0.005975
      dyz     :     0.001874
      dx2y2   :     0.003013
      dxy     :     0.002986
      f0      :     0.000078  f :     0.000736
      f+1     :     0.000172
      f-1     :     0.000027
      f+2     :     0.000176
      f-2     :     0.000138
      f+3     :     0.000065
      f-3     :     0.000080

 17 F s       :     3.914733  s :     3.914733
      pz      :     1.475162  p :     5.220461
      px      :     1.875405
      py      :     1.869893
      dz2     :     0.007558  d :     0.016433
      dxz     :     0.003411
      dyz     :     0.004525
      dx2y2   :     0.000473
      dxy     :     0.000466
      f0      :     0.000297  f :     0.000739
      f+1     :     0.000152
      f-1     :     0.000213
      f+2     :     0.000036
      f-2     :     0.000037
      f+3     :     0.000003
      f-3     :     0.000002

 18 F s       :     3.915549  s :     3.915549
      pz      :     1.793622  p :     5.222376
      px      :     1.528437
      py      :     1.900317
      dz2     :     0.002055  d :     0.016254
      dxz     :     0.005407
      dyz     :     0.000880
      dx2y2   :     0.004674
      dxy     :     0.003239
      f0      :     0.000081  f :     0.000728
      f+1     :     0.000132
      f-1     :     0.000003
      f+2     :     0.000202
      f-2     :     0.000069
      f+3     :     0.000136
      f-3     :     0.000105

 19 F s       :     3.915404  s :     3.915404
      pz      :     1.492355  p :     5.237486
      px      :     1.879487
      py      :     1.865644
      dz2     :     0.007061  d :     0.015992
      dxz     :     0.003193
      dyz     :     0.004616
      dx2y2   :     0.000629
      dxy     :     0.000493
      f0      :     0.000264  f :     0.000723
      f+1     :     0.000142
      f-1     :     0.000218
      f+2     :     0.000048
      f-2     :     0.000044
      f+3     :     0.000003
      f-3     :     0.000004

 20 F s       :     3.917221  s :     3.917221
      pz      :     1.877251  p :     5.229124
      px      :     1.456616
      py      :     1.895257
      dz2     :     0.002222  d :     0.016179
      dxz     :     0.003672
      dyz     :     0.000257
      dx2y2   :     0.006076
      dxy     :     0.003952
      f0      :     0.000068  f :     0.000731
      f+1     :     0.000136
      f-1     :     0.000012
      f+2     :     0.000118
      f-2     :     0.000019
      f+3     :     0.000214
      f-3     :     0.000165

 21 F s       :     3.912646  s :     3.912646
      pz      :     1.530938  p :     5.268222
      px      :     1.846316
      py      :     1.890968
      dz2     :     0.005855  d :     0.014883
      dxz     :     0.004038
      dyz     :     0.003598
      dx2y2   :     0.000725
      dxy     :     0.000667
      f0      :     0.000194  f :     0.000672
      f+1     :     0.000205
      f-1     :     0.000137
      f+2     :     0.000061
      f-2     :     0.000062
      f+3     :     0.000007
      f-3     :     0.000006

 22 F s       :     3.911012  s :     3.911012
      pz      :     1.891293  p :     5.263640
      px      :     1.480318
      py      :     1.892029
      dz2     :     0.002065  d :     0.015165
      dxz     :     0.003008
      dyz     :     0.000210
      dx2y2   :     0.005755
      dxy     :     0.004127
      f0      :     0.000052  f :     0.000681
      f+1     :     0.000131
      f-1     :     0.000013
      f+2     :     0.000085
      f-2     :     0.000013
      f+3     :     0.000209
      f-3     :     0.000178

 23 O s       :     3.789413  s :     3.789413
      pz      :     1.515849  p :     4.637368
      px      :     1.513735
      py      :     1.607784
      dz2     :     0.002574  d :     0.027527
      dxz     :     0.005685
      dyz     :     0.003722
      dx2y2   :     0.007201
      dxy     :     0.008344
      f0      :     0.000191  f :     0.001782
      f+1     :     0.000134
      f-1     :     0.000080
      f+2     :     0.000033
      f-2     :     0.000388
      f+3     :     0.000484
      f-3     :     0.000472

 24 O s       :     3.811720  s :     3.811720
      pz      :     1.545480  p :     4.667784
      px      :     1.330561
      py      :     1.791743
      dz2     :     0.002464  d :     0.023837
      dxz     :     0.007961
      dyz     :     0.000485
      dx2y2   :     0.006526
      dxy     :     0.006401
      f0      :     0.000171  f :     0.001816
      f+1     :     0.000266
      f-1     :     0.000020
      f+2     :     0.000382
      f-2     :     0.000058
      f+3     :     0.000465
      f-3     :     0.000454

 25 O s       :     3.803527  s :     3.803527
      pz      :     1.931707  p :     4.904170
      px      :     1.536564
      py      :     1.435898
      dz2     :     0.003555  d :     0.020524
      dxz     :     0.002215
      dyz     :     0.001951
      dx2y2   :     0.012404
      dxy     :     0.000400
      f0      :     0.000210  f :     0.001367
      f+1     :     0.000248
      f-1     :     0.000291
      f+2     :     0.000148
      f-2     :     0.000020
      f+3     :     0.000164
      f-3     :     0.000287

 26 H s       :     0.615815  s :     0.615815
      pz      :     0.015759  p :     0.044842
      px      :     0.011381
      py      :     0.017702

 27 H s       :     0.588363  s :     0.588363
      pz      :     0.015003  p :     0.050376
      px      :     0.024890
      py      :     0.010484



                     *******************************
                     * LOEWDIN POPULATION ANALYSIS *
                     *******************************

----------------------
LOEWDIN ATOMIC CHARGES
----------------------
[...]
      f-3     :     0.000004

 18 F s       :     3.598520  s :     3.598520
      pz      :     1.801736  p :     5.149859
      px      :     1.528249
      py      :     1.819874
      dz2     :     0.004112  d :     0.030905
      dxz     :     0.006512
      dyz     :     0.000590
      dx2y2   :     0.011908
      dxy     :     0.007783
      f0      :     0.000130  f :     0.001528
      f+1     :     0.000278
      f-1     :     0.000024
      f+2     :     0.000260
      f-2     :     0.000044
      f+3     :     0.000401
      f-3     :     0.000390

 19 F s       :     3.602027  s :     3.602027
      pz      :     1.577716  p :     5.159526
      px      :     1.778784
      py      :     1.803026
      dz2     :     0.011211  d :     0.030139
      dxz     :     0.007768
      dyz     :     0.007677
      dx2y2   :     0.001707
      dxy     :     0.001776
      f0      :     0.000385  f :     0.001484
      f+1     :     0.000381
      f-1     :     0.000318
      f+2     :     0.000180
      f-2     :     0.000178
      f+3     :     0.000020
      f-3     :     0.000020

 20 F s       :     3.599735  s :     3.599735
      pz      :     1.811553  p :     5.153558
      px      :     1.521156
      py      :     1.820849
      dz2     :     0.004110  d :     0.030603
      dxz     :     0.006039
      dyz     :     0.000267
      dx2y2   :     0.012404
      dxy     :     0.007783
      f0      :     0.000141  f :     0.001511
      f+1     :     0.000257
      f-1     :     0.000027
      f+2     :     0.000228
      f-2     :     0.000020
      f+3     :     0.000438
      f-3     :     0.000399

 21 F s       :     3.612727  s :     3.612727
      pz      :     1.622296  p :     5.191558
      px      :     1.731899
      py      :     1.837363
      dz2     :     0.007173  d :     0.029311
      dxz     :     0.010661
      dyz     :     0.005589
      dx2y2   :     0.002812
      dxy     :     0.003076
      f0      :     0.000204  f :     0.001416
      f+1     :     0.000450
      f-1     :     0.000154
      f+2     :     0.000262
      f-2     :     0.000250
      f+3     :     0.000054
      f-3     :     0.000042

 22 F s       :     3.609624  s :     3.609624
      pz      :     1.791056  p :     5.188253
      px      :     1.573843
      py      :     1.823353
      dz2     :     0.003143  d :     0.029450
      dxz     :     0.007412
      dyz     :     0.001170
      dx2y2   :     0.009570
      dxy     :     0.008156
      f0      :     0.000135  f :     0.001431
      f+1     :     0.000206
      f-1     :     0.000015
      f+2     :     0.000259
      f-2     :     0.000132
      f+3     :     0.000341
      f-3     :     0.000343

 23 O s       :     3.425150  s :     3.425150
      pz      :     1.427870  p :     4.529450
      px      :     1.533875
      py      :     1.567705
      dz2     :     0.007478  d :     0.062631
      dxz     :     0.012658
      dyz     :     0.003813
      dx2y2   :     0.017712
      dxy     :     0.020970
      f0      :     0.000493  f :     0.005622
      f+1     :     0.000728
      f-1     :     0.000221
      f+2     :     0.000440
      f-2     :     0.000679
      f+3     :     0.001463
      f-3     :     0.001598

 24 O s       :     3.422704  s :     3.422704
      pz      :     1.476343  p :     4.560578
      px      :     1.480302
      py      :     1.603933
      dz2     :     0.007504  d :     0.062351
      dxz     :     0.014053
      dyz     :     0.001828
      dx2y2   :     0.020036
      dxy     :     0.018930
      f0      :     0.000481  f :     0.005376
      f+1     :     0.000784
      f-1     :     0.000136
      f+2     :     0.000655
      f-2     :     0.000332
      f+3     :     0.001473
      f-3     :     0.001515

 25 O s       :     3.470433  s :     3.470433
      pz      :     1.864223  p :     4.871701
      px      :     1.469161
      py      :     1.538317
      dz2     :     0.004555  d :     0.028772
      dxz     :     0.002859
      dyz     :     0.000900
      dx2y2   :     0.014989
      dxy     :     0.005470
      f0      :     0.000225  f :     0.002242
      f+1     :     0.000190
      f-1     :     0.000391
      f+2     :     0.000279
      f-2     :     0.000044
      f+3     :     0.000838
      f-3     :     0.000275

 26 H s       :     0.684253  s :     0.684253
      pz      :     0.045223  p :     0.160496
      px      :     0.036190
      py      :     0.079082

 27 H s       :     0.676997  s :     0.676997
      pz      :     0.049193  p :     0.183262
      px      :     0.103531
      py      :     0.030538



                      *****************************
                      * MAYER POPULATION ANALYSIS *
                      *****************************

  NA   - Mulliken gross atomic population
  ZA   - Total nuclear charge
  QA   - Mulliken gross atomic charge
  VA   - Mayer's total valence
  BVA  - Mayer's bonded valence
  FA   - Mayer's free valence

  ATOM       NA         ZA         QA         VA         BVA        FA
  0 C      5.5913     6.0000     0.4087     4.5715     4.5715    -0.0000
  1 C      5.7046     6.0000     0.2954     4.2510     4.2510    -0.0000
  2 C      5.7284     6.0000     0.2716     4.2269     4.2269     0.0000
  3 C      5.7055     6.0000     0.2945     4.2477     4.2477     0.0000
  4 C      5.7053     6.0000     0.2947     4.2439     4.2439    -0.0000
  5 C      5.7290     6.0000     0.2710     4.1487     4.1487    -0.0000
  6 C      5.6976     6.0000     0.3024     3.9733     3.9733    -0.0000
  7 C      5.7862     6.0000     0.2138     4.5412     4.5412    -0.0000
  8 F      9.1358     9.0000    -0.1358     1.1892     1.1892    -0.0000
  9 F      9.1332     9.0000    -0.1332     1.1921     1.1921    -0.0000
 10 F      9.1331     9.0000    -0.1331     1.1919     1.1919    -0.0000
 11 F      9.1468     9.0000    -0.1468     1.1804     1.1804    -0.0000
 12 F      9.1439     9.0000    -0.1439     1.1821     1.1821    -0.0000
 13 F      9.1492     9.0000    -0.1492     1.1809     1.1809    -0.0000
 14 F      9.1489     9.0000    -0.1489     1.1787     1.1787     0.0000
 15 F      9.1498     9.0000    -0.1498     1.1781     1.1781    -0.0000
 16 F      9.1505     9.0000    -0.1505     1.1762     1.1762    -0.0000
 17 F      9.1546     9.0000    -0.1546     1.1709     1.1709    -0.0000
 18 F      9.1554     9.0000    -0.1554     1.1676     1.1676     0.0000
 19 F      9.1699     9.0000    -0.1699     1.1480     1.1480    -0.0000
 20 F      9.1631     9.0000    -0.1631     1.1590     1.1590    -0.0000
 21 F      9.1953     9.0000    -0.1953     1.0939     1.0939    -0.0000
 22 F      9.1904     9.0000    -0.1904     1.1109     1.1109    -0.0000
 23 O      8.4558     8.0000    -0.4558     2.0256     2.0256     0.0000
 24 O      8.5244     8.0000    -0.5244     1.9025     1.9025    -0.0000
 25 O      8.7394     8.0000    -0.7394     1.7189     1.7189     0.0000
 26 H      0.6694     1.0000     0.3306     0.9051     0.9051    -0.0000
 27 H      0.6432     1.0000     0.3568     0.9374     0.9374    -0.0000

  Mayer bond orders larger than 0.100000
B(  0-C ,  1-C ) :   0.9714 B(  0-C ,  8-F ) :   1.1596 B(  0-C ,  9-F ) :   1.1708 
B(  0-C , 10-F ) :   1.1623 B(  1-C ,  2-C ) :   0.9444 B(  1-C , 11-F ) :   1.1001 
B(  1-C , 12-F ) :   1.1130 B(  2-C ,  3-C ) :   0.9487 B(  2-C , 13-F ) :   1.0969 
B(  2-C , 14-F ) :   1.1018 B(  3-C ,  4-C ) :   0.9560 B(  3-C , 15-F ) :   1.0947 
B(  3-C , 16-F ) :   1.0931 B(  4-C ,  5-C ) :   0.9437 B(  4-C , 17-F ) :   1.0941 
B(  4-C , 18-F ) :   1.0854 B(  5-C ,  6-C ) :   0.9307 B(  5-C , 19-F ) :   1.0735 
B(  5-C , 20-F ) :   1.0850 B(  6-C ,  7-C ) :   0.8788 B(  6-C , 21-F ) :   1.0446 
B(  6-C , 22-F ) :   1.0620 B(  7-C , 23-O ) :   1.9139 B(  7-C , 24-O ) :   1.6749 
B( 24-O , 27-H ) :   0.1114 B( 25-O , 26-H ) :   0.8991 B( 25-O , 27-H ) :   0.8133 


-------
TIMINGS
-------

Total SCF time: 0 days 0 hours 0 min 38 sec 

Total time                  ....      38.069 sec
Sum of individual times     ....      37.271 sec  ( 97.9%)

SCF preparation             ....       1.285 sec  (  3.4%)
Fock matrix formation       ....      31.988 sec  ( 84.0%)
  Startup                   ....       0.159 sec  (  0.5% of F)
  Split-RI-J                ....       2.480 sec  (  7.8% of F)
  Chain of spheres X        ....      21.185 sec  ( 66.2% of F)
  XC integration            ....       5.651 sec  ( 17.7% of F)
    XC Preparation          ....       0.000 sec  (  0.0% of XC)
    Basis function eval.    ....       0.526 sec  (  9.3% of XC)
    Density eval.           ....       1.348 sec  ( 23.9% of XC)
    XC-Functional eval.     ....       0.087 sec  (  1.5% of XC)
    XC-Potential eval.      ....       1.159 sec  ( 20.5% of XC)
  CPCM terms                ....       2.146 sec  (  6.7% of F)
Diagonalization             ....       0.000 sec  (  0.0%)
Density matrix formation    ....       0.460 sec  (  1.2%)
Total Energy calculation    ....       0.170 sec  (  0.4%)
Population analysis         ....       0.369 sec  (  1.0%)
Orbital Transformation      ....       0.519 sec  (  1.4%)
Orbital Orthonormalization  ....       0.000 sec  (  0.0%)
DIIS solution               ....       1.401 sec  (  3.7%)
SOSCF solution              ....       1.079 sec  (  2.8%)
Finished LeanSCF after  38.5 sec

Maximum memory used throughout the entire LEANSCF-calculation: 108.7 MB


-------------------------------------------------------------------------------
                          DFT DISPERSION CORRECTION                            
                                                                               
                              DFTD3 V3.1  Rev 1                                
                          USING Becke-Johnson damping                          
-------------------------------------------------------------------------------
The TPSSH functional is recognized
Active option DFTDOPT                   ...         4   

molecular C6(AA) [au] = 7742.065181 


            DFT-D V3
 parameters
 s6 scaling factor         :     1.0000 
 a1 scaling factor         :     0.4529 
 s8 scaling factor         :     2.2382 
 a2 scaling factor         :     4.6550 
 ad hoc parameters k1-k3   :    16.0000     1.3333    -4.0000 

 Edisp/kcal,au: -20.619404654926  -0.032859109396 
 E6   /kcal   : -10.081439409 
 E8   /kcal   : -10.537965246 
 % E8         :  51.107029629 

-------------------------   ----------------
Dispersion correction           -0.032859109
-------------------------   ----------------


-------------------------   --------------------
FINAL SINGLE POINT ENERGY     -2030.366682664414
-------------------------   --------------------

                                *** OPTIMIZATION RUN DONE ***



           ************************************************************
           *        Program running with 20 parallel MPI-processes    *
           *              working on a common directory               *
           ************************************************************

------------------------------------------------------------------------------
                              ORCA PROPERTY CALCULATIONS
------------------------------------------------------------------------------

GBWName                                 ... rf_mecn_1H2O_opt_TP_con_001.gbw
Number of atoms                         ...     28
Number of basis functions               ...    818
Max core memory                         ...   8000 MB

Electric properties:
Dipole moment                           ... YES
Quadrupole moment                       ...  NO
Static polarizability (Dipole/Dipole)   ...  NO
Static polarizability (Dipole/Quad.)    ...  NO
Static polarizability (Quad./Quad.)     ...  NO
Static polarizability (Velocity)        ...  NO

Atomic electric properties:
Dipole moment                           ...  NO
Quadrupole moment                       ...  NO
Static polarizability                   ...  NO

Choice of electric origin               ... Center of mass
Position of electric origin             ...    12.457457    44.699465     3.357971

General magnetic properties:
Magnetizability                         ...  NO

EPR properties:
g-Tensor (aka g-matrix)                 ...  NO
Zero-Field splitting spin-orbit         ...  NO
Zero-field splitting spin-spin          ...  NO
Hyperfine couplings                     ...  NO (   0 nuclei)
Quadrupole couplings                    ...  NO (   0 nuclei)
Contact density                         ...  NO (   0 nuclei)

NMR properties:
Chemical shifts                         ...  NO (   0 nuclei)
Spin-rotation constants                 ...  NO (   0 nuclei)
Spin-spin couplings                     ...  NO (   0 nuclei,    0 pairs)

Choice of magnetic origin               ... GIAO
Position of magnetic origin             ...     0.000000     0.000000     0.000000

Properties with geometric perturbations:
SCF Hessian                             ...  NO
IR spectrum                             ...  NO
VCD spectrum                            ...  NO
X-ray spectroscopy properties:
SCF XES/XAS/RIXS spectra                ...  NO


-------------
DIPOLE MOMENT
-------------

Method             : SCF
Type of density    : Electron Density
Multiplicity       :   1
Irrep              :   0
Energy             : -2030.3338235550181707 Eh
Relativity type    : 
Basis              : AO
                                X                 Y                 Z
Electronic contribution:      8.230008610      29.588485242       5.391087251
Nuclear contribution   :     -7.779321140     -21.785954617      -4.168812240
                        -----------------------------------------
Total Dipole Moment    :      0.450687469       7.802530625       1.222275011
                        -----------------------------------------
Magnitude (a.u.)       :      7.910534720
Magnitude (Debye)      :     20.106981331



--------------------
Rotational spectrum 
--------------------
 
Rotational constants in cm-1:             0.016764             0.003404             0.003241 
Rotational constants in MHz :           502.558159           102.038016            97.156044 

Dipole components along the rotational axes: 
x,y,z [a.u.] :     7.883309     0.082728    -0.650509 
x,y,z [Debye]:    20.037778     0.210279    -1.653463 

 

Dipole moment calculation done in   0.1 sec 

Maximum memory used throughout the entire PROP-calculation: 59.3 MB

--------------------------------
SUGGESTED CITATIONS FOR THIS RUN
--------------------------------

Below you find a list of papers that are relevant to this ORCA run
We neither can nor want to force you to cite these papers, but we appreciate if you do
You receive ORCA, which is the product of decades of hard work by many enthusiastic individuals, for free
The only thing we kindly ask in return is that you cite our papers,
We deeply appreciate it, if you show your appreciation for ORCA by not just citing the generic ORCA reference.

Please note that relegating all ORCA citations to the supporting information does *not* help us.
SI sections are not indexed - citations you put there will not count into any citation statistics
But we need these citations in order to attract the funding resources that allow us to do what we are doing

Therefore, if you are a happy ORCA user, please consider citing a few of the papers listed below in the main body of your paper

In addition to the list printed below, the program has created the file rf_mecn_1H2O_opt_TP_con_001.bibtex that contains the list in bibtex format
You can import this file easily into all common literature databanks and citation aid programs


List of essential papers. We consider these as the minimum necessary citations

  1. Neese,F.
     Software update: the ORCA program system, version 5.0
     WIRES Comput. Molec. Sci., 2022 12(1)e1606
     doi.org/10.1002/wcms.1606

List of papers to cite with high priority. The work reported in these papers was absolutely
necessary for this run to complete.
Our perspective: the developers of density functionals and basis sets usually get cited in chemistry papers
Good! But without the algorithms to do something with them, the functionals or basis sets would not do anything.
Hence, in our opinion, the algorithm design and method developments papers are equally worthy of getting cited

  1. Neese,F.
     An improvement of the resolution of the identity approximation for the formation of the Coulomb matrix
     J. Comp. Chem., 2003 24(14)1740-1747
     doi.org/10.1002/jcc.10318
  2. Neese,F.; Wennmohs,F.; Hansen,A.; Becker,U.
     Efficient, approximate and parallel Hartree-Fock and hybrid DFT calculations. A 'chain-of-spheres' algorithm for the Hartree-Fock exchange
     Chem. Phys., 2009 356(1-3)98-109
     doi.org/10.1016/j.chemphys.2008.10.036
  3. Garcia-Rates,M.; Neese,F.
     Effect of the Solute Cavity on the Solvation Energy and its Derivatives within the Framework of the Gaussian Charge Scheme
     J. Comput. Chem., 2020 41 922-939
     doi.org/10.1002/jcc.26139
  4. Helmich-Paris,B.; de Souza,B.; Neese,F.; Izsák,R.
     An improved chain of spheres for exchange algorithm
     J. Chem. Phys., 2021 155 104109
     doi.org/doi: 10.1063/5.0058766.
  5. Neese,F.
     The SHARK Integral Generation and Digestion System
     J. Comp. Chem., 2022  1-16
     doi.org/10.1002/jcc.26942
  6. Grimme,S.; Antony,J.; Ehrlich,S.; Krieg,H.
     A consistent and accurate ab initio parametrization of density functional dispersion correction (DFT-D) for the 94 elements H-Pu
     J. Chem. Phys., 2010 132 154104
     doi.org/10.1063/1.3382344
  7. Grimme,S.; Ehrlich,S.; Goerigk,L.
     Effect of the damping function in dispersion corrected density functional theory
     J. Comput. Chem., 2011 32(7)1456-1465
     doi.org/10.1002/jcc.21759

List of suggested additional citations. These are papers that are important in the 'surrounding' of 
of this run, or papers that preceded the highly important papers. If you like your results we are grateful for a citation.

  1. Izsak,R.; Neese,F.
     An overlap fitted chain of spheres exchange method
     J. Chem. Phys., 2011 135 144105
     doi.org/10.1063/1.3646921
  2. Izsak,R.; Hansen,A.; Neese,F.
     The resolution of identity and chain of spheres approximations for the LPNO-CCSD singles Fock term
     Molec. Phys., 2012 110 2413-2417
     doi.org/10.1080/00268976.2012.687466
  3. Neese,F.
     The ORCA program system
     WIRES Comput. Molec. Sci., 2012 2(1)73-78
     doi.org/10.1002/wcms.81
  4. Izsak,R.; Neese,F.; Klopper,W.
     Robust fitting techniques in the chain of spheres approximation to the Fock exchange: The role of the complementary space
     J. Chem. Phys., 2013 139 
     doi.org/10.1063/1.4819264
  5. Neese,F.
     Software update: the ORCA program system, version 4.0
     WIRES Comput. Molec. Sci., 2018 8(1)1-6
     doi.org/10.1002/wcms.1327
  6. Neese,F.; Wennmohs,F.; Becker,U.; Riplinger,C.
     The ORCA quantum chemistry program package
     J. Chem. Phys., 2020 152 Art. No. L224108
     doi.org/10.1063/5.0004608

List of optional additional citations

  1. Neese,F.
     Approximate second-order SCF convergence for spin unrestricted wavefunctions
     Chem. Phys. Lett., 2000 325(1-3)93-98
     doi.org/10.1016/s0009-2614(00)00662-x

Timings for individual modules:

Sum of individual times          ...     3053.047 sec (=  50.884 min)
Startup calculation              ...      154.515 sec (=   2.575 min)   5.1 %
SCF iterations                   ...     2145.374 sec (=  35.756 min)  70.3 %
Property calculations            ...        0.812 sec (=   0.014 min)   0.0 %
SCF Gradient evaluation          ...      751.457 sec (=  12.524 min)  24.6 %
Geometry relaxation              ...        0.889 sec (=   0.015 min)   0.0 %
                             ****ORCA TERMINATED NORMALLY****
TOTAL RUN TIME: 0 days 0 hours 51 minutes 18 seconds 907 msec
