
                                 *****************
                                 * O   R   C   A *
                                 *****************

                                            #,                                       
                                            ###                                      
                                            ####                                     
                                            #####                                    
                                            ######                                   
                                           ########,                                 
                                     ,,################,,,,,                         
                               ,,#################################,,                 
                          ,,##########################################,,             
                       ,#########################################, ''#####,          
                    ,#############################################,,   '####,        
                  ,##################################################,,,,####,       
                ,###########''''           ''''###############################       
              ,#####''   ,,,,##########,,,,          '''####'''          '####       
            ,##' ,,,,###########################,,,                        '##       
           ' ,,###''''                  '''############,,,                           
         ,,##''                                '''############,,,,        ,,,,,,###''
      ,#''                                            '''#######################'''  
     '                                                          ''''####''''         
             ,#######,   #######,   ,#######,      ##                                
            ,#'     '#,  ##    ##  ,#'     '#,    #''#        ######   ,####,        
            ##       ##  ##   ,#'  ##            #'  '#       #        #'  '#        
            ##       ##  #######   ##           ,######,      #####,   #    #        
            '#,     ,#'  ##    ##  '#,     ,#' ,#      #,         ##   #,  ,#        
             '#######'   ##     ##  '#######'  #'      '#     #####' # '####'        



                  #######################################################
                  #                        -***-                        #
                  #          Department of theory and spectroscopy      #
                  #    Directorship and core code : Frank Neese         #
                  #        Max Planck Institute fuer Kohlenforschung    #
                  #                Kaiser Wilhelm Platz 1               #
                  #                 D-45470 Muelheim/Ruhr               #
                  #                      Germany                        #
                  #                                                     #
                  #                  All rights reserved                #
                  #                        -***-                        #
                  #######################################################


                         Program Version 5.0.3 -  RELEASE  -


 With contributions from (in alphabetic order):
   Daniel Aravena         : Magnetic Suceptibility
   Michael Atanasov       : Ab Initio Ligand Field Theory (pilot matlab implementation)
   Alexander A. Auer      : GIAO ZORA, VPT2 properties, NMR spectrum
   Ute Becker             : Parallelization
   Giovanni Bistoni       : ED, misc. LED, open-shell LED, HFLD
   Martin Brehm           : Molecular dynamics
   Dmytro Bykov           : SCF Hessian
   Vijay G. Chilkuri      : MRCI spin determinant printing, contributions to CSF-ICE
   Dipayan Datta          : RHF DLPNO-CCSD density
   Achintya Kumar Dutta   : EOM-CC, STEOM-CC
   Dmitry Ganyushin       : Spin-Orbit,Spin-Spin,Magnetic field MRCI
   Miquel Garcia          : C-PCM and meta-GGA Hessian, CC/C-PCM, Gaussian charge scheme
   Yang Guo               : DLPNO-NEVPT2, F12-NEVPT2, CIM, IAO-localization
   Andreas Hansen         : Spin unrestricted coupled pair/coupled cluster methods
   Benjamin Helmich-Paris : MC-RPA, TRAH-SCF, COSX integrals
   Lee Huntington         : MR-EOM, pCC
   Robert Izsak           : Overlap fitted RIJCOSX, COSX-SCS-MP3, EOM
   Marcus Kettner         : VPT2
   Christian Kollmar      : KDIIS, OOCD, Brueckner-CCSD(T), CCSD density, CASPT2, CASPT2-K
   Simone Kossmann        : Meta GGA functionals, TD-DFT gradient, OOMP2, MP2 Hessian
   Martin Krupicka        : Initial AUTO-CI
   Lucas Lang             : DCDCAS
   Marvin Lechner         : AUTO-CI (C++ implementation), FIC-MRCC
   Dagmar Lenk            : GEPOL surface, SMD
   Dimitrios Liakos       : Extrapolation schemes; Compound Job, initial MDCI parallelization
   Dimitrios Manganas     : Further ROCIS development; embedding schemes
   Dimitrios Pantazis     : SARC Basis sets
   Anastasios Papadopoulos: AUTO-CI, single reference methods and gradients
   Taras Petrenko         : DFT Hessian,TD-DFT gradient, ASA, ECA, R-Raman, ABS, FL, XAS/XES, NRVS
   Peter Pinski           : DLPNO-MP2, DLPNO-MP2 Gradient
   Christoph Reimann      : Effective Core Potentials
   Marius Retegan         : Local ZFS, SOC
   Christoph Riplinger    : Optimizer, TS searches, QM/MM, DLPNO-CCSD(T), (RO)-DLPNO pert. Triples
   Tobias Risthaus        : Range-separated hybrids, TD-DFT gradient, RPA, STAB
   Michael Roemelt        : Original ROCIS implementation
   Masaaki Saitow         : Open-shell DLPNO-CCSD energy and density
   Barbara Sandhoefer     : DKH picture change effects
   Avijit Sen             : IP-ROCIS
   Kantharuban Sivalingam : CASSCF convergence, NEVPT2, FIC-MRCI
   Bernardo de Souza      : ESD, SOC TD-DFT
   Georgi Stoychev        : AutoAux, RI-MP2 NMR, DLPNO-MP2 response
   Willem Van den Heuvel  : Paramagnetic NMR
   Boris Wezisla          : Elementary symmetry handling
   Frank Wennmohs         : Technical directorship


 We gratefully acknowledge several colleagues who have allowed us to
 interface, adapt or use parts of their codes:
   Stefan Grimme, W. Hujo, H. Kruse, P. Pracht,  : VdW corrections, initial TS optimization,
                  C. Bannwarth, S. Ehlert          DFT functionals, gCP, sTDA/sTD-DF
   Ed Valeev, F. Pavosevic, A. Kumar             : LibInt (2-el integral package), F12 methods
   Garnet Chan, S. Sharma, J. Yang, R. Olivares  : DMRG
   Ulf Ekstrom                                   : XCFun DFT Library
   Mihaly Kallay                                 : mrcc  (arbitrary order and MRCC methods)
   Jiri Pittner, Ondrej Demel                    : Mk-CCSD
   Frank Weinhold                                : gennbo (NPA and NBO analysis)
   Christopher J. Cramer and Donald G. Truhlar   : smd solvation model
   Lars Goerigk                                  : TD-DFT with DH, B97 family of functionals
   V. Asgeirsson, H. Jonsson                     : NEB implementation
   FAccTs GmbH                                   : IRC, NEB, NEB-TS, DLPNO-Multilevel, CI-OPT
                                                   MM, QMMM, 2- and 3-layer-ONIOM, Crystal-QMMM,
                                                   LR-CPCM, SF, NACMEs, symmetry and pop. for TD-DFT,
                                                   nearIR, NL-DFT gradient (VV10), updates on ESD,
                                                   ML-optimized integration grids
   S Lehtola, MJT Oliveira, MAL Marques          : LibXC Library
   Liviu Ungur et al                             : ANISO software


 Your calculation uses the libint2 library for the computation of 2-el integrals
 For citations please refer to: http://libint.valeyev.net

 Your ORCA version has been built with support for libXC version: 5.1.0
 For citations please refer to: https://tddft.org/programs/libxc/

 This ORCA versions uses:
   CBLAS   interface :  Fast vector & matrix operations
   LAPACKE interface :  Fast linear algebra routines
   SCALAPACK package :  Parallel linear algebra routines
   Shared memory     :  Shared parallel matrices
   BLAS/LAPACK       :  OpenBLAS 0.3.15  USE64BITINT DYNAMIC_ARCH NO_AFFINITY SkylakeX SINGLE_THREADED
        Core in use  :  SkylakeX
   Copyright (c) 2011-2014, The OpenBLAS Project


Your calculation utilizes the atom-pairwise dispersion correction
with the Becke-Johnson damping scheme (D3BJ)
Cite in your paper:
S.Grimme, S.Ehrlich, L.Goerigk, J Comput Chem, (2011), 32, 1456–1465 
S.Grimme, J.Antony, S.Ehrlich and H.Krieg, J.Chem.Phys., 132, (2010), 154104 
   

Your calculation utilizes the SMD solvation module
Please cite in your paper:
A.V. Marenich, C.J. Cramer, D.G. Truhlar J. Phys. Chem. B, 113, (2009), 6378 

================================================================================

----- Orbital basis set information -----
Your calculation utilizes the basis: def2-TZVP
   F. Weigend and R. Ahlrichs, Phys. Chem. Chem. Phys. 7, 3297 (2005).

----- AuxJ basis set information -----
Your calculation utilizes the auxiliary basis: def2/J
   F. Weigend, Phys. Chem. Chem. Phys. 8, 1057 (2006).

================================================================================
                                        WARNINGS
                       Please study these warnings very carefully!
================================================================================


WARNING: your system is open-shell and RHF/RKS was chosen
  ===> : WILL SWITCH to UHF/UKS


WARNING: Geometry Optimization
  ===> : Switching off AutoStart
         For restart on a previous wavefunction, please use MOREAD

INFO   : the flag for use of the SHARK integral package has been found!

================================================================================
                                       INPUT FILE
================================================================================
NAME = rf_mecn_opt_B3L_C7_D_B.inp
|  1> !B3LYP def2-TZVP opt d3 TightSCF SlowConv defgrid2
|  2>  
|  3> %pal
|  4> nprocs 20
|  5> end
|  6>  
|  7> %scf
|  8> MaxIter 1500
|  9> end
| 10>  
| 11> %maxcore 8000
| 12>  
| 13> !CPCM
| 14> %cpcm smd true
| 15> SMDsolvent "ACETONITRILE"
| 16> end
| 17>  
| 18> * xyz -1 2
| 19> 6        4.790427000     -0.033865800     -0.529943200
| 20> 8        5.449345000     -1.206924000     -0.894594600
| 21> 8        4.978223000      1.323071000     -0.737377200
| 22> 6        3.506687600     -0.338741600      0.376153800
| 23> 6        2.222300000      0.400524800     -0.110681600
| 24> 6        0.900506800     -0.386389800      0.175703000
| 25> 6       -0.395261200      0.487294000      0.065549000
| 26> 6       -1.705693600     -0.364773800     -0.068373600
| 27> 6       -3.005136200      0.445344800      0.258164000
| 28> 6       -4.319880200     -0.214526000     -0.270540800
| 29> 9        3.211587400     -1.692050400      0.412735200
| 30> 9        3.741061800      0.055285800      1.689948800
| 31> 9        2.125696800      1.616867800      0.483236600
| 32> 9        2.314152400      0.589704000     -1.455769200
| 33> 9        0.794028800     -1.413561400     -0.700839000
| 34> 9        0.958350600     -0.884509000      1.435093400
| 35> 9       -0.498373400      1.260265600      1.173340200
| 36> 9       -0.299075000      1.289512600     -1.020910800
| 37> 9       -1.641790400     -1.418189000      0.779523800
| 38> 9       -1.792381400     -0.831391600     -1.336863600
| 39> 9       -3.119771000      0.573779800      1.598579800
| 40> 9       -4.383115600     -1.504377600      0.089127600
| 41> 9       -5.365669800      0.430528600      0.260394200
| 42> 9       -4.396020400     -0.128550600     -1.602941800
| 43> *
| 44> 
| 45>                          ****END OF INPUT****
================================================================================

                       *****************************
                       * Geometry Optimization Run *
                       *****************************

Geometry optimization settings:
Update method            Update   .... BFGS
Choice of coordinates    CoordSys .... Z-matrix Internals
Initial Hessian          InHess   .... Almoef's Model

Convergence Tolerances:
Energy Change            TolE     ....  5.0000e-06 Eh
Max. Gradient            TolMAXG  ....  3.0000e-04 Eh/bohr
RMS Gradient             TolRMSG  ....  1.0000e-04 Eh/bohr
Max. Displacement        TolMAXD  ....  4.0000e-03 bohr
RMS Displacement         TolRMSD  ....  2.0000e-03 bohr
Strict Convergence                ....  False
------------------------------------------------------------------------------
                        ORCA OPTIMIZATION COORDINATE SETUP
------------------------------------------------------------------------------

The optimization will be done in new redundant internal coordinates
Making redundant internal coordinates   ...  (new redundants) done
Evaluating the initial hessian          ...  (Almloef) done
Evaluating the coordinates              ...  done
Calculating the B-matrix                .... done
Calculating the G-matrix                .... done
Diagonalizing the G-matrix              .... done
Small eigenvalue found = 5.867e-03
Small eigenvalue found = 1.603e-02
The first mode is                       ....   53
The number of degrees of freedom        ....   66

    -----------------------------------------------------------------
                    Redundant Internal Coordinates


    -----------------------------------------------------------------
         Definition                    Initial Value    Approx d2E/dq
    -----------------------------------------------------------------
      1. B(O   1,C   0)                  1.3940         0.551454   
      2. B(O   2,C   0)                  1.3855         0.568952   
      3. B(C   3,C   0)                  1.6006         0.288221   
      4. B(C   4,C   3)                  1.5599         0.334759   
      5. B(C   5,C   4)                  1.5647         0.328824   
      6. B(C   6,C   5)                  1.5667         0.326486   
      7. B(C   7,C   6)                  1.5688         0.323927   
      8. B(C   8,C   7)                  1.5657         0.327637   
      9. B(C   9,C   8)                  1.5632         0.330714   
     10. B(F  10,C   3)                  1.3856         0.528443   
     11. B(F  11,C   3)                  1.3915         0.517117   
     12. B(F  12,C   4)                  1.3570         0.586881   
     13. B(F  13,C   4)                  1.3614         0.577499   
     14. B(F  14,C   5)                  1.3545         0.592326   
     15. B(F  15,C   5)                  1.3556         0.590092   
     16. B(F  16,C   6)                  1.3547         0.591865   
     17. B(F  17,C   6)                  1.3540         0.593567   
     18. B(F  18,C   7)                  1.3538         0.593973   
     19. B(F  19,C   7)                  1.3544         0.592672   
     20. B(F  20,C   8)                  1.3514         0.599114   
     21. B(F  21,C   9)                  1.3406         0.623533   
     22. B(F  22,C   9)                  1.3385         0.628179   
     23. B(F  23,C   9)                  1.3373         0.630929   
     24. A(O   1,C   0,C   3)          111.5249         0.369222   
     25. A(O   2,C   0,C   3)          112.3347         0.371210   
     26. A(O   1,C   0,O   2)          136.1318         0.413163   
     27. A(C   4,C   3,F  10)          107.2033         0.374492   
     28. A(C   4,C   3,F  11)          107.4072         0.373095   
     29. A(F  10,C   3,F  11)          106.7094         0.399684   
     30. A(C   0,C   3,C   4)          113.1687         0.341363   
     31. A(C   0,C   3,F  11)          110.2099         0.363632   
     32. A(C   0,C   3,F  10)          111.8265         0.364982   
     33. A(C   3,C   4,F  12)          110.2926         0.381351   
     34. A(F  12,C   4,F  13)          108.2194         0.415201   
     35. A(C   3,C   4,C   5)          113.5839         0.349005   
     36. A(C   5,C   4,F  13)          107.9208         0.379109   
     37. A(C   3,C   4,F  13)          108.5818         0.380286   
     38. A(C   5,C   4,F  12)          108.0911         0.380169   
     39. A(F  14,C   5,F  15)          109.0206         0.417483   
     40. A(C   4,C   5,C   6)          113.9128         0.347536   
     41. A(C   6,C   5,F  15)          107.7906         0.380059   
     42. A(C   4,C   5,F  15)          108.5900         0.380529   
     43. A(C   4,C   5,F  14)          109.2282         0.380779   
     44. A(C   6,C   5,F  14)          108.2026         0.380308   
     45. A(C   5,C   6,C   7)          113.2023         0.346660   
     46. A(F  16,C   6,F  17)          108.8752         0.417862   
     47. A(C   7,C   6,F  17)          108.2186         0.379927   
     48. A(C   5,C   6,F  17)          109.1523         0.380446   
     49. A(C   7,C   6,F  16)          108.4284         0.379738   
     50. A(C   5,C   6,F  16)          108.8835         0.380256   
     51. A(C   8,C   7,F  18)          108.1296         0.380723   
     52. A(C   6,C   7,F  18)          109.2524         0.379972   
     53. A(F  18,C   7,F  19)          108.7561         0.418014   
     54. A(C   6,C   7,C   8)          113.2298         0.346865   
     55. A(C   8,C   7,F  19)          108.6915         0.380579   
     56. A(C   6,C   7,F  19)          108.6955         0.379828   
     57. A(C   9,C   8,F  20)          107.7127         0.381912   
     58. A(C   7,C   8,C   9)          114.1471         0.348078   
     59. A(C   7,C   8,F  20)          109.0521         0.381293   
     60. A(F  22,C   9,F  23)          108.6464         0.426961   
     61. A(F  21,C   9,F  23)          109.0552         0.426394   
     62. A(C   8,C   9,F  23)          110.9604         0.385362   
     63. A(F  21,C   9,F  22)          108.6877         0.426061   
     64. A(C   8,C   9,F  22)          108.6349         0.385069   
     65. A(C   8,C   9,F  21)          110.7995         0.384572   
     66. D(F  10,C   3,C   0,O   1)     -9.8890         0.006601   
     67. D(F  11,C   3,C   0,O   2)    -70.4768         0.006601   
     68. D(C   4,C   3,C   0,O   1)   -131.0839         0.006601   
     69. D(F  10,C   3,C   0,O   2)    171.0025         0.006601   
     70. D(C   4,C   3,C   0,O   2)     49.8076         0.006601   
     71. D(F  11,C   3,C   0,O   1)    108.6317         0.006601   
     72. D(C   5,C   4,C   3,C   0)    148.6429         0.009100   
     73. D(F  12,C   4,C   3,F  11)     32.0233         0.009100   
     74. D(F  13,C   4,C   3,F  11)    150.4470         0.009100   
     75. D(C   5,C   4,C   3,F  11)    -89.4885         0.009100   
     76. D(F  12,C   4,C   3,F  10)    146.3851         0.009100   
     77. D(F  13,C   4,C   3,C   0)     28.5784         0.009100   
     78. D(F  12,C   4,C   3,C   0)    -89.8453         0.009100   
     79. D(F  13,C   4,C   3,F  10)    -95.1911         0.009100   
     80. D(C   5,C   4,C   3,F  10)     24.8733         0.009100   
     81. D(F  15,C   5,C   4,F  13)    164.2540         0.008811   
     82. D(F  15,C   5,C   4,C   3)     43.8158         0.008811   
     83. D(F  14,C   5,C   4,F  12)    162.3014         0.008811   
     84. D(F  14,C   5,C   4,C   3)    -74.9661         0.008811   
     85. D(C   6,C   5,C   4,F  13)    -75.6292         0.008811   
     86. D(F  14,C   5,C   4,F  13)     45.4721         0.008811   
     87. D(F  15,C   5,C   4,F  12)    -78.9166         0.008811   
     88. D(C   6,C   5,C   4,F  12)     41.2001         0.008811   
     89. D(C   6,C   5,C   4,C   3)    163.9326         0.008811   
     90. D(F  16,C   6,C   5,F  15)     44.2190         0.008700   
     91. D(F  16,C   6,C   5,F  14)    161.9826         0.008700   
     92. D(F  16,C   6,C   5,C   4)    -76.3465         0.008700   
     93. D(C   7,C   6,C   5,F  15)    -76.4529         0.008700   
     94. D(C   7,C   6,C   5,F  14)     41.3107         0.008700   
     95. D(F  17,C   6,C   5,C   4)     42.3872         0.008700   
     96. D(C   7,C   6,C   5,C   4)    162.9815         0.008700   
     97. D(F  17,C   6,C   5,F  15)    162.9527         0.008700   
     98. D(F  17,C   6,C   5,F  14)    -79.2837         0.008700   
     99. D(F  19,C   7,C   6,F  17)     44.3783         0.008578   
    100. D(F  19,C   7,C   6,F  16)    162.3257         0.008578   
    101. D(F  19,C   7,C   6,C   5)    -76.7446         0.008578   
    102. D(F  18,C   7,C   6,F  17)    162.9167         0.008578   
    103. D(F  18,C   7,C   6,F  16)    -79.1358         0.008578   
    104. D(F  18,C   7,C   6,C   5)     41.7939         0.008578   
    105. D(C   8,C   7,C   6,F  17)    -76.5134         0.008578   
    106. D(C   8,C   7,C   6,F  16)     41.4341         0.008578   
    107. D(C   8,C   7,C   6,C   5)    162.3638         0.008578   
    108. D(F  20,C   8,C   7,F  19)    162.0243         0.008223   
    109. D(F  20,C   8,C   7,F  18)     44.1231         0.008223   
    110. D(F  20,C   8,C   7,C   6)    -77.0818         0.008223   
    111. D(C   9,C   8,C   7,F  19)     41.5227         0.008223   
    112. D(C   9,C   8,C   7,F  18)    -76.3785         0.008223   
    113. D(C   9,C   8,C   7,C   6)    162.4166         0.008223   
    114. D(F  23,C   9,C   8,F  20)    167.4828         0.008360   
    115. D(F  23,C   9,C   8,C   7)    -71.2711         0.008360   
    116. D(F  22,C   9,C   8,F  20)     48.1091         0.008360   
    117. D(F  22,C   9,C   8,C   7)    169.3552         0.008360   
    118. D(F  21,C   9,C   8,F  20)    -71.2185         0.008360   
    119. D(F  21,C   9,C   8,C   7)     50.0276         0.008360   
    -----------------------------------------------------------------

Number of atoms                         .... 24
Number of degrees of freedom            .... 119

         *************************************************************
         *                GEOMETRY OPTIMIZATION CYCLE   1            *
         *************************************************************
---------------------------------
CARTESIAN COORDINATES (ANGSTROEM)
---------------------------------
  C      4.790427   -0.033866   -0.529943
  O      5.449345   -1.206924   -0.894595
  O      4.978223    1.323071   -0.737377
  C      3.506688   -0.338742    0.376154
  C      2.222300    0.400525   -0.110682
  C      0.900507   -0.386390    0.175703
  C     -0.395261    0.487294    0.065549
  C     -1.705694   -0.364774   -0.068374
  C     -3.005136    0.445345    0.258164
  C     -4.319880   -0.214526   -0.270541
  F      3.211587   -1.692050    0.412735
  F      3.741062    0.055286    1.689949
  F      2.125697    1.616868    0.483237
  F      2.314152    0.589704   -1.455769
  F      0.794029   -1.413561   -0.700839
  F      0.958351   -0.884509    1.435093
  F     -0.498373    1.260266    1.173340
  F     -0.299075    1.289513   -1.020911
  F     -1.641790   -1.418189    0.779524
  F     -1.792381   -0.831392   -1.336864
  F     -3.119771    0.573780    1.598580
  F     -4.383116   -1.504378    0.089128
  F     -5.365670    0.430529    0.260394
  F     -4.396020   -0.128551   -1.602942

----------------------------
CARTESIAN COORDINATES (A.U.)
----------------------------
  NO LB      ZA    FRAG     MASS         X           Y           Z
   0 C     6.0000    0    12.011    9.052595   -0.063997   -1.001448
   1 O     8.0000    0    15.999   10.297770   -2.280756   -1.690539
   2 O     8.0000    0    15.999    9.407478    2.500242   -1.393441
   3 C     6.0000    0    12.011    6.626679   -0.640129    0.710828
   4 C     6.0000    0    12.011    4.199538    0.756882   -0.209158
   5 C     6.0000    0    12.011    1.701711   -0.730171    0.332031
   6 C     6.0000    0    12.011   -0.746935    0.920852    0.123870
   7 C     6.0000    0    12.011   -3.223294   -0.689323   -0.129207
   8 C     6.0000    0    12.011   -5.678884    0.841580    0.487859
   9 C     6.0000    0    12.011   -8.163391   -0.405395   -0.511248
  10 F     9.0000    0    18.998    6.069021   -3.197512    0.779956
  11 F     9.0000    0    18.998    7.069582    0.104475    3.193540
  12 F     9.0000    0    18.998    4.016985    3.055437    0.913185
  13 F     9.0000    0    18.998    4.373114    1.114379   -2.751005
  14 F     9.0000    0    18.998    1.500497   -2.671244   -1.324394
  15 F     9.0000    0    18.998    1.811020   -1.671480    2.711934
  16 F     9.0000    0    18.998   -0.941789    2.381557    2.217292
  17 F     9.0000    0    18.998   -0.565170    2.436826   -1.929242
  18 F     9.0000    0    18.998   -3.102534   -2.679989    1.473086
  19 F     9.0000    0    18.998   -3.387110   -1.571102   -2.526306
  20 F     9.0000    0    18.998   -5.895513    1.084287    3.020878
  21 F     9.0000    0    18.998   -8.282888   -2.842862    0.168427
  22 F     9.0000    0    18.998  -10.139646    0.813581    0.492074
  23 F     9.0000    0    18.998   -8.307275   -0.242925   -3.029121

--------------------------------
INTERNAL COORDINATES (ANGSTROEM)
--------------------------------
 C      0   0   0     0.000000000000     0.00000000     0.00000000
 O      1   0   0     1.393990356793     0.00000000     0.00000000
 O      1   2   0     1.385486802956   136.13177198     0.00000000
 C      1   2   3     1.600608594862   111.52489317   181.18992567
 C      4   1   2     1.559863783763   113.16872737   228.91614990
 C      5   4   1     1.564732561934   113.58394786   148.64287440
 C      6   5   4     1.566675459667   113.91280616   163.93256239
 C      7   6   5     1.568817348692   113.20226571   162.98152714
 C      8   7   6     1.565717094808   113.22984595   162.36375422
 C      9   8   7     1.563173062643   114.14707705   162.41661495
 F      4   1   2     1.385592665621   111.82651119   350.11101305
 F      4   1   2     1.391490625050   110.20991618   108.63170802
 F      5   4   1     1.357041377479   110.29260564   270.15468021
 F      5   4   1     1.361428031433   108.58179722    28.57841973
 F      6   5   4     1.354527570075   109.22822656   285.03385927
 F      6   5   4     1.355556277776   108.59004089    43.81583148
 F      7   6   5     1.354739297058   108.88346185   283.65347401
 F      7   6   5     1.353957667090   109.15230848    42.38718856
 F      8   7   6     1.353771473879   109.25240264    41.79387651
 F      8   7   6     1.354368423305   108.69554158   283.25540020
 F      9   8   7     1.351425618925   109.05210362   282.91820052
 F     10   9   8     1.340551089588   110.79953142    50.02756898
 F     10   9   8     1.338530275591   108.63493714   169.35523750
 F     10   9   8     1.337341214598   110.96044107   288.72891896

---------------------------
INTERNAL COORDINATES (A.U.)
---------------------------
 C      0   0   0     0.000000000000     0.00000000     0.00000000
 O      1   0   0     2.634260007667     0.00000000     0.00000000
 O      1   2   0     2.618190619750   136.13177198     0.00000000
 C      1   2   3     3.024711891890   111.52489317   181.18992567
 C      4   1   2     2.947715357535   113.16872737   228.91614990
 C      5   4   1     2.956916014884   113.58394786   148.64287440
 C      6   5   4     2.960587559506   113.91280616   163.93256239
 C      7   6   5     2.964635143173   113.20226571   162.98152714
 C      8   7   6     2.958776512386   113.22984595   162.36375422
 C      9   8   7     2.953968988318   114.14707705   162.41661495
 F      4   1   2     2.618390671194   111.82651119   350.11101305
 F      4   1   2     2.629536199263   110.20991618   108.63170802
 F      5   4   1     2.564436555835   110.29260564   270.15468021
 F      5   4   1     2.572726130452   108.58179722    28.57841973
 F      6   5   4     2.559686148288   109.22822656   285.03385927
 F      6   5   4     2.561630124115   108.59004089    43.81583148
 F      7   6   5     2.560086254300   108.88346185   283.65347401
 F      7   6   5     2.558609187723   109.15230848    42.38718856
 F      8   7   6     2.558257333546   109.25240264    41.79387651
 F      8   7   6     2.559385404477   108.69554158   283.25540020
 F      9   8   7     2.553824310132   109.05210362   282.91820052
 F     10   9   8     2.533274427850   110.79953142    50.02756898
 F     10   9   8     2.529455642830   108.63493714   169.35523750
 F     10   9   8     2.527208643196   110.96044107   288.72891896

---------------------
BASIS SET INFORMATION
---------------------
There are 3 groups of distinct atoms

 Group   1 Type C   : 11s6p2d1f contracted to 5s3p2d1f pattern {62111/411/11/1}
 Group   2 Type O   : 11s6p2d1f contracted to 5s3p2d1f pattern {62111/411/11/1}
 Group   3 Type F   : 11s6p2d1f contracted to 5s3p2d1f pattern {62111/411/11/1}

Atom   0C    basis set group =>   1
Atom   1O    basis set group =>   2
Atom   2O    basis set group =>   2
Atom   3C    basis set group =>   1
Atom   4C    basis set group =>   1
Atom   5C    basis set group =>   1
Atom   6C    basis set group =>   1
Atom   7C    basis set group =>   1
Atom   8C    basis set group =>   1
Atom   9C    basis set group =>   1
Atom  10F    basis set group =>   3
Atom  11F    basis set group =>   3
Atom  12F    basis set group =>   3
Atom  13F    basis set group =>   3
Atom  14F    basis set group =>   3
Atom  15F    basis set group =>   3
Atom  16F    basis set group =>   3
Atom  17F    basis set group =>   3
Atom  18F    basis set group =>   3
Atom  19F    basis set group =>   3
Atom  20F    basis set group =>   3
Atom  21F    basis set group =>   3
Atom  22F    basis set group =>   3
Atom  23F    basis set group =>   3
---------------------------------
AUXILIARY/J BASIS SET INFORMATION
---------------------------------
There are 3 groups of distinct atoms

 Group   1 Type C   : 12s5p4d2f1g contracted to 6s4p3d1f1g pattern {711111/2111/211/2/1}
 Group   2 Type O   : 12s5p4d2f1g contracted to 6s4p3d1f1g pattern {711111/2111/211/2/1}
 Group   3 Type F   : 12s5p4d2f1g contracted to 6s4p3d1f1g pattern {711111/2111/211/2/1}

Atom   0C    basis set group =>   1
Atom   1O    basis set group =>   2
Atom   2O    basis set group =>   2
Atom   3C    basis set group =>   1
Atom   4C    basis set group =>   1
Atom   5C    basis set group =>   1
Atom   6C    basis set group =>   1
Atom   7C    basis set group =>   1
Atom   8C    basis set group =>   1
Atom   9C    basis set group =>   1
Atom  10F    basis set group =>   3
Atom  11F    basis set group =>   3
Atom  12F    basis set group =>   3
Atom  13F    basis set group =>   3
Atom  14F    basis set group =>   3
Atom  15F    basis set group =>   3
Atom  16F    basis set group =>   3
Atom  17F    basis set group =>   3
Atom  18F    basis set group =>   3
Atom  19F    basis set group =>   3
Atom  20F    basis set group =>   3
Atom  21F    basis set group =>   3
Atom  22F    basis set group =>   3
Atom  23F    basis set group =>   3


           ************************************************************
           *        Program running with 20 parallel MPI-processes    *
           *              working on a common directory               *
           ************************************************************
------------------------------------------------------------------------------
                           ORCA GTO INTEGRAL CALCULATION
                           -- RI-GTO INTEGRALS CHOSEN --
------------------------------------------------------------------------------
------------------------------------------------------------------------------
                   ___                                                        
                  /   \      - P O W E R E D   B Y -                         
                 /     \                                                     
                 |  |  |   _    _      __       _____    __    __             
                 |  |  |  | |  | |    /  \     |  _  \  |  |  /  |          
                  \  \/   | |  | |   /    \    | | | |  |  | /  /          
                 / \  \   | |__| |  /  /\  \   | |_| |  |  |/  /          
                |  |  |   |  __  | /  /__\  \  |    /   |      \           
                |  |  |   | |  | | |   __   |  |    \   |  |\   \          
                \     /   | |  | | |  |  |  |  | |\  \  |  | \   \       
                 \___/    |_|  |_| |__|  |__|  |_| \__\ |__|  \__/        
                                                                              
                      - O R C A' S   B I G   F R I E N D -                    
                                      &                                       
                       - I N T E G R A L  F E E D E R -                       
                                                                              
 v1 FN, 2020, v2 2021                                                         
------------------------------------------------------------------------------


Reading SHARK input file rf_mecn_opt_B3L_C7_D_B.SHARKINP.tmp ... ok
----------------------
SHARK INTEGRAL PACKAGE
----------------------

Number of atoms                             ...     24
Number of basis functions                   ...    744
Number of shells                            ...    264
Maximum angular momentum                    ...      3
Integral batch strategy                     ... SHARK/LIBINT Hybrid
RI-J (if used) integral strategy            ... SPLIT-RIJ (Revised 2003 algorithm where possible)
Printlevel                                  ...      1
Contraction scheme used                     ... SEGMENTED contraction
Coulomb Range Separation                    ... NOT USED
Exchange Range Separation                   ... NOT USED
Finite Nucleus Model                        ... NOT USED
Auxiliary Coulomb fitting basis             ... AVAILABLE
   # of basis functions in Aux-J            ...   1176
   # of shells in Aux-J                     ...    360
   Maximum angular momentum in Aux-J        ...      4
Auxiliary J/K fitting basis                 ... NOT available
Auxiliary Correlation fitting basis         ... NOT available
Auxiliary 'external' fitting basis          ... NOT available
Integral threshold                          ...     2.500000e-11
Primitive cut-off                           ...     2.500000e-12
Primitive pair pre-selection threshold      ...     2.500000e-12

Calculating pre-screening integrals         ... done (  0.1 sec) Dimension = 264
Organizing shell pair data                  ... done (  0.3 sec)
Shell pair information
Total number of shell pairs                 ...     34980
Shell pairs after pre-screening             ...     21668
Total number of primitive shell pairs       ...    115968
Primitive shell pairs kept                  ...     46075
          la=0 lb=0:   4043 shell pairs
          la=1 lb=0:   5886 shell pairs
          la=1 lb=1:   2062 shell pairs
          la=2 lb=0:   3223 shell pairs
          la=2 lb=1:   2393 shell pairs
          la=2 lb=2:    678 shell pairs
          la=3 lb=0:   1464 shell pairs
          la=3 lb=1:   1151 shell pairs
          la=3 lb=2:    619 shell pairs
          la=3 lb=3:    149 shell pairs

Calculating one electron integrals          ... done (  0.0 sec)
Calculating RI/J V-Matrix + Cholesky decomp.... done (  0.1 sec)
Calculating Nuclear repulsion               ... done (  0.0 sec) ENN=   2610.666930956155 Eh

SHARK setup successfully completed in   0.8 seconds

Maximum memory used throughout the entire GTOINT-calculation: 38.5 MB


           ************************************************************
           *        Program running with 20 parallel MPI-processes    *
           *              working on a common directory               *
           ************************************************************
-------------------------------------------------------------------------------
                                 ORCA SCF
-------------------------------------------------------------------------------

------------
SCF SETTINGS
------------
Hamiltonian:
 Density Functional     Method          .... DFT(GTOs)
 Exchange Functional    Exchange        .... B88
   X-Alpha parameter    XAlpha          ....  0.666667
   Becke's b parameter  XBeta           ....  0.004200
 Correlation Functional Correlation     .... LYP
 LDA part of GGA corr.  LDAOpt          .... VWN-5
 Gradients option       PostSCFGGA      .... off
 Hybrid DFT is turned on
   Fraction HF Exchange ScalHFX         ....  0.200000
   Scaling of DF-GGA-X  ScalDFX         ....  0.720000
   Scaling of DF-GGA-C  ScalDFC         ....  0.810000
   Scaling of DF-LDA-C  ScalLDAC        ....  1.000000
   Perturbative correction              ....  0.000000
   Density functional embedding theory  .... OFF
   NL short-range parameter             ....  4.800000
 RI-approximation to the Coulomb term is turned on
   Number of AuxJ basis functions       .... 1176
   RIJ-COSX (HFX calculated with COS-X)).... on


General Settings:
 Integral files         IntName         .... rf_mecn_opt_B3L_C7_D_B
 Hartree-Fock type      HFTyp           .... UHF
 Total Charge           Charge          ....   -1
 Multiplicity           Mult            ....    2
 Number of Electrons    NEL             ....  191
 Basis Dimension        Dim             ....  744
 Nuclear Repulsion      ENuc            ....   2610.6669309562 Eh

Convergence Acceleration:
 DIIS                   CNVDIIS         .... on
   Start iteration      DIISMaxIt       ....     0
   Startup error        DIISStart       ....  0.200000
   # of expansion vecs  DIISMaxEq       ....     5
   Bias factor          DIISBfac        ....   1.050
   Max. coefficient     DIISMaxC        ....  10.000
 Trust-Rad. Augm. Hess. CNVTRAH         .... auto
   Auto Start mean grad. ratio tolernc. ....  1.125000
   Auto Start start iteration           ....    20
   Auto Start num. interpolation iter.  ....    10
   Max. Number of Micro iterations      ....    16
   Max. Number of Macro iterations      .... Maxiter - #DIIS iter
   Number of Davidson start vectors     ....     2
   Converg. threshold I  (grad. norm)   ....   1.000e-05
   Converg. threshold II (energy diff.) ....   1.000e-08
   Grad. Scal. Fac. for Micro threshold ....   0.100
   Minimum threshold for Micro iter.    ....   0.010
   NR start threshold (gradient norm)   ....   0.001
   Initial trust radius                 ....   0.400
   Minimum AH scaling param. (alpha)    ....   1.000
   Maximum AH scaling param. (alpha)    .... 1000.000
   Orbital update algorithm             .... Taylor
   White noise on init. David. guess    .... on
   Maximum white noise                  ....   0.010
   Quad. conv. algorithm                .... NR
 SOSCF                  CNVSOSCF        .... off
 Level Shifting         CNVShift        .... on
   Level shift para.    LevelShift      ....    0.2500
   Turn off err/grad.   ShiftErr        ....    0.0000
 Zerner damping         CNVZerner       .... off
 Static damping         CNVDamp         .... on
   Fraction old density DampFac         ....    0.8500
   Max. Damping (<1)    DampMax         ....    0.9800
   Min. Damping (>=0)   DampMin         ....    0.0000
   Turn off err/grad.   DampErr         ....    0.0300
 Fernandez-Rico         CNVRico         .... off

SCF Procedure:
 Maximum # iterations   MaxIter         ....  1500
 SCF integral mode      SCFMode         .... Direct
   Integral package                     .... SHARK and LIBINT hybrid scheme
 Reset frequency        DirectResetFreq ....    20
 Integral Threshold     Thresh          ....  2.500e-11 Eh
 Primitive CutOff       TCut            ....  2.500e-12 Eh

Convergence Tolerance:
 Convergence Check Mode ConvCheckMode   .... Total+1el-Energy
 Convergence forced     ConvForced      .... 0
 Energy Change          TolE            ....  1.000e-08 Eh
 1-El. energy change                    ....  1.000e-05 Eh
 DIIS Error             TolErr          ....  5.000e-07


Diagonalization of the overlap matrix:
Smallest eigenvalue                        ... 6.480e-05
Time for diagonalization                   ...    0.143 sec
Threshold for overlap eigenvalues          ... 1.000e-08
Number of eigenvalues below threshold      ... 0
Time for construction of square roots      ...    0.075 sec
Total time needed                          ...    0.221 sec

Time for model grid setup =    0.239 sec

------------------------------
INITIAL GUESS: MODEL POTENTIAL
------------------------------
Loading Hartree-Fock densities                     ... done
Calculating cut-offs                               ... done
Initializing the effective Hamiltonian             ... done
Setting up the integral package (SHARK)            ... done
Starting the Coulomb interaction                   ... done (   0.3 sec)
Reading the grid                                   ... done
Mapping shells                                     ... done
Starting the XC term evaluation                    ... done (   0.2 sec)
  promolecular density results
     # of electrons  =    190.000661905
     EX              =   -198.089223012
     EC              =     -7.131831243
     EX+EC           =   -205.221054256
Transforming the Hamiltonian                       ... done (   0.1 sec)
Diagonalizing the Hamiltonian                      ... done (   0.1 sec)
Back transforming the eigenvectors                 ... done (   0.0 sec)
Now organizing SCF variables                       ... done
                      ------------------
                      INITIAL GUESS DONE (   1.0 sec)
                      ------------------
-------------------
DFT GRID GENERATION
-------------------

General Integration Accuracy     IntAcc      ... 4.388
Radial Grid Type                 RadialGrid  ... OptM3 with GC (2021)
Angular Grid (max. ang.)         AngularGrid ... 4 (Lebedev-302)
Angular grid pruning method      GridPruning ... 4 (adaptive)
Weight generation scheme         WeightScheme... Becke
Basis function cutoff            BFCut       ... 1.0000e-11
Integration weight cutoff        WCut        ... 1.0000e-14
Angular grids for H and He will be reduced by one unit
Partially contracted basis set               ... off
Rotationally invariant grid construction     ... off

Total number of grid points                  ...   145480
Total number of batches                      ...     2286
Average number of points per batch           ...       63
Average number of grid points per atom       ...     6062
Time for grid setup =    0.892 sec

--------------------
COSX GRID GENERATION
--------------------

GRIDX 1
-------
General Integration Accuracy     IntAcc      ... 3.816
Radial Grid Type                 RadialGrid  ... OptM3 with GC (2021)
Angular Grid (max. ang.)         AngularGrid ... 1 (Lebedev-50)
Angular grid pruning method      GridPruning ... 4 (adaptive)
Weight generation scheme         WeightScheme... Becke
Basis function cutoff            BFCut       ... 1.0000e-11
Integration weight cutoff        WCut        ... 1.0000e-14
Angular grids for H and He will be reduced by one unit
Partially contracted basis set               ... on
Rotationally invariant grid construction     ... off

Total number of grid points                  ...    18277
Total number of batches                      ...      297
Average number of points per batch           ...       61
Average number of grid points per atom       ...      762
UseSFitting                                  ... on

GRIDX 2
-------
General Integration Accuracy     IntAcc      ... 4.020
Radial Grid Type                 RadialGrid  ... OptM3 with GC (2021)
Angular Grid (max. ang.)         AngularGrid ... 2 (Lebedev-110)
Angular grid pruning method      GridPruning ... 4 (adaptive)
Weight generation scheme         WeightScheme... Becke
Basis function cutoff            BFCut       ... 1.0000e-11
Integration weight cutoff        WCut        ... 1.0000e-14
Angular grids for H and He will be reduced by one unit
Partially contracted basis set               ... on
Rotationally invariant grid construction     ... off

Total number of grid points                  ...    43354
Total number of batches                      ...      692
Average number of points per batch           ...       62
Average number of grid points per atom       ...     1806
UseSFitting                                  ... on

GRIDX 3
-------
General Integration Accuracy     IntAcc      ... 4.338
Radial Grid Type                 RadialGrid  ... OptM3 with GC (2021)
Angular Grid (max. ang.)         AngularGrid ... 3 (Lebedev-194)
Angular grid pruning method      GridPruning ... 4 (adaptive)
Weight generation scheme         WeightScheme... Becke
Basis function cutoff            BFCut       ... 1.0000e-11
Integration weight cutoff        WCut        ... 1.0000e-14
Angular grids for H and He will be reduced by one unit
Partially contracted basis set               ... on
Rotationally invariant grid construction     ... off

Total number of grid points                  ...    96058
Total number of batches                      ...     1512
Average number of points per batch           ...       63
Average number of grid points per atom       ...     4002
UseSFitting                                  ... on

Time for X-Grid setup             =    2.048 sec


--------------------
CPCM SOLVATION MODEL
--------------------
CPCM parameters:
  Epsilon                                         ...      35.6880
  Refrac                                          ...       1.3442
  Rsolv                                           ...       1.3000
  Surface type                                    ... GAUSSIAN VDW
  Epsilon function type                           ...         CPCM
Solvent:                                     ... ACETONITRILE
SMD-CDS solvent descriptors:
  Soln                                       ...    1.3442
  Soln25                                     ...    1.3416
  Sola                                       ...    0.0700
  Solb                                       ...    0.3200
  Solg                                       ...   41.2500
  Solc                                       ...    0.0000
  Solh                                       ...    0.0000
Radii:
 Radius for C  used is    3.4960 Bohr (=   1.8500 Ang.)
 Radius for O  used is    4.0969 Bohr (=   2.1680 Ang.)
 Radius for F  used is    3.2692 Bohr (=   1.7300 Ang.)
Calculating surface                               ...        done! (  0.0s)
GEPOL surface points                              ...         1269
GEPOL Volume                                      ...    2142.9701
GEPOL Surface-area                                ...    1112.7342
Calculating surface distance matrix               ...        done! (  0.0s)
Performing Cholesky decomposition & store         ...        done! (  0.1s)
Overall time for CPCM initialization              ...                 0.1s
--------------
SCF ITERATIONS
--------------
ITER       Energy         Delta-E        Max-DP      RMS-DP      [F,P]     Damp
               ***  Starting incremental Fock matrix formation  ***
  0  -1852.6151060193   0.000000000000 0.03967325  0.00020352  0.1694429 0.8500
  1  -1852.7985548060  -0.183448786672 0.06234249  0.00023175  0.1123685 0.8500
                               ***Turning on DIIS***
  2  -1852.8932327448  -0.094677938852 0.04812813  0.00016993  0.0648692 0.8500
  3  -1852.9452335940  -0.052000849196 0.01940932  0.00007875  0.0344574 0.8500
  4  -1852.9844243984  -0.039190804381 0.03275222  0.00026082  0.0241756 0.0000
  5  -1853.1818321237  -0.197407725254 0.03471961  0.00011762  0.0064177 0.0000
  6  -1853.1834583871  -0.001626263451 0.01421008  0.00004701  0.0052489 0.0000
  7  -1853.1838908186  -0.000432431452 0.00246725  0.00001134  0.0019169 0.0000
  8  -1853.1839413557  -0.000050537092 0.00171528  0.00000712  0.0006597 0.0000
               *** Restarting incremental Fock matrix formation ***
                                   *** Resetting DIIS ***
  9  -1853.1839732307  -0.000031875074 0.00058630  0.00000325  0.0004852 0.0000
 10  -1853.1839750741  -0.000001843399 0.00028942  0.00000180  0.0006963 0.0000
 11  -1853.1839787253  -0.000003651114 0.00011829  0.00000099  0.0001153 0.0000
 12  -1853.1839792825  -0.000000557246 0.00008873  0.00000061  0.0001067 0.0000
 13  -1853.1839795570  -0.000000274464 0.00004440  0.00000034  0.0000375 0.0000
 14  -1853.1839796395  -0.000000082514 0.00002837  0.00000022  0.0000274 0.0000
 15  -1853.1839796866  -0.000000047105 0.00002732  0.00000017  0.0000205 0.0000
 16  -1853.1839797013  -0.000000014686 0.00002763  0.00000014  0.0000153 0.0000
 17  -1853.1839797121  -0.000000010873 0.00000896  0.00000008  0.0000114 0.0000
 18  -1853.1839797399  -0.000000027703 0.00001046  0.00000007  0.0000084 0.0000
 19  -1853.1839797279   0.000000011993 0.00000887  0.00000007  0.0000062 0.0000
 20  -1853.1839797614  -0.000000033546 0.00000761  0.00000006  0.0000045 0.0000
                 **** Energy Check signals convergence ****

               *****************************************************
               *                     SUCCESS                       *
               *           SCF CONVERGED AFTER  21 CYCLES          *
               *****************************************************

Old exchange energy                            =    -39.731500480 Eh
New exchange energy                            =    -39.731525386 Eh
Exchange energy change after final integration =     -0.000024906 Eh
Total energy after final integration           =  -1853.184004669 Eh
Final COS-X integration done in                =    11.485 sec

SMD CDS free energy correction energy :                 3.58525     Kcal/mol
Total Energy after SMD CDS correction =             -1853.178291218 Eh

----------------
TOTAL SCF ENERGY
----------------

Total Energy       :        -1853.17829122 Eh          -50427.54499 eV

Components:
Nuclear Repulsion  :         2610.66693096 Eh           71039.85879 eV
Electronic Energy  :        -4463.84522217 Eh         -121467.40378 eV
One Electron Energy:        -7795.72396774 Eh         -212132.43377 eV
Two Electron Energy:         3331.87874556 Eh           90665.02999 eV
Max COSX asymmetry :            0.00000063 Eh               0.00002 eV
CPCM Dielectric    :           -0.08444995 Eh              -2.29800 eV
SMD CDS (Gcds)     :            0.00571345 Eh               0.15547 eV

Virial components:
Potential Energy   :        -3699.03060630 Eh         -100655.74004 eV
Kinetic Energy     :         1845.85231508 Eh           50228.19505 eV
Virial Ratio       :            2.00396889


DFT components:
N(Alpha)           :       95.999989609148 electrons
N(Beta)            :       94.999976704299 electrons
N(Total)           :      190.999966313447 electrons
E(X)               :     -158.394382232772 Eh       
E(C)               :       -8.364216595709 Eh       
E(XC)              :     -166.758598828480 Eh       
DFET-embed. en.    :        0.000000000000 Eh       
CPCM Solvation Model Properties:
Surface-charge          :            0.98915052
Charge-correction       :           -0.00104038 Eh              -0.02831 eV
Free-energy (cav+disp)  :            0.00571345 Eh               0.15547 eV

---------------
SCF CONVERGENCE
---------------

  Last Energy change         ...   -1.8663e-09  Tolerance :   1.0000e-08
  Last MAX-Density change    ...    0.0000e+00  Tolerance :   1.0000e-07
  Last RMS-Density change    ...    0.0000e+00  Tolerance :   5.0000e-09
  Last DIIS Error            ...    3.2624e-06  Tolerance :   5.0000e-07

             **** THE GBW FILE WAS UPDATED (rf_mecn_opt_B3L_C7_D_B.gbw) ****
             **** DENSITY rf_mecn_opt_B3L_C7_D_B.scfp WAS UPDATED ****
             **** ENERGY FILE WAS UPDATED (rf_mecn_opt_B3L_C7_D_B.en.tmp) ****
----------------------
UHF SPIN CONTAMINATION
----------------------

Warning: in a DFT calculation there is little theoretical justification to 
         calculate <S**2> as in Hartree-Fock theory. We will do it anyways
         but you should keep in mind that the values have only limited relevance

Expectation value of <S**2>     :     0.752968
Ideal value S*(S+1) for S=0.5   :     0.750000
Deviation                       :     0.002968

             **** THE GBW FILE WAS UPDATED (rf_mecn_opt_B3L_C7_D_B.gbw) ****
             **** DENSITY rf_mecn_opt_B3L_C7_D_B.scfp WAS UPDATED ****
----------------
ORBITAL ENERGIES
----------------
                 SPIN UP ORBITALS
  NO   OCC          E(Eh)            E(eV) 
   0   1.0000     -24.747268      -673.4074 
   1   1.0000     -24.741542      -673.2516 
   2   1.0000     -24.739173      -673.1871 
   3   1.0000     -24.738492      -673.1686 
   4   1.0000     -24.737715      -673.1474 
   5   1.0000     -24.737104      -673.1308 
   6   1.0000     -24.736777      -673.1219 
   7   1.0000     -24.736314      -673.1093 
   8   1.0000     -24.734805      -673.0683 
   9   1.0000     -24.732938      -673.0175 
  10   1.0000     -24.725387      -672.8120 
  11   1.0000     -24.721319      -672.7013 
  12   1.0000     -24.704404      -672.2410 
  13   1.0000     -24.701591      -672.1645 
  14   1.0000     -19.086513      -519.3704 
  15   1.0000     -19.084946      -519.3278 
  16   1.0000     -10.457803      -284.5713 
  17   1.0000     -10.405230      -283.1407 
  18   1.0000     -10.401498      -283.0392 
  19   1.0000     -10.397691      -282.9356 
  20   1.0000     -10.386381      -282.6278 
  21   1.0000     -10.362575      -281.9800 
  22   1.0000     -10.339866      -281.3620 
  23   1.0000     -10.294806      -280.1359 
  24   1.0000      -1.342824       -36.5401 
  25   1.0000      -1.322681       -35.9920 
  26   1.0000      -1.306341       -35.5473 
  27   1.0000      -1.298419       -35.3318 
  28   1.0000      -1.288788       -35.0697 
  29   1.0000      -1.280305       -34.8389 
  30   1.0000      -1.258034       -34.2329 
  31   1.0000      -1.256389       -34.1881 
  32   1.0000      -1.255225       -34.1564 
  33   1.0000      -1.251995       -34.0685 
  34   1.0000      -1.246837       -33.9281 
  35   1.0000      -1.242496       -33.8100 
  36   1.0000      -1.232321       -33.5332 
  37   1.0000      -1.204595       -32.7787 
  38   1.0000      -0.960392       -26.1336 
  39   1.0000      -0.901399       -24.5283 
  40   1.0000      -0.843599       -22.9555 
  41   1.0000      -0.823945       -22.4207 
  42   1.0000      -0.792892       -21.5757 
  43   1.0000      -0.751703       -20.4549 
  44   1.0000      -0.711673       -19.3656 
  45   1.0000      -0.679840       -18.4994 
  46   1.0000      -0.669221       -18.2104 
  47   1.0000      -0.636249       -17.3132 
  48   1.0000      -0.633908       -17.2495 
  49   1.0000      -0.627378       -17.0718 
  50   1.0000      -0.622841       -16.9484 
  51   1.0000      -0.620811       -16.8931 
  52   1.0000      -0.614492       -16.7212 
  53   1.0000      -0.604244       -16.4423 
  54   1.0000      -0.597915       -16.2701 
  55   1.0000      -0.591624       -16.0989 
  56   1.0000      -0.585701       -15.9377 
  57   1.0000      -0.578140       -15.7320 
  58   1.0000      -0.574338       -15.6285 
  59   1.0000      -0.565376       -15.3847 
  60   1.0000      -0.550605       -14.9827 
  61   1.0000      -0.525962       -14.3121 
  62   1.0000      -0.507749       -13.8165 
  63   1.0000      -0.502635       -13.6774 
  64   1.0000      -0.500608       -13.6222 
  65   1.0000      -0.495146       -13.4736 
  66   1.0000      -0.492364       -13.3979 
  67   1.0000      -0.487853       -13.2751 
  68   1.0000      -0.483058       -13.1447 
  69   1.0000      -0.478837       -13.0298 
  70   1.0000      -0.474717       -12.9177 
  71   1.0000      -0.469388       -12.7727 
  72   1.0000      -0.466128       -12.6840 
  73   1.0000      -0.462837       -12.5944 
  74   1.0000      -0.459611       -12.5067 
  75   1.0000      -0.458574       -12.4784 
  76   1.0000      -0.456022       -12.4090 
  77   1.0000      -0.450988       -12.2720 
  78   1.0000      -0.448270       -12.1981 
  79   1.0000      -0.443152       -12.0588 
  80   1.0000      -0.438704       -11.9377 
  81   1.0000      -0.437684       -11.9100 
  82   1.0000      -0.434997       -11.8369 
  83   1.0000      -0.432020       -11.7559 
  84   1.0000      -0.425263       -11.5720 
  85   1.0000      -0.415315       -11.3013 
  86   1.0000      -0.414001       -11.2656 
  87   1.0000      -0.398675       -10.8485 
  88   1.0000      -0.387764       -10.5516 
  89   1.0000      -0.374209       -10.1827 
  90   1.0000      -0.347957        -9.4684 
  91   1.0000      -0.341871        -9.3028 
  92   1.0000      -0.304160        -8.2766 
  93   1.0000      -0.249170        -6.7803 
  94   1.0000      -0.245183        -6.6718 
  95   1.0000      -0.242780        -6.6064 
  96   0.0000      -0.020128        -0.5477 
  97   0.0000       0.001615         0.0440 
  98   0.0000       0.012458         0.3390 
  99   0.0000       0.039780         1.0825 
 100   0.0000       0.073993         2.0134 
 101   0.0000       0.084512         2.2997 
 102   0.0000       0.098845         2.6897 
 103   0.0000       0.102451         2.7878 
 104   0.0000       0.110025         2.9939 
 105   0.0000       0.127099         3.4585 
 106   0.0000       0.129863         3.5337 
 107   0.0000       0.132549         3.6068 
 108   0.0000       0.148427         4.0389 
 109   0.0000       0.154295         4.1986 
 110   0.0000       0.173347         4.7170 
 111   0.0000       0.175959         4.7881 
 112   0.0000       0.184785         5.0283 
 113   0.0000       0.193387         5.2623 
 114   0.0000       0.200775         5.4634 
 115   0.0000       0.204563         5.5664 
 116   0.0000       0.209367         5.6972 
 117   0.0000       0.215261         5.8576 
 118   0.0000       0.216328         5.8866 
 119   0.0000       0.221158         6.0180 
 120   0.0000       0.224844         6.1183 
 121   0.0000       0.229950         6.2573 
 122   0.0000       0.240051         6.5321 
 123   0.0000       0.240897         6.5551 
 124   0.0000       0.245299         6.6749 
 125   0.0000       0.249064         6.7774 
 126   0.0000       0.254851         6.9348 
 127   0.0000       0.261387         7.1127 
 128   0.0000       0.268187         7.2977 
 129   0.0000       0.276407         7.5214 
 130   0.0000       0.281109         7.6494 
 131   0.0000       0.289434         7.8759 
 132   0.0000       0.294537         8.0148 
 133   0.0000       0.298844         8.1320 
 134   0.0000       0.307256         8.3609 
 135   0.0000       0.311396         8.4735 
 136   0.0000       0.316703         8.6179 
 137   0.0000       0.324605         8.8329 
 138   0.0000       0.328449         8.9375 
 139   0.0000       0.345285         9.3957 
 140   0.0000       0.348991         9.4965 
 141   0.0000       0.354958         9.6589 
 142   0.0000       0.374992        10.2040 
 143   0.0000       0.384868        10.4728 
 144   0.0000       0.395387        10.7590 
 145   0.0000       0.406721        11.0674 
 146   0.0000       0.425125        11.5682 
 147   0.0000       0.429973        11.7002 
 148   0.0000       0.436189        11.8693 
 149   0.0000       0.437373        11.9015 
 150   0.0000       0.440458        11.9855 
 151   0.0000       0.451944        12.2980 
 152   0.0000       0.456824        12.4308 
 153   0.0000       0.465102        12.6561 
 154   0.0000       0.479160        13.0386 
 155   0.0000       0.485486        13.2107 
 156   0.0000       0.491490        13.3741 
 157   0.0000       0.501324        13.6417 
 158   0.0000       0.508125        13.8268 
 159   0.0000       0.512803        13.9541 
 160   0.0000       0.520654        14.1677 
 161   0.0000       0.526594        14.3294 
 162   0.0000       0.530585        14.4379 
 163   0.0000       0.533893        14.5280 
 164   0.0000       0.538228        14.6459 
 165   0.0000       0.557830        15.1793 
 166   0.0000       0.575473        15.6594 
 167   0.0000       0.578302        15.7364 
 168   0.0000       0.588588        16.0163 
 169   0.0000       0.611981        16.6528 
 170   0.0000       0.622179        16.9303 
 171   0.0000       0.628394        17.0995 
 172   0.0000       0.640422        17.4268 
 173   0.0000       0.650105        17.6902 
 174   0.0000       0.656355        17.8603 
 175   0.0000       0.663702        18.0602 
 176   0.0000       0.673849        18.3364 
 177   0.0000       0.687845        18.7172 
 178   0.0000       0.693450        18.8697 
 179   0.0000       0.705378        19.1943 
 180   0.0000       0.707904        19.2630 
 181   0.0000       0.713865        19.4252 
 182   0.0000       0.723604        19.6903 
 183   0.0000       0.730741        19.8845 
 184   0.0000       0.733413        19.9572 
 185   0.0000       0.740764        20.1572 
 186   0.0000       0.745323        20.2813 
 187   0.0000       0.755226        20.5507 
 188   0.0000       0.757374        20.6092 
 189   0.0000       0.770087        20.9551 
 190   0.0000       0.779696        21.2166 
 191   0.0000       0.784522        21.3479 
 192   0.0000       0.789246        21.4765 
 193   0.0000       0.800822        21.7915 
 194   0.0000       0.810242        22.0478 
 195   0.0000       0.816714        22.2239 
 196   0.0000       0.826823        22.4990 
 197   0.0000       0.830496        22.5990 
 198   0.0000       0.844945        22.9921 
 199   0.0000       0.855921        23.2908 
 200   0.0000       0.857704        23.3393 
 201   0.0000       0.863180        23.4883 
 202   0.0000       0.876780        23.8584 
 203   0.0000       0.888013        24.1641 
 204   0.0000       0.888555        24.1788 
 205   0.0000       0.903457        24.5843 
 206   0.0000       0.910476        24.7753 
 207   0.0000       0.914951        24.8971 
 208   0.0000       0.924361        25.1531 
 209   0.0000       0.929898        25.3038 
 210   0.0000       0.937948        25.5229 
 211   0.0000       0.950053        25.8523 
 212   0.0000       0.964045        26.2330 
 213   0.0000       0.972757        26.4701 
 214   0.0000       0.981837        26.7171 
 215   0.0000       0.986690        26.8492 
 216   0.0000       0.990126        26.9427 
 217   0.0000       1.005409        27.3586 
 218   0.0000       1.006703        27.3938 
 219   0.0000       1.016329        27.6557 
 220   0.0000       1.034269        28.1439 
 221   0.0000       1.059822        28.8392 
 222   0.0000       1.074896        29.2494 
 223   0.0000       1.080077        29.3904 
 224   0.0000       1.092084        29.7171 
 225   0.0000       1.100100        29.9352 
 226   0.0000       1.109206        30.1830 
 227   0.0000       1.115828        30.3632 
 228   0.0000       1.120643        30.4943 
 229   0.0000       1.130053        30.7503 
 230   0.0000       1.143748        31.1230 
 231   0.0000       1.148143        31.2425 
 232   0.0000       1.153154        31.3789 
 233   0.0000       1.158015        31.5112 
 234   0.0000       1.169699        31.8291 
 235   0.0000       1.176411        32.0118 
 236   0.0000       1.180505        32.1232 
 237   0.0000       1.188329        32.3361 
 238   0.0000       1.209663        32.9166 
 239   0.0000       1.222445        33.2644 
 240   0.0000       1.235773        33.6271 
 241   0.0000       1.243302        33.8320 
 242   0.0000       1.247412        33.9438 
 243   0.0000       1.261501        34.3272 
 244   0.0000       1.276886        34.7458 
 245   0.0000       1.280578        34.8463 
 246   0.0000       1.297675        35.3115 
 247   0.0000       1.309413        35.6309 
 248   0.0000       1.311810        35.6962 
 249   0.0000       1.342956        36.5437 
 250   0.0000       1.358695        36.9720 
 251   0.0000       1.373923        37.3863 
 252   0.0000       1.375162        37.4201 
 253   0.0000       1.403086        38.1799 
 254   0.0000       1.429659        38.9030 
 255   0.0000       1.432784        38.9880 
 256   0.0000       1.444200        39.2987 
 257   0.0000       1.469571        39.9891 
 258   0.0000       1.488424        40.5021 
 259   0.0000       1.514504        41.2117 
 260   0.0000       1.543235        41.9936 
 261   0.0000       1.561810        42.4990 
 262   0.0000       1.568204        42.6730 
 263   0.0000       1.594805        43.3968 
 264   0.0000       1.612697        43.8837 
 265   0.0000       1.622868        44.1605 
 266   0.0000       1.632616        44.4258 
 267   0.0000       1.660584        45.1868 
 268   0.0000       1.674965        45.5781 
 269   0.0000       1.697946        46.2035 
 270   0.0000       1.716934        46.7202 
 271   0.0000       1.738637        47.3107 
 272   0.0000       1.758689        47.8564 
 273   0.0000       1.769881        48.1609 
 274   0.0000       1.779243        48.4157 
 275   0.0000       1.794629        48.8343 
 276   0.0000       1.807312        49.1795 
 277   0.0000       1.817401        49.4540 
 278   0.0000       1.835742        49.9531 
 279   0.0000       1.850900        50.3655 
 280   0.0000       1.853433        50.4345 
 281   0.0000       1.857993        50.5586 
 282   0.0000       1.871671        50.9308 
 283   0.0000       1.892219        51.4899 
 284   0.0000       1.896941        51.6184 
 285   0.0000       1.904491        51.8238 
 286   0.0000       1.907161        51.8965 
 287   0.0000       1.914214        52.0884 
 288   0.0000       1.922578        52.3160 
 289   0.0000       1.928206        52.4691 
 290   0.0000       1.942629        52.8616 
 291   0.0000       1.950311        53.0707 
 292   0.0000       1.952851        53.1398 
 293   0.0000       1.961369        53.3716 
 294   0.0000       1.969268        53.5865 
 295   0.0000       1.978393        53.8348 
 296   0.0000       2.002213        54.4830 
 297   0.0000       2.010100        54.6976 
 298   0.0000       2.020853        54.9902 
 299   0.0000       2.041889        55.5626 
 300   0.0000       2.048167        55.7335 
 301   0.0000       2.052603        55.8542 
 302   0.0000       2.066950        56.2446 
 303   0.0000       2.067809        56.2679 
 304   0.0000       2.073514        56.4232 
 305   0.0000       2.077528        56.5324 
 306   0.0000       2.084815        56.7307 
 307   0.0000       2.085667        56.7539 
 308   0.0000       2.093130        56.9570 
 309   0.0000       2.103553        57.2406 
 310   0.0000       2.106717        57.3267 
 311   0.0000       2.120468        57.7009 
 312   0.0000       2.130182        57.9652 
 313   0.0000       2.139689        58.2239 
 314   0.0000       2.146564        58.4110 
 315   0.0000       2.155066        58.6423 
 316   0.0000       2.163433        58.8700 
 317   0.0000       2.171343        59.0852 
 318   0.0000       2.176223        59.2181 
 319   0.0000       2.185180        59.4618 
 320   0.0000       2.207771        60.0765 
 321   0.0000       2.218896        60.3792 
 322   0.0000       2.243502        61.0488 
 323   0.0000       2.255321        61.3704 
 324   0.0000       2.267490        61.7016 
 325   0.0000       2.277525        61.9746 
 326   0.0000       2.284087        62.1532 
 327   0.0000       2.302825        62.6631 
 328   0.0000       2.306698        62.7684 
 329   0.0000       2.327121        63.3242 
 330   0.0000       2.334677        63.5298 
 331   0.0000       2.350482        63.9599 
 332   0.0000       2.363795        64.3221 
 333   0.0000       2.369963        64.4900 
 334   0.0000       2.383433        64.8565 
 335   0.0000       2.397093        65.2282 
 336   0.0000       2.407460        65.5103 
 337   0.0000       2.421823        65.9012 
 338   0.0000       2.432381        66.1885 
 339   0.0000       2.437191        66.3193 
 340   0.0000       2.452927        66.7475 
 341   0.0000       2.459190        66.9180 
 342   0.0000       2.466212        67.1090 
 343   0.0000       2.469070        67.1868 
 344   0.0000       2.476342        67.3847 
 345   0.0000       2.478896        67.4542 
 346   0.0000       2.481147        67.5154 
 347   0.0000       2.493429        67.8497 
 348   0.0000       2.505511        68.1784 
 349   0.0000       2.518646        68.5358 
 350   0.0000       2.536111        69.0111 
 351   0.0000       2.551585        69.4321 
 352   0.0000       2.575378        70.0796 
 353   0.0000       2.588785        70.4444 
 354   0.0000       2.595020        70.6141 
 355   0.0000       2.604588        70.8744 
 356   0.0000       2.616795        71.2066 
 357   0.0000       2.630444        71.5780 
 358   0.0000       2.635705        71.7212 
 359   0.0000       2.638738        71.8037 
 360   0.0000       2.669640        72.6446 
 361   0.0000       2.684657        73.0532 
 362   0.0000       2.710445        73.7550 
 363   0.0000       2.754050        74.9415 
 364   0.0000       2.766959        75.2928 
 365   0.0000       2.787800        75.8599 
 366   0.0000       2.808602        76.4259 
 367   0.0000       2.831465        77.0481 
 368   0.0000       2.851882        77.6037 
 369   0.0000       2.855559        77.7037 
 370   0.0000       2.863090        77.9086 
 371   0.0000       2.888969        78.6128 
 372   0.0000       2.904675        79.0402 
 373   0.0000       2.917203        79.3811 
 374   0.0000       2.920265        79.4645 
 375   0.0000       2.930716        79.7489 
 376   0.0000       2.942147        80.0599 
 377   0.0000       2.943995        80.1102 
 378   0.0000       2.960885        80.5698 
 379   0.0000       2.964564        80.6699 
 380   0.0000       2.972071        80.8742 
 381   0.0000       2.980316        81.0985 
 382   0.0000       2.987289        81.2883 
 383   0.0000       2.992318        81.4251 
 384   0.0000       3.010958        81.9323 
 385   0.0000       3.014198        82.0205 
 386   0.0000       3.022703        82.2519 
 387   0.0000       3.029981        82.4500 
 388   0.0000       3.037739        82.6611 
 389   0.0000       3.043930        82.8295 
 390   0.0000       3.061424        83.3056 
 391   0.0000       3.063867        83.3721 
 392   0.0000       3.072413        83.6046 
 393   0.0000       3.076822        83.7246 
 394   0.0000       3.091351        84.1199 
 395   0.0000       3.102692        84.4286 
 396   0.0000       3.110739        84.6475 
 397   0.0000       3.113027        84.7098 
 398   0.0000       3.124251        85.0152 
 399   0.0000       3.127148        85.0940 
 400   0.0000       3.130102        85.1744 
 401   0.0000       3.134718        85.3000 
 402   0.0000       3.149062        85.6903 
 403   0.0000       3.151412        85.7543 
 404   0.0000       3.155361        85.8617 
 405   0.0000       3.163690        86.0884 
 406   0.0000       3.164401        86.1077 
 407   0.0000       3.181783        86.5807 
 408   0.0000       3.188132        86.7535 
 409   0.0000       3.197934        87.0202 
 410   0.0000       3.201372        87.1138 
 411   0.0000       3.209710        87.3406 
 412   0.0000       3.217783        87.5603 
 413   0.0000       3.222409        87.6862 
 414   0.0000       3.231688        87.9387 
 415   0.0000       3.244687        88.2924 
 416   0.0000       3.246494        88.3416 
 417   0.0000       3.264877        88.8418 
 418   0.0000       3.270673        88.9995 
 419   0.0000       3.275317        89.1259 
 420   0.0000       3.276811        89.1666 
 421   0.0000       3.296136        89.6924 
 422   0.0000       3.300036        89.7986 
 423   0.0000       3.307986        90.0149 
 424   0.0000       3.315114        90.2088 
 425   0.0000       3.317971        90.2866 
 426   0.0000       3.331047        90.6424 
 427   0.0000       3.352503        91.2262 
 428   0.0000       3.363395        91.5226 
 429   0.0000       3.365573        91.5819 
 430   0.0000       3.392851        92.3242 
 431   0.0000       3.397992        92.4641 
 432   0.0000       3.406669        92.7002 
 433   0.0000       3.419182        93.0407 
 434   0.0000       3.440522        93.6214 
 435   0.0000       3.459378        94.1345 
 436   0.0000       3.470493        94.4369 
 437   0.0000       3.497324        95.1670 
 438   0.0000       3.504454        95.3610 
 439   0.0000       3.520865        95.8076 
 440   0.0000       3.534299        96.1732 
 441   0.0000       3.554287        96.7171 
 442   0.0000       3.570148        97.1487 
 443   0.0000       3.593448        97.7827 
 444   0.0000       3.607735        98.1715 
 445   0.0000       3.621188        98.5375 
 446   0.0000       3.637400        98.9787 
 447   0.0000       3.648818        99.2894 
 448   0.0000       3.665106        99.7326 
 449   0.0000       3.680249       100.1447 
 450   0.0000       3.714170       101.0677 
 451   0.0000       3.725371       101.3725 
 452   0.0000       3.734738       101.6274 
 453   0.0000       3.747265       101.9683 
 454   0.0000       3.758252       102.2672 
 455   0.0000       3.775082       102.7252 
 456   0.0000       3.789128       103.1074 
 457   0.0000       3.805524       103.5536 
 458   0.0000       3.809197       103.6535 
 459   0.0000       3.821037       103.9757 
 460   0.0000       3.841793       104.5405 
 461   0.0000       3.849699       104.7556 
 462   0.0000       3.857856       104.9776 
 463   0.0000       3.869761       105.3016 
 464   0.0000       3.877326       105.5074 
 465   0.0000       3.886218       105.7494 
 466   0.0000       3.900902       106.1489 
 467   0.0000       3.908794       106.3637 
 468   0.0000       3.914893       106.5297 
 469   0.0000       3.918635       106.6315 
 470   0.0000       3.935933       107.1022 
 471   0.0000       3.944746       107.3420 
 472   0.0000       3.950570       107.5005 
 473   0.0000       3.962924       107.8367 
 474   0.0000       3.977265       108.2269 
 475   0.0000       3.998877       108.8150 
 476   0.0000       4.005273       108.9890 
 477   0.0000       4.012506       109.1859 
 478   0.0000       4.025763       109.5466 
 479   0.0000       4.026901       109.5775 
 480   0.0000       4.048411       110.1629 
 481   0.0000       4.051104       110.2361 
 482   0.0000       4.061169       110.5100 
 483   0.0000       4.089629       111.2845 
 484   0.0000       4.091632       111.3390 
 485   0.0000       4.101535       111.6084 
 486   0.0000       4.104828       111.6981 
 487   0.0000       4.112556       111.9083 
 488   0.0000       4.113091       111.9229 
 489   0.0000       4.123087       112.1949 
 490   0.0000       4.130957       112.4090 
 491   0.0000       4.138776       112.6218 
 492   0.0000       4.140609       112.6717 
 493   0.0000       4.156263       113.0977 
 494   0.0000       4.180591       113.7597 
 495   0.0000       4.203617       114.3862 
 496   0.0000       4.211984       114.6139 
 497   0.0000       4.241667       115.4216 
 498   0.0000       4.251949       115.7014 
 499   0.0000       4.267507       116.1248 
 500   0.0000       4.289841       116.7325 
 501   0.0000       4.296032       116.9010 
 502   0.0000       4.315525       117.4314 
 503   0.0000       4.369777       118.9077 
 504   0.0000       4.403068       119.8136 
 505   0.0000       4.554551       123.9356 
 506   0.0000       4.589084       124.8753 
 507   0.0000       4.613994       125.5532 
 508   0.0000       4.664538       126.9285 
 509   0.0000       4.736467       128.8858 
 510   0.0000       4.756934       129.4427 
 511   0.0000       4.807797       130.8268 
 512   0.0000       4.916354       133.7808 
 513   0.0000       4.954769       134.8261 
 514   0.0000       4.996479       135.9611 
 515   0.0000       5.132302       139.6570 
 516   0.0000       5.137242       139.7915 
 517   0.0000       5.190684       141.2457 
 518   0.0000       5.204062       141.6097 
 519   0.0000       5.207227       141.6958 
 520   0.0000       5.208469       141.7297 
 521   0.0000       5.219167       142.0208 
 522   0.0000       5.234908       142.4491 
 523   0.0000       5.254319       142.9773 
 524   0.0000       5.291044       143.9766 
 525   0.0000       5.293379       144.0402 
 526   0.0000       5.318297       144.7182 
 527   0.0000       5.325158       144.9049 
 528   0.0000       5.337957       145.2532 
 529   0.0000       5.376115       146.2915 
 530   0.0000       5.415658       147.3676 
 531   0.0000       5.450663       148.3201 
 532   0.0000       5.466947       148.7632 
 533   0.0000       5.528739       150.4446 
 534   0.0000       5.560581       151.3111 
 535   0.0000       5.655700       153.8994 
 536   0.0000       5.711089       155.4066 
 537   0.0000       5.744135       156.3058 
 538   0.0000       5.850994       159.2136 
 539   0.0000       5.917236       161.0162 
 540   0.0000       6.164674       167.7493 
 541   0.0000       6.228693       169.4914 
 542   0.0000       6.339903       172.5175 
 543   0.0000       6.381352       173.6454 
 544   0.0000       6.414989       174.5607 
 545   0.0000       6.445413       175.3886 
 546   0.0000       6.728239       183.0847 
 547   0.0000       6.767445       184.1515 
 548   0.0000       6.780799       184.5149 
 549   0.0000       6.806555       185.2158 
 550   0.0000       6.806854       185.2239 
 551   0.0000       6.809166       185.2868 
 552   0.0000       6.810340       185.3188 
 553   0.0000       6.810773       185.3306 
 554   0.0000       6.811790       185.3582 
 555   0.0000       6.812533       185.3784 
 556   0.0000       6.813286       185.3989 
 557   0.0000       6.815640       185.4630 
 558   0.0000       6.816707       185.4920 
 559   0.0000       6.817858       185.5233 
 560   0.0000       6.818458       185.5397 
 561   0.0000       6.818821       185.5496 
 562   0.0000       6.822080       185.6382 
 563   0.0000       6.822657       185.6539 
 564   0.0000       6.824510       185.7044 
 565   0.0000       6.827026       185.7728 
 566   0.0000       6.827247       185.7788 
 567   0.0000       6.827882       185.7961 
 568   0.0000       6.830084       185.8560 
 569   0.0000       6.831484       185.8941 
 570   0.0000       6.831862       185.9044 
 571   0.0000       6.833396       185.9461 
 572   0.0000       6.835945       186.0155 
 573   0.0000       6.837852       186.0674 
 574   0.0000       6.839428       186.1103 
 575   0.0000       6.840243       186.1325 
 576   0.0000       6.841254       186.1600 
 577   0.0000       6.843885       186.2316 
 578   0.0000       6.845946       186.2877 
 579   0.0000       6.850526       186.4123 
 580   0.0000       6.853445       186.4917 
 581   0.0000       6.855735       186.5540 
 582   0.0000       6.858093       186.6182 
 583   0.0000       6.858890       186.6399 
 584   0.0000       6.862263       186.7317 
 585   0.0000       6.865160       186.8105 
 586   0.0000       6.867290       186.8685 
 587   0.0000       6.878493       187.1733 
 588   0.0000       6.882392       187.2794 
 589   0.0000       6.892881       187.5648 
 590   0.0000       6.904327       187.8763 
 591   0.0000       6.914359       188.1493 
 592   0.0000       6.915688       188.1854 
 593   0.0000       6.924769       188.4325 
 594   0.0000       6.943494       188.9421 
 595   0.0000       6.947557       189.0526 
 596   0.0000       6.953725       189.2205 
 597   0.0000       6.957556       189.3247 
 598   0.0000       6.959328       189.3730 
 599   0.0000       6.960417       189.4026 
 600   0.0000       6.962914       189.4705 
 601   0.0000       6.992411       190.2732 
 602   0.0000       7.000300       190.4878 
 603   0.0000       7.009166       190.7291 
 604   0.0000       7.010331       190.7608 
 605   0.0000       7.013825       190.8559 
 606   0.0000       7.015912       190.9127 
 607   0.0000       7.019097       190.9993 
[...]
      dxy     :     0.000000
      f0      :     0.000000  f :     0.000000
      f+1     :     0.000000
      f-1     :    -0.000000
      f+2     :     0.000000
      f-2     :    -0.000000
      f+3     :     0.000000
      f-3     :     0.000000
  2 O s       :     0.000002  s :     0.000002
      pz      :     0.000071  p :     0.000086
      px      :    -0.000034
      py      :     0.000049
      dz2     :     0.000000  d :     0.000001
      dxz     :    -0.000000
      dyz     :     0.000001
      dx2y2   :    -0.000000
      dxy     :     0.000000
      f0      :     0.000000  f :     0.000000
      f+1     :     0.000000
      f-1     :    -0.000000
      f+2     :     0.000000
      f-2     :     0.000000
      f+3     :     0.000000
      f-3     :    -0.000000
  3 C s       :     0.000008  s :     0.000008
      pz      :    -0.000021  p :     0.000476
      px      :     0.000491
      py      :     0.000006
      dz2     :     0.000000  d :     0.000089
      dxz     :     0.000021
      dyz     :     0.000002
      dx2y2   :     0.000037
      dxy     :     0.000029
      f0      :    -0.000000  f :     0.000010
      f+1     :    -0.000000
      f-1     :    -0.000000
      f+2     :     0.000000
      f-2     :     0.000008
      f+3     :     0.000001
      f-3     :     0.000002
  4 C s       :     0.000086  s :     0.000086
      pz      :     0.000072  p :     0.001009
      px      :     0.000667
      py      :     0.000271
      dz2     :     0.000020  d :     0.000342
      dxz     :     0.000004
      dyz     :     0.000013
      dx2y2   :     0.000274
      dxy     :     0.000031
      f0      :    -0.000000  f :     0.000032
      f+1     :     0.000000
      f-1     :    -0.000000
      f+2     :     0.000009
      f-2     :     0.000007
      f+3     :     0.000017
      f-3     :     0.000001
  5 C s       :     0.000208  s :     0.000208
      pz      :     0.000045  p :     0.002673
      px      :     0.001812
      py      :     0.000816
      dz2     :     0.000060  d :     0.001460
      dxz     :     0.000082
      dyz     :    -0.000003
      dx2y2   :     0.001000
      dxy     :     0.000320
      f0      :    -0.000003  f :     0.000123
      f+1     :     0.000004
      f-1     :     0.000005
      f+2     :     0.000004
      f-2     :     0.000007
      f+3     :     0.000106
      f-3     :     0.000001
  6 C s       :     0.002369  s :     0.002369
      pz      :     0.000594  p :     0.016175
      px      :     0.009425
      py      :     0.006155
      dz2     :     0.000106  d :     0.003154
      dxz     :     0.000003
      dyz     :    -0.000045
      dx2y2   :     0.002534
      dxy     :     0.000556
      f0      :    -0.000018  f :    -0.000111
      f+1     :    -0.000029
      f-1     :    -0.000018
      f+2     :    -0.000009
      f-2     :    -0.000009
      f+3     :     0.000025
      f-3     :    -0.000054
  7 C s       :    -0.001777  s :    -0.001777
      pz      :    -0.001321  p :    -0.006678
      px      :    -0.009804
      py      :     0.004447
      dz2     :     0.003112  d :     0.062491
      dxz     :     0.003672
      dyz     :     0.000522
      dx2y2   :     0.038943
      dxy     :     0.016241
      f0      :     0.000190  f :     0.008518
      f+1     :     0.000285
      f-1     :     0.001495
      f+2     :     0.000570
      f-2     :     0.000024
      f+3     :     0.005784
      f-3     :     0.000170
  8 C s       :     0.023378  s :     0.023378
      pz      :     0.036929  p :     0.631714
      px      :     0.106889
      py      :     0.487895
      dz2     :     0.000691  d :     0.004728
      dxz     :     0.000222
      dyz     :     0.006346
      dx2y2   :    -0.001311
      dxy     :    -0.001220
      f0      :     0.000220  f :     0.001021
      f+1     :    -0.000042
      f-1     :     0.001191
      f+2     :     0.000507
      f-2     :    -0.000194
      f+3     :     0.000024
      f-3     :    -0.000686
  9 C s       :    -0.003696  s :    -0.003696
      pz      :    -0.003853  p :     0.005757
      px      :    -0.004072
      py      :     0.013682
      dz2     :     0.005439  d :     0.046073
      dxz     :     0.003599
      dyz     :     0.014678
      dx2y2   :     0.003425
      dxy     :     0.018932
      f0      :     0.000360  f :     0.010516
      f+1     :     0.000519
      f-1     :     0.001099
      f+2     :     0.001149
      f-2     :     0.004476
      f+3     :     0.001444
      f-3     :     0.001468
 10 F s       :     0.000000  s :     0.000000
      pz      :    -0.000003  p :    -0.000016
      px      :    -0.000007
      py      :    -0.000007
      dz2     :     0.000001  d :     0.000004
      dxz     :     0.000000
      dyz     :    -0.000000
      dx2y2   :     0.000001
      dxy     :     0.000003
      f0      :    -0.000000  f :     0.000000
      f+1     :     0.000000
      f-1     :     0.000000
      f+2     :    -0.000000
      f-2     :    -0.000000
      f+3     :     0.000000
      f-3     :     0.000000
 11 F s       :     0.000001  s :     0.000001
      pz      :    -0.000008  p :     0.000057
      px      :     0.000060
      py      :     0.000006
      dz2     :     0.000000  d :     0.000006
      dxz     :     0.000006
      dyz     :     0.000000
      dx2y2   :    -0.000000
      dxy     :     0.000000
      f0      :     0.000000  f :     0.000000
      f+1     :     0.000000
      f-1     :     0.000000
      f+2     :     0.000000
      f-2     :     0.000000
      f+3     :     0.000000
      f-3     :     0.000000
 12 F s       :     0.000003  s :     0.000003
      pz      :     0.000003  p :    -0.000050
      px      :    -0.000023
      py      :    -0.000031
      dz2     :     0.000000  d :     0.000007
      dxz     :     0.000002
      dyz     :     0.000000
      dx2y2   :     0.000004
      dxy     :     0.000001
      f0      :     0.000000  f :     0.000001
      f+1     :     0.000000
      f-1     :     0.000000
      f+2     :     0.000000
      f-2     :     0.000000
      f+3     :     0.000000
      f-3     :     0.000000
 13 F s       :    -0.000000  s :    -0.000000
      pz      :    -0.000027  p :     0.000061
      px      :     0.000025
      py      :     0.000063
      dz2     :     0.000002  d :     0.000013
      dxz     :     0.000007
      dyz     :     0.000003
      dx2y2   :     0.000001
      dxy     :    -0.000000
      f0      :     0.000000  f :     0.000001
      f+1     :     0.000001
      f-1     :     0.000000
      f+2     :     0.000000
      f-2     :    -0.000000
      f+3     :     0.000000
      f-3     :     0.000000
 14 F s       :     0.000031  s :     0.000031
      pz      :     0.000041  p :    -0.000093
      px      :    -0.000042
      py      :    -0.000092
      dz2     :    -0.000000  d :     0.000019
      dxz     :     0.000004
      dyz     :     0.000001
      dx2y2   :     0.000007
      dxy     :     0.000007
      f0      :     0.000000  f :     0.000001
      f+1     :    -0.000000
      f-1     :    -0.000000
      f+2     :     0.000000
      f-2     :     0.000000
      f+3     :     0.000001
      f-3     :     0.000000
 15 F s       :     0.000006  s :     0.000006
      pz      :    -0.000043  p :     0.000193
      px      :    -0.000012
      py      :     0.000248
      dz2     :     0.000004  d :     0.000034
      dxz     :     0.000017
      dyz     :     0.000004
      dx2y2   :     0.000002
      dxy     :     0.000006
      f0      :     0.000000  f :     0.000002
      f+1     :     0.000001
      f-1     :     0.000000
      f+2     :    -0.000000
      f-2     :     0.000000
      f+3     :     0.000000
      f-3     :    -0.000000
 16 F s       :     0.000157  s :     0.000157
      pz      :     0.000677  p :     0.000931
      px      :     0.000044
      py      :     0.000210
      dz2     :     0.000003  d :     0.000187
      dxz     :     0.000002
      dyz     :     0.000018
      dx2y2   :     0.000122
      dxy     :     0.000042
      f0      :     0.000000  f :     0.000012
      f+1     :     0.000001
      f-1     :     0.000000
      f+2     :     0.000003
      f-2     :     0.000004
      f+3     :     0.000002
      f-3     :     0.000002
 17 F s       :     0.000147  s :     0.000147
      pz      :    -0.000072  p :     0.000636
      px      :     0.000036
      py      :     0.000672
      dz2     :     0.000008  d :     0.000185
      dxz     :     0.000031
      dyz     :     0.000030
      dx2y2   :     0.000082
      dxy     :     0.000034
      f0      :     0.000000  f :     0.000011
      f+1     :     0.000003
      f-1     :     0.000001
      f+2     :     0.000003
      f-2     :     0.000003
      f+3     :     0.000001
      f-3     :     0.000000
 18 F s       :     0.001361  s :     0.001361
      pz      :     0.006349  p :     0.015750
      px      :     0.004655
      py      :     0.004746
      dz2     :    -0.000049  d :    -0.000040
      dxz     :    -0.000022
      dyz     :     0.000091
      dx2y2   :    -0.000012
      dxy     :    -0.000048
      f0      :     0.000001  f :    -0.000003
      f+1     :    -0.000000
      f-1     :    -0.000001
      f+2     :    -0.000001
      f-2     :    -0.000000
      f+3     :    -0.000002
      f-3     :     0.000000
 19 F s       :     0.000569  s :     0.000569
      pz      :     0.006104  p :     0.005617
      px      :     0.000314
      py      :    -0.000801
      dz2     :    -0.000019  d :    -0.000173
      dxz     :    -0.000083
      dyz     :    -0.000017
      dx2y2   :     0.000007
      dxy     :    -0.000060
      f0      :    -0.000002  f :    -0.000009
      f+1     :    -0.000002
      f-1     :     0.000001
      f+2     :    -0.000002
      f-2     :    -0.000004
      f+3     :    -0.000001
      f-3     :     0.000000
 20 F s       :     0.002159  s :     0.002159
      pz      :    -0.002260  p :     0.102215
      px      :     0.019232
      py      :     0.085243
      dz2     :     0.001505  d :     0.010428
      dxz     :     0.001832
      dyz     :     0.005946
      dx2y2   :     0.001088
      dxy     :     0.000058
      f0      :     0.000097  f :     0.000558
      f+1     :     0.000111
      f-1     :     0.000210
      f+2     :     0.000130
      f-2     :     0.000003
      f+3     :     0.000004
      f-3     :     0.000004
 21 F s       :     0.001649  s :     0.001649
      pz      :     0.011269  p :     0.027695
      px      :     0.015174
      py      :     0.001251
      dz2     :    -0.000013  d :     0.000249
      dxz     :     0.000183
      dyz     :     0.000045
      dx2y2   :    -0.000009
      dxy     :     0.000044
      f0      :     0.000004  f :     0.000010
      f+1     :    -0.000000
      f-1     :    -0.000002
      f+2     :     0.000000
      f-2     :     0.000005
      f+3     :    -0.000002
      f-3     :     0.000005
 22 F s       :     0.000033  s :     0.000033
      pz      :    -0.000242  p :     0.004648
      px      :     0.004362
      py      :     0.000527
      dz2     :    -0.000041  d :    -0.000067
      dxz     :    -0.000012
      dyz     :    -0.000028
      dx2y2   :     0.000066
      dxy     :    -0.000052
      f0      :     0.000000  f :    -0.000005
      f+1     :    -0.000002
      f-1     :    -0.000002
      f+2     :    -0.000000
      f-2     :    -0.000001
      f+3     :     0.000002
      f-3     :    -0.000003
 23 F s       :     0.000707  s :     0.000707
      pz      :     0.010310  p :     0.013337
      px      :     0.002062
      py      :     0.000965
      dz2     :     0.000022  d :    -0.000019
      dxz     :    -0.000023
      dyz     :    -0.000009
      dx2y2   :     0.000001
      dxy     :    -0.000010
      f0      :     0.000003  f :    -0.000005
      f+1     :    -0.000002
      f-1     :    -0.000003
      f+2     :    -0.000002
      f-2     :    -0.000001
      f+3     :     0.000000
      f-3     :    -0.000000


                      *****************************
                      * MAYER POPULATION ANALYSIS *
                      *****************************

  NA   - Mulliken gross atomic population
  ZA   - Total nuclear charge
  QA   - Mulliken gross atomic charge
  VA   - Mayer's total valence
  BVA  - Mayer's bonded valence
  FA   - Mayer's free valence

  ATOM       NA         ZA         QA         VA         BVA        FA
  0 C      5.8562     6.0000     0.1438     4.6757     4.6757     0.0000
  1 O      8.4729     8.0000    -0.4729     1.9785     1.9785     0.0000
  2 O      8.4866     8.0000    -0.4866     1.9604     1.9604     0.0000
  3 C      5.6571     6.0000     0.3429     3.8802     3.8802     0.0000
  4 C      5.6817     6.0000     0.3183     4.0576     4.0576     0.0000
  5 C      5.6720     6.0000     0.3280     4.1379     4.1378     0.0000
  6 C      5.6819     6.0000     0.3181     4.1304     4.1296     0.0008
  7 C      5.6176     6.0000     0.3824     4.1875     4.1847     0.0028
  8 C      5.8663     6.0000     0.1337     3.8569     3.2746     0.5822
  9 C      5.5097     6.0000     0.4903     4.5068     4.5045     0.0023
 10 F      9.2120     9.0000    -0.2120     1.0763     1.0763     0.0000
 11 F      9.2185     9.0000    -0.2185     1.0617     1.0617     0.0000
 12 F      9.1850     9.0000    -0.1850     1.1248     1.1248     0.0000
 13 F      9.1921     9.0000    -0.1921     1.1162     1.1162     0.0000
 14 F      9.1774     9.0000    -0.1774     1.1348     1.1348     0.0000
 15 F      9.1770     9.0000    -0.1770     1.1376     1.1376     0.0000
 16 F      9.1758     9.0000    -0.1758     1.1390     1.1390     0.0000
 17 F      9.1761     9.0000    -0.1761     1.1435     1.1435     0.0000
 18 F      9.1762     9.0000    -0.1762     1.1342     1.1339     0.0003
 19 F      9.1739     9.0000    -0.1739     1.1360     1.1359     0.0001
 20 F      9.1386     9.0000    -0.1386     1.2022     1.1899     0.0124
 21 F      9.1695     9.0000    -0.1695     1.1340     1.1331     0.0008
 22 F      9.1608     9.0000    -0.1608     1.1544     1.1544     0.0000
 23 F      9.1651     9.0000    -0.1651     1.1411     1.1409     0.0002

  Mayer bond orders larger than 0.100000
B(  0-C ,  1-O ) :   1.8975 B(  0-C ,  2-O ) :   1.8733 B(  0-C ,  3-C ) :   0.8453 
B(  3-C ,  4-C ) :   0.9223 B(  3-C , 10-F ) :   1.0444 B(  3-C , 11-F ) :   1.0306 
B(  4-C ,  5-C ) :   0.9224 B(  4-C , 12-F ) :   1.0665 B(  4-C , 13-F ) :   1.0550 
B(  5-C ,  6-C ) :   0.9277 B(  5-C , 14-F ) :   1.0685 B(  5-C , 15-F ) :   1.0770 
B(  6-C ,  7-C ) :   0.9327 B(  6-C , 16-F ) :   1.0725 B(  6-C , 17-F ) :   1.0823 
B(  7-C ,  8-C ) :   0.9995 B(  7-C , 18-F ) :   1.0702 B(  7-C , 19-F ) :   1.0874 
B(  8-C ,  9-C ) :   1.0439 B(  8-C , 20-F ) :   1.1341 B(  9-C , 21-F ) :   1.1315 
B(  9-C , 22-F ) :   1.1444 B(  9-C , 23-F ) :   1.1352 

-------
TIMINGS
-------

Total SCF time: 0 days 0 hours 1 min 1 sec 

Total time                  ....      61.763 sec
Sum of individual times     ....      59.489 sec  ( 96.3%)

Fock matrix formation       ....      52.075 sec  ( 84.3%)
  Split-RI-J                ....       3.013 sec  (  5.8% of F)
  Chain of spheres X        ....      39.045 sec  ( 75.0% of F)
  XC integration            ....       5.701 sec  ( 10.9% of F)
    Basis function eval.    ....       0.536 sec  (  9.4% of XC)
    Density eval.           ....       1.609 sec  ( 28.2% of XC)
    XC-Functional eval.     ....       0.211 sec  (  3.7% of XC)
    XC-Potential eval.      ....       1.109 sec  ( 19.5% of XC)
Diagonalization             ....       2.785 sec  (  4.5%)
Density matrix formation    ....       0.110 sec  (  0.2%)
Population analysis         ....       0.330 sec  (  0.5%)
Initial guess               ....       0.513 sec  (  0.8%)
Orbital Transformation      ....       0.000 sec  (  0.0%)
Orbital Orthonormalization  ....       0.442 sec  (  0.7%)
DIIS solution               ....       0.972 sec  (  1.6%)
Grid generation             ....       2.705 sec  (  4.4%)

Maximum memory used throughout the entire SCF-calculation: 160.5 MB


-------------------------------------------------------------------------------
                          DFT DISPERSION CORRECTION                            
                                                                               
                              DFTD3 V3.1  Rev 1                                
                          USING Becke-Johnson damping                          
-------------------------------------------------------------------------------
The B3LYP functional is recognized
Active option DFTDOPT                   ...         4   

molecular C6(AA) [au] = 6300.207413 


            DFT-D V3
 parameters
 s6 scaling factor         :     1.0000 
 a1 scaling factor         :     0.3981 
 s8 scaling factor         :     1.9889 
 a2 scaling factor         :     4.4211 
 ad hoc parameters k1-k3   :    16.0000     1.3333    -4.0000 

 Edisp/kcal,au: -26.350033001577  -0.041991445994 
 E6   /kcal   : -12.498811303 
 E8   /kcal   : -13.851221699 
 % E8         :  52.566240421 

-------------------------   ----------------
Dispersion correction           -0.041991446
-------------------------   ----------------


-------------------------   --------------------
FINAL SINGLE POINT ENERGY     -1853.283091894837
-------------------------   --------------------

                                *** OPTIMIZATION RUN DONE ***

                            ***************************************
                            *     ORCA property calculations      *
                            ***************************************

                                    ---------------------
                                    Active property flags
                                    ---------------------
   (+) Dipole Moment


------------------------------------------------------------------------------
                       ORCA ELECTRIC PROPERTIES CALCULATION
------------------------------------------------------------------------------

Dipole Moment Calculation                       ... on
Quadrupole Moment Calculation                   ... off
Polarizability Calculation                      ... off
GBWName                                         ... rf_mecn_opt_B3L_C7_D_B.gbw
Electron density                                ... rf_mecn_opt_B3L_C7_D_B.scfp
The origin for moment calculation is the CENTER OF MASS  = ( 0.160565, -0.171914  0.024076)

-------------
DIPOLE MOMENT
-------------
                                X             Y             Z
Electronic contribution:    -17.17223      -1.79497       2.84215
Nuclear contribution   :      8.65669       1.04599      -1.37650
                        -----------------------------------------
Total Dipole Moment    :     -8.51554      -0.74898       1.46564
                        -----------------------------------------
Magnitude (a.u.)       :      8.67315
Magnitude (Debye)      :     22.04539



--------------------
Rotational spectrum 
--------------------
 
Rotational constants in cm-1:     0.020966     0.004036     0.003974 
Rotational constants in MHz :   628.530617   121.004320   119.147186 

 Dipole components along the rotational axes: 
x,y,z [a.u.] :    -8.524504    -1.562750     0.337872 
x,y,z [Debye]:   -21.667568    -3.972196     0.858803 

 

Timings for individual modules:

Sum of individual times         ...     2002.614 sec (=  33.377 min)
GTO integral calculation        ...       19.173 sec (=   0.320 min)   1.0 %
SCF iterations                  ...     1629.402 sec (=  27.157 min)  81.4 %
SCF Gradient evaluation         ...      353.171 sec (=   5.886 min)  17.6 %
Geometry relaxation             ...        0.867 sec (=   0.014 min)   0.0 %
                             ****ORCA TERMINATED NORMALLY****
TOTAL RUN TIME: 0 days 0 hours 33 minutes 30 seconds 229 msec
