
                                 *****************
                                 * O   R   C   A *
                                 *****************

                                            #,                                       
                                            ###                                      
                                            ####                                     
                                            #####                                    
                                            ######                                   
                                           ########,                                 
                                     ,,################,,,,,                         
                               ,,#################################,,                 
                          ,,##########################################,,             
                       ,#########################################, ''#####,          
                    ,#############################################,,   '####,        
                  ,##################################################,,,,####,       
                ,###########''''           ''''###############################       
              ,#####''   ,,,,##########,,,,          '''####'''          '####       
            ,##' ,,,,###########################,,,                        '##       
           ' ,,###''''                  '''############,,,                           
         ,,##''                                '''############,,,,        ,,,,,,###''
      ,#''                                            '''#######################'''  
     '                                                          ''''####''''         
             ,#######,   #######,   ,#######,      ##                                
            ,#'     '#,  ##    ##  ,#'     '#,    #''#        ######   ,####,        
            ##       ##  ##   ,#'  ##            #'  '#       #        #'  '#        
            ##       ##  #######   ##           ,######,      #####,   #    #        
            '#,     ,#'  ##    ##  '#,     ,#' ,#      #,         ##   #,  ,#        
             '#######'   ##     ##  '#######'  #'      '#     #####' # '####'        



                  #######################################################
                  #                        -***-                        #
                  #          Department of theory and spectroscopy      #
                  #    Directorship and core code : Frank Neese         #
                  #        Max Planck Institute fuer Kohlenforschung    #
                  #                Kaiser Wilhelm Platz 1               #
                  #                 D-45470 Muelheim/Ruhr               #
                  #                      Germany                        #
                  #                                                     #
                  #                  All rights reserved                #
                  #                        -***-                        #
                  #######################################################


                         Program Version 5.0.3 -  RELEASE  -


 With contributions from (in alphabetic order):
   Daniel Aravena         : Magnetic Suceptibility
   Michael Atanasov       : Ab Initio Ligand Field Theory (pilot matlab implementation)
   Alexander A. Auer      : GIAO ZORA, VPT2 properties, NMR spectrum
   Ute Becker             : Parallelization
   Giovanni Bistoni       : ED, misc. LED, open-shell LED, HFLD
   Martin Brehm           : Molecular dynamics
   Dmytro Bykov           : SCF Hessian
   Vijay G. Chilkuri      : MRCI spin determinant printing, contributions to CSF-ICE
   Dipayan Datta          : RHF DLPNO-CCSD density
   Achintya Kumar Dutta   : EOM-CC, STEOM-CC
   Dmitry Ganyushin       : Spin-Orbit,Spin-Spin,Magnetic field MRCI
   Miquel Garcia          : C-PCM and meta-GGA Hessian, CC/C-PCM, Gaussian charge scheme
   Yang Guo               : DLPNO-NEVPT2, F12-NEVPT2, CIM, IAO-localization
   Andreas Hansen         : Spin unrestricted coupled pair/coupled cluster methods
   Benjamin Helmich-Paris : MC-RPA, TRAH-SCF, COSX integrals
   Lee Huntington         : MR-EOM, pCC
   Robert Izsak           : Overlap fitted RIJCOSX, COSX-SCS-MP3, EOM
   Marcus Kettner         : VPT2
   Christian Kollmar      : KDIIS, OOCD, Brueckner-CCSD(T), CCSD density, CASPT2, CASPT2-K
   Simone Kossmann        : Meta GGA functionals, TD-DFT gradient, OOMP2, MP2 Hessian
   Martin Krupicka        : Initial AUTO-CI
   Lucas Lang             : DCDCAS
   Marvin Lechner         : AUTO-CI (C++ implementation), FIC-MRCC
   Dagmar Lenk            : GEPOL surface, SMD
   Dimitrios Liakos       : Extrapolation schemes; Compound Job, initial MDCI parallelization
   Dimitrios Manganas     : Further ROCIS development; embedding schemes
   Dimitrios Pantazis     : SARC Basis sets
   Anastasios Papadopoulos: AUTO-CI, single reference methods and gradients
   Taras Petrenko         : DFT Hessian,TD-DFT gradient, ASA, ECA, R-Raman, ABS, FL, XAS/XES, NRVS
   Peter Pinski           : DLPNO-MP2, DLPNO-MP2 Gradient
   Christoph Reimann      : Effective Core Potentials
   Marius Retegan         : Local ZFS, SOC
   Christoph Riplinger    : Optimizer, TS searches, QM/MM, DLPNO-CCSD(T), (RO)-DLPNO pert. Triples
   Tobias Risthaus        : Range-separated hybrids, TD-DFT gradient, RPA, STAB
   Michael Roemelt        : Original ROCIS implementation
   Masaaki Saitow         : Open-shell DLPNO-CCSD energy and density
   Barbara Sandhoefer     : DKH picture change effects
   Avijit Sen             : IP-ROCIS
   Kantharuban Sivalingam : CASSCF convergence, NEVPT2, FIC-MRCI
   Bernardo de Souza      : ESD, SOC TD-DFT
   Georgi Stoychev        : AutoAux, RI-MP2 NMR, DLPNO-MP2 response
   Willem Van den Heuvel  : Paramagnetic NMR
   Boris Wezisla          : Elementary symmetry handling
   Frank Wennmohs         : Technical directorship


 We gratefully acknowledge several colleagues who have allowed us to
 interface, adapt or use parts of their codes:
   Stefan Grimme, W. Hujo, H. Kruse, P. Pracht,  : VdW corrections, initial TS optimization,
                  C. Bannwarth, S. Ehlert          DFT functionals, gCP, sTDA/sTD-DF
   Ed Valeev, F. Pavosevic, A. Kumar             : LibInt (2-el integral package), F12 methods
   Garnet Chan, S. Sharma, J. Yang, R. Olivares  : DMRG
   Ulf Ekstrom                                   : XCFun DFT Library
   Mihaly Kallay                                 : mrcc  (arbitrary order and MRCC methods)
   Jiri Pittner, Ondrej Demel                    : Mk-CCSD
   Frank Weinhold                                : gennbo (NPA and NBO analysis)
   Christopher J. Cramer and Donald G. Truhlar   : smd solvation model
   Lars Goerigk                                  : TD-DFT with DH, B97 family of functionals
   V. Asgeirsson, H. Jonsson                     : NEB implementation
   FAccTs GmbH                                   : IRC, NEB, NEB-TS, DLPNO-Multilevel, CI-OPT
                                                   MM, QMMM, 2- and 3-layer-ONIOM, Crystal-QMMM,
                                                   LR-CPCM, SF, NACMEs, symmetry and pop. for TD-DFT,
                                                   nearIR, NL-DFT gradient (VV10), updates on ESD,
                                                   ML-optimized integration grids
   S Lehtola, MJT Oliveira, MAL Marques          : LibXC Library
   Liviu Ungur et al                             : ANISO software


 Your calculation uses the libint2 library for the computation of 2-el integrals
 For citations please refer to: http://libint.valeyev.net

 Your ORCA version has been built with support for libXC version: 5.1.0
 For citations please refer to: https://tddft.org/programs/libxc/

 This ORCA versions uses:
   CBLAS   interface :  Fast vector & matrix operations
   LAPACKE interface :  Fast linear algebra routines
   SCALAPACK package :  Parallel linear algebra routines
   Shared memory     :  Shared parallel matrices
   BLAS/LAPACK       :  OpenBLAS 0.3.15  USE64BITINT DYNAMIC_ARCH NO_AFFINITY SkylakeX SINGLE_THREADED
        Core in use  :  SkylakeX
   Copyright (c) 2011-2014, The OpenBLAS Project


Your calculation utilizes the atom-pairwise dispersion correction
with the Becke-Johnson damping scheme (D3BJ)
Cite in your paper:
S.Grimme, S.Ehrlich, L.Goerigk, J Comput Chem, (2011), 32, 1456–1465 
S.Grimme, J.Antony, S.Ehrlich and H.Krieg, J.Chem.Phys., 132, (2010), 154104 
   

Your calculation utilizes the SMD solvation module
Please cite in your paper:
A.V. Marenich, C.J. Cramer, D.G. Truhlar J. Phys. Chem. B, 113, (2009), 6378 

================================================================================

----- Orbital basis set information -----
Your calculation utilizes the basis: def2-TZVP
   F. Weigend and R. Ahlrichs, Phys. Chem. Chem. Phys. 7, 3297 (2005).

----- AuxJ basis set information -----
Your calculation utilizes the auxiliary basis: def2/J
   F. Weigend, Phys. Chem. Chem. Phys. 8, 1057 (2006).

================================================================================
                                        WARNINGS
                       Please study these warnings very carefully!
================================================================================


WARNING: your system is open-shell and RHF/RKS was chosen
  ===> : WILL SWITCH to UHF/UKS


WARNING: Geometry Optimization
  ===> : Switching off AutoStart
         For restart on a previous wavefunction, please use MOREAD

INFO   : the flag for use of the SHARK integral package has been found!

================================================================================
                                       INPUT FILE
================================================================================
NAME = rf_mecn_opt_TPS_C6_D_B.inp
|  1> !TPSSh def2-TZVP opt d3 TightSCF SlowConv defgrid2
|  2>  
|  3> %pal
|  4> nprocs 20
|  5> end
|  6>  
|  7> %scf
|  8> MaxIter 1500
|  9> end
| 10>  
| 11> %maxcore 8000
| 12>  
| 13> !CPCM
| 14> %cpcm smd true
| 15> SMDsolvent "ACETONITRILE"
| 16> end
| 17>  
| 18> * xyz -1 2
| 19> 6        4.790427000     -0.033865800     -0.529943200
| 20> 8        5.449345000     -1.206924000     -0.894594600
| 21> 8        4.978223000      1.323071000     -0.737377200
| 22> 6        3.506687600     -0.338741600      0.376153800
| 23> 6        2.222300000      0.400524800     -0.110681600
| 24> 6        0.900506800     -0.386389800      0.175703000
| 25> 6       -0.395261200      0.487294000      0.065549000
| 26> 6       -1.705693600     -0.364773800     -0.068373600
| 27> 6       -3.005136200      0.445344800      0.258164000
| 28> 6       -4.319880200     -0.214526000     -0.270540800
| 29> 9        3.211587400     -1.692050400      0.412735200
| 30> 9        3.741061800      0.055285800      1.689948800
| 31> 9        2.125696800      1.616867800      0.483236600
| 32> 9        2.314152400      0.589704000     -1.455769200
| 33> 9        0.794028800     -1.413561400     -0.700839000
| 34> 9        0.958350600     -0.884509000      1.435093400
| 35> 9       -0.498373400      1.260265600      1.173340200
| 36> 9       -0.299075000      1.289512600     -1.020910800
| 37> 9       -1.641790400     -1.418189000      0.779523800
| 38> 9       -2.918792200      1.679227200     -0.295171200
| 39> 9       -3.119771000      0.573779800      1.598579800
| 40> 9       -4.383115600     -1.504377600      0.089127600
| 41> 9       -5.365669800      0.430528600      0.260394200
| 42> 9       -4.396020400     -0.128550600     -1.602941800
| 43> *
| 44> 
| 45>                          ****END OF INPUT****
================================================================================

                       *****************************
                       * Geometry Optimization Run *
                       *****************************

Geometry optimization settings:
Update method            Update   .... BFGS
Choice of coordinates    CoordSys .... Z-matrix Internals
Initial Hessian          InHess   .... Almoef's Model

Convergence Tolerances:
Energy Change            TolE     ....  5.0000e-06 Eh
Max. Gradient            TolMAXG  ....  3.0000e-04 Eh/bohr
RMS Gradient             TolRMSG  ....  1.0000e-04 Eh/bohr
Max. Displacement        TolMAXD  ....  4.0000e-03 bohr
RMS Displacement         TolRMSD  ....  2.0000e-03 bohr
Strict Convergence                ....  False
------------------------------------------------------------------------------
                        ORCA OPTIMIZATION COORDINATE SETUP
------------------------------------------------------------------------------

The optimization will be done in new redundant internal coordinates
Making redundant internal coordinates   ...  (new redundants) done
Evaluating the initial hessian          ...  (Almloef) done
Evaluating the coordinates              ...  done
Calculating the B-matrix                .... done
Calculating the G-matrix                .... done
Diagonalizing the G-matrix              .... done
Small eigenvalue found = 5.692e-03
Small eigenvalue found = 1.569e-02
The first mode is                       ....   53
The number of degrees of freedom        ....   66

    -----------------------------------------------------------------
                    Redundant Internal Coordinates


    -----------------------------------------------------------------
         Definition                    Initial Value    Approx d2E/dq
    -----------------------------------------------------------------
      1. B(O   1,C   0)                  1.3940         0.551454   
      2. B(O   2,C   0)                  1.3855         0.568952   
      3. B(C   3,C   0)                  1.6006         0.288221   
      4. B(C   4,C   3)                  1.5599         0.334759   
      5. B(C   5,C   4)                  1.5647         0.328824   
      6. B(C   6,C   5)                  1.5667         0.326486   
      7. B(C   7,C   6)                  1.5688         0.323927   
      8. B(C   8,C   7)                  1.5657         0.327637   
      9. B(C   9,C   8)                  1.5632         0.330714   
     10. B(F  10,C   3)                  1.3856         0.528443   
     11. B(F  11,C   3)                  1.3915         0.517117   
     12. B(F  12,C   4)                  1.3570         0.586881   
     13. B(F  13,C   4)                  1.3614         0.577499   
     14. B(F  14,C   5)                  1.3545         0.592326   
     15. B(F  15,C   5)                  1.3556         0.590092   
     16. B(F  16,C   6)                  1.3547         0.591865   
     17. B(F  17,C   6)                  1.3540         0.593567   
     18. B(F  18,C   7)                  1.3538         0.593973   
     19. B(F  19,C   8)                  1.3550         0.591238   
     20. B(F  20,C   8)                  1.3514         0.599114   
     21. B(F  21,C   9)                  1.3406         0.623533   
     22. B(F  22,C   9)                  1.3385         0.628179   
     23. B(F  23,C   9)                  1.3373         0.630929   
     24. A(O   1,C   0,C   3)          111.5249         0.369222   
     25. A(O   2,C   0,C   3)          112.3347         0.371210   
     26. A(O   1,C   0,O   2)          136.1318         0.413163   
     27. A(C   4,C   3,F  10)          107.2033         0.374492   
     28. A(C   4,C   3,F  11)          107.4072         0.373095   
     29. A(F  10,C   3,F  11)          106.7094         0.399684   
     30. A(C   0,C   3,C   4)          113.1687         0.341363   
     31. A(C   0,C   3,F  11)          110.2099         0.363632   
     32. A(C   0,C   3,F  10)          111.8265         0.364982   
     33. A(C   3,C   4,F  12)          110.2926         0.381351   
     34. A(F  12,C   4,F  13)          108.2194         0.415201   
     35. A(C   3,C   4,C   5)          113.5839         0.349005   
     36. A(C   3,C   4,F  13)          108.5818         0.380286   
     37. A(C   5,C   4,F  13)          107.9208         0.379109   
     38. A(C   5,C   4,F  12)          108.0911         0.380169   
     39. A(F  14,C   5,F  15)          109.0206         0.417483   
     40. A(C   4,C   5,C   6)          113.9128         0.347536   
     41. A(C   6,C   5,F  15)          107.7906         0.380059   
     42. A(C   4,C   5,F  15)          108.5900         0.380529   
     43. A(C   4,C   5,F  14)          109.2282         0.380779   
     44. A(C   6,C   5,F  14)          108.2026         0.380308   
     45. A(C   5,C   6,C   7)          113.2023         0.346660   
     46. A(F  16,C   6,F  17)          108.8752         0.417862   
     47. A(C   7,C   6,F  17)          108.2186         0.379927   
     48. A(C   5,C   6,F  17)          109.1523         0.380446   
     49. A(C   7,C   6,F  16)          108.4284         0.379738   
     50. A(C   5,C   6,F  16)          108.8835         0.380256   
     51. A(C   8,C   7,F  18)          108.1296         0.380723   
     52. A(C   6,C   7,F  18)          109.2524         0.379972   
     53. A(C   6,C   7,C   8)          113.2298         0.346865   
     54. A(F  19,C   8,F  20)          108.8987         0.418476   
     55. A(C   7,C   8,C   9)          114.1471         0.348078   
     56. A(C   9,C   8,F  20)          107.7127         0.381912   
     57. A(C   7,C   8,F  20)          109.0521         0.381293   
     58. A(C   9,C   8,F  19)          107.4499         0.381036   
     59. A(C   7,C   8,F  19)          109.4572         0.380419   
     60. A(F  22,C   9,F  23)          108.6464         0.426961   
     61. A(F  21,C   9,F  23)          109.0552         0.426394   
     62. A(C   8,C   9,F  23)          110.9604         0.385362   
     63. A(F  21,C   9,F  22)          108.6877         0.426061   
     64. A(C   8,C   9,F  22)          108.6349         0.385069   
     65. A(C   8,C   9,F  21)          110.7995         0.384572   
     66. D(C   4,C   3,C   0,O   2)     49.8076         0.006601   
     67. D(F  11,C   3,C   0,O   1)    108.6317         0.006601   
     68. D(C   4,C   3,C   0,O   1)   -131.0839         0.006601   
     69. D(F  10,C   3,C   0,O   2)    171.0025         0.006601   
     70. D(F  11,C   3,C   0,O   2)    -70.4768         0.006601   
     71. D(F  10,C   3,C   0,O   1)     -9.8890         0.006601   
     72. D(F  13,C   4,C   3,C   0)     28.5784         0.009100   
     73. D(F  12,C   4,C   3,F  10)    146.3851         0.009100   
     74. D(F  13,C   4,C   3,F  11)    150.4470         0.009100   
     75. D(F  12,C   4,C   3,C   0)    -89.8453         0.009100   
     76. D(C   5,C   4,C   3,F  11)    -89.4885         0.009100   
     77. D(F  12,C   4,C   3,F  11)     32.0233         0.009100   
     78. D(C   5,C   4,C   3,C   0)    148.6429         0.009100   
     79. D(F  13,C   4,C   3,F  10)    -95.1911         0.009100   
     80. D(C   5,C   4,C   3,F  10)     24.8733         0.009100   
     81. D(F  15,C   5,C   4,F  13)    164.2540         0.008811   
     82. D(F  15,C   5,C   4,C   3)     43.8158         0.008811   
     83. D(F  14,C   5,C   4,F  13)     45.4721         0.008811   
     84. D(F  14,C   5,C   4,F  12)    162.3014         0.008811   
     85. D(F  14,C   5,C   4,C   3)    -74.9661         0.008811   
     86. D(C   6,C   5,C   4,F  13)    -75.6292         0.008811   
     87. D(F  15,C   5,C   4,F  12)    -78.9166         0.008811   
     88. D(C   6,C   5,C   4,F  12)     41.2001         0.008811   
     89. D(C   6,C   5,C   4,C   3)    163.9326         0.008811   
     90. D(F  16,C   6,C   5,F  15)     44.2190         0.008700   
     91. D(F  16,C   6,C   5,F  14)    161.9826         0.008700   
     92. D(F  16,C   6,C   5,C   4)    -76.3465         0.008700   
     93. D(C   7,C   6,C   5,C   4)    162.9815         0.008700   
     94. D(C   7,C   6,C   5,F  14)     41.3107         0.008700   
     95. D(F  17,C   6,C   5,C   4)     42.3872         0.008700   
     96. D(C   7,C   6,C   5,F  15)    -76.4529         0.008700   
     97. D(F  17,C   6,C   5,F  15)    162.9527         0.008700   
     98. D(F  17,C   6,C   5,F  14)    -79.2837         0.008700   
     99. D(F  18,C   7,C   6,F  16)    -79.1358         0.008059   
    100. D(F  18,C   7,C   6,C   5)     41.7939         0.008059   
    101. D(C   8,C   7,C   6,F  17)    -76.5134         0.008059   
    102. D(C   8,C   7,C   6,F  16)     41.4341         0.008059   
    103. D(F  18,C   7,C   6,F  17)    162.9167         0.008059   
    104. D(C   8,C   7,C   6,C   5)    162.3638         0.008059   
    105. D(F  20,C   8,C   7,F  18)     44.1231         0.008223   
    106. D(F  20,C   8,C   7,C   6)    -77.0818         0.008223   
    107. D(F  19,C   8,C   7,F  18)    163.1633         0.008223   
    108. D(F  19,C   8,C   7,C   6)     41.9584         0.008223   
    109. D(C   9,C   8,C   7,F  18)    -76.3785         0.008223   
    110. D(C   9,C   8,C   7,C   6)    162.4166         0.008223   
    111. D(F  23,C   9,C   8,F  20)    167.4828         0.008903   
    112. D(F  23,C   9,C   8,F  19)     50.3013         0.008903   
    113. D(F  23,C   9,C   8,C   7)    -71.2711         0.008903   
    114. D(F  22,C   9,C   8,F  20)     48.1091         0.008903   
    115. D(F  22,C   9,C   8,F  19)    -69.0724         0.008903   
    116. D(F  22,C   9,C   8,C   7)    169.3552         0.008903   
    117. D(F  21,C   9,C   8,F  20)    -71.2185         0.008903   
    118. D(F  21,C   9,C   8,F  19)    171.5999         0.008903   
    119. D(F  21,C   9,C   8,C   7)     50.0276         0.008903   
    -----------------------------------------------------------------

Number of atoms                         .... 24
Number of degrees of freedom            .... 119

         *************************************************************
         *                GEOMETRY OPTIMIZATION CYCLE   1            *
         *************************************************************
---------------------------------
CARTESIAN COORDINATES (ANGSTROEM)
---------------------------------
  C      4.790427   -0.033866   -0.529943
  O      5.449345   -1.206924   -0.894595
  O      4.978223    1.323071   -0.737377
  C      3.506688   -0.338742    0.376154
  C      2.222300    0.400525   -0.110682
  C      0.900507   -0.386390    0.175703
  C     -0.395261    0.487294    0.065549
  C     -1.705694   -0.364774   -0.068374
  C     -3.005136    0.445345    0.258164
  C     -4.319880   -0.214526   -0.270541
  F      3.211587   -1.692050    0.412735
  F      3.741062    0.055286    1.689949
  F      2.125697    1.616868    0.483237
  F      2.314152    0.589704   -1.455769
  F      0.794029   -1.413561   -0.700839
  F      0.958351   -0.884509    1.435093
  F     -0.498373    1.260266    1.173340
  F     -0.299075    1.289513   -1.020911
  F     -1.641790   -1.418189    0.779524
  F     -2.918792    1.679227   -0.295171
  F     -3.119771    0.573780    1.598580
  F     -4.383116   -1.504378    0.089128
  F     -5.365670    0.430529    0.260394
  F     -4.396020   -0.128551   -1.602942

----------------------------
CARTESIAN COORDINATES (A.U.)
----------------------------
  NO LB      ZA    FRAG     MASS         X           Y           Z
   0 C     6.0000    0    12.011    9.052595   -0.063997   -1.001448
   1 O     8.0000    0    15.999   10.297770   -2.280756   -1.690539
   2 O     8.0000    0    15.999    9.407478    2.500242   -1.393441
   3 C     6.0000    0    12.011    6.626679   -0.640129    0.710828
   4 C     6.0000    0    12.011    4.199538    0.756882   -0.209158
   5 C     6.0000    0    12.011    1.701711   -0.730171    0.332031
   6 C     6.0000    0    12.011   -0.746935    0.920852    0.123870
   7 C     6.0000    0    12.011   -3.223294   -0.689323   -0.129207
   8 C     6.0000    0    12.011   -5.678884    0.841580    0.487859
   9 C     6.0000    0    12.011   -8.163391   -0.405395   -0.511248
  10 F     9.0000    0    18.998    6.069021   -3.197512    0.779956
  11 F     9.0000    0    18.998    7.069582    0.104475    3.193540
  12 F     9.0000    0    18.998    4.016985    3.055437    0.913185
  13 F     9.0000    0    18.998    4.373114    1.114379   -2.751005
  14 F     9.0000    0    18.998    1.500497   -2.671244   -1.324394
  15 F     9.0000    0    18.998    1.811020   -1.671480    2.711934
  16 F     9.0000    0    18.998   -0.941789    2.381557    2.217292
  17 F     9.0000    0    18.998   -0.565170    2.436826   -1.929242
  18 F     9.0000    0    18.998   -3.102534   -2.679989    1.473086
  19 F     9.0000    0    18.998   -5.515718    3.173280   -0.557793
  20 F     9.0000    0    18.998   -5.895513    1.084287    3.020878
  21 F     9.0000    0    18.998   -8.282888   -2.842862    0.168427
  22 F     9.0000    0    18.998  -10.139646    0.813581    0.492074
  23 F     9.0000    0    18.998   -8.307275   -0.242925   -3.029121

--------------------------------
INTERNAL COORDINATES (ANGSTROEM)
--------------------------------
 C      0   0   0     0.000000000000     0.00000000     0.00000000
 O      1   0   0     1.393990356793     0.00000000     0.00000000
 O      1   2   0     1.385486802956   136.13177198     0.00000000
 C      1   2   3     1.600608594862   111.52489317   181.18992567
 C      4   1   2     1.559863783763   113.16872737   228.91614990
 C      5   4   1     1.564732561934   113.58394786   148.64287440
 C      6   5   4     1.566675459667   113.91280616   163.93256239
 C      7   6   5     1.568817348692   113.20226571   162.98152714
 C      8   7   6     1.565717094808   113.22984595   162.36375422
 C      9   8   7     1.563173062643   114.14707705   162.41661495
 F      4   1   2     1.385592665621   111.82651119   350.11101305
 F      4   1   2     1.391490625050   110.20991618   108.63170802
 F      5   4   1     1.357041377479   110.29260564   270.15468021
 F      5   4   1     1.361428031433   108.58179722    28.57841973
 F      6   5   4     1.354527570075   109.22822656   285.03385927
 F      6   5   4     1.355556277776   108.59004089    43.81583148
 F      7   6   5     1.354739297058   108.88346185   283.65347401
 F      7   6   5     1.353957667090   109.15230848    42.38718856
 F      8   7   6     1.353771473879   109.25240264    41.79387651
 F      9   8   7     1.355028009646   109.45719767    41.95842364
 F      9   8   7     1.351425618925   109.05210362   282.91820052
 F     10   9   8     1.340551089588   110.79953142    50.02756898
 F     10   9   8     1.338530275591   108.63493714   169.35523750
 F     10   9   8     1.337341214598   110.96044107   288.72891896

---------------------------
INTERNAL COORDINATES (A.U.)
---------------------------
 C      0   0   0     0.000000000000     0.00000000     0.00000000
 O      1   0   0     2.634260007667     0.00000000     0.00000000
 O      1   2   0     2.618190619750   136.13177198     0.00000000
 C      1   2   3     3.024711891890   111.52489317   181.18992567
 C      4   1   2     2.947715357535   113.16872737   228.91614990
 C      5   4   1     2.956916014884   113.58394786   148.64287440
 C      6   5   4     2.960587559506   113.91280616   163.93256239
 C      7   6   5     2.964635143173   113.20226571   162.98152714
 C      8   7   6     2.958776512386   113.22984595   162.36375422
 C      9   8   7     2.953968988318   114.14707705   162.41661495
 F      4   1   2     2.618390671194   111.82651119   350.11101305
 F      4   1   2     2.629536199263   110.20991618   108.63170802
 F      5   4   1     2.564436555835   110.29260564   270.15468021
 F      5   4   1     2.572726130452   108.58179722    28.57841973
 F      6   5   4     2.559686148288   109.22822656   285.03385927
 F      6   5   4     2.561630124115   108.59004089    43.81583148
 F      7   6   5     2.560086254300   108.88346185   283.65347401
 F      7   6   5     2.558609187723   109.15230848    42.38718856
 F      8   7   6     2.558257333546   109.25240264    41.79387651
 F      9   8   7     2.560631842023   109.45719767    41.95842364
 F      9   8   7     2.553824310132   109.05210362   282.91820052
 F     10   9   8     2.533274427850   110.79953142    50.02756898
 F     10   9   8     2.529455642830   108.63493714   169.35523750
 F     10   9   8     2.527208643196   110.96044107   288.72891896

---------------------
BASIS SET INFORMATION
---------------------
There are 3 groups of distinct atoms

 Group   1 Type C   : 11s6p2d1f contracted to 5s3p2d1f pattern {62111/411/11/1}
 Group   2 Type O   : 11s6p2d1f contracted to 5s3p2d1f pattern {62111/411/11/1}
 Group   3 Type F   : 11s6p2d1f contracted to 5s3p2d1f pattern {62111/411/11/1}

Atom   0C    basis set group =>   1
Atom   1O    basis set group =>   2
Atom   2O    basis set group =>   2
Atom   3C    basis set group =>   1
Atom   4C    basis set group =>   1
Atom   5C    basis set group =>   1
Atom   6C    basis set group =>   1
Atom   7C    basis set group =>   1
Atom   8C    basis set group =>   1
Atom   9C    basis set group =>   1
Atom  10F    basis set group =>   3
Atom  11F    basis set group =>   3
Atom  12F    basis set group =>   3
Atom  13F    basis set group =>   3
Atom  14F    basis set group =>   3
Atom  15F    basis set group =>   3
Atom  16F    basis set group =>   3
Atom  17F    basis set group =>   3
Atom  18F    basis set group =>   3
Atom  19F    basis set group =>   3
Atom  20F    basis set group =>   3
Atom  21F    basis set group =>   3
Atom  22F    basis set group =>   3
Atom  23F    basis set group =>   3
---------------------------------
AUXILIARY/J BASIS SET INFORMATION
---------------------------------
There are 3 groups of distinct atoms

 Group   1 Type C   : 12s5p4d2f1g contracted to 6s4p3d1f1g pattern {711111/2111/211/2/1}
 Group   2 Type O   : 12s5p4d2f1g contracted to 6s4p3d1f1g pattern {711111/2111/211/2/1}
 Group   3 Type F   : 12s5p4d2f1g contracted to 6s4p3d1f1g pattern {711111/2111/211/2/1}

Atom   0C    basis set group =>   1
Atom   1O    basis set group =>   2
Atom   2O    basis set group =>   2
Atom   3C    basis set group =>   1
Atom   4C    basis set group =>   1
Atom   5C    basis set group =>   1
Atom   6C    basis set group =>   1
Atom   7C    basis set group =>   1
Atom   8C    basis set group =>   1
Atom   9C    basis set group =>   1
Atom  10F    basis set group =>   3
Atom  11F    basis set group =>   3
Atom  12F    basis set group =>   3
Atom  13F    basis set group =>   3
Atom  14F    basis set group =>   3
Atom  15F    basis set group =>   3
Atom  16F    basis set group =>   3
Atom  17F    basis set group =>   3
Atom  18F    basis set group =>   3
Atom  19F    basis set group =>   3
Atom  20F    basis set group =>   3
Atom  21F    basis set group =>   3
Atom  22F    basis set group =>   3
Atom  23F    basis set group =>   3


           ************************************************************
           *        Program running with 20 parallel MPI-processes    *
           *              working on a common directory               *
           ************************************************************
------------------------------------------------------------------------------
                           ORCA GTO INTEGRAL CALCULATION
                           -- RI-GTO INTEGRALS CHOSEN --
------------------------------------------------------------------------------
------------------------------------------------------------------------------
                   ___                                                        
                  /   \      - P O W E R E D   B Y -                         
                 /     \                                                     
                 |  |  |   _    _      __       _____    __    __             
                 |  |  |  | |  | |    /  \     |  _  \  |  |  /  |          
                  \  \/   | |  | |   /    \    | | | |  |  | /  /          
                 / \  \   | |__| |  /  /\  \   | |_| |  |  |/  /          
                |  |  |   |  __  | /  /__\  \  |    /   |      \           
                |  |  |   | |  | | |   __   |  |    \   |  |\   \          
                \     /   | |  | | |  |  |  |  | |\  \  |  | \   \       
                 \___/    |_|  |_| |__|  |__|  |_| \__\ |__|  \__/        
                                                                              
                      - O R C A' S   B I G   F R I E N D -                    
                                      &                                       
                       - I N T E G R A L  F E E D E R -                       
                                                                              
 v1 FN, 2020, v2 2021                                                         
------------------------------------------------------------------------------


Reading SHARK input file rf_mecn_opt_TPS_C6_D_B.SHARKINP.tmp ... ok
----------------------
SHARK INTEGRAL PACKAGE
----------------------

Number of atoms                             ...     24
Number of basis functions                   ...    744
Number of shells                            ...    264
Maximum angular momentum                    ...      3
Integral batch strategy                     ... SHARK/LIBINT Hybrid
RI-J (if used) integral strategy            ... SPLIT-RIJ (Revised 2003 algorithm where possible)
Printlevel                                  ...      1
Contraction scheme used                     ... SEGMENTED contraction
Coulomb Range Separation                    ... NOT USED
Exchange Range Separation                   ... NOT USED
Finite Nucleus Model                        ... NOT USED
Auxiliary Coulomb fitting basis             ... AVAILABLE
   # of basis functions in Aux-J            ...   1176
   # of shells in Aux-J                     ...    360
   Maximum angular momentum in Aux-J        ...      4
Auxiliary J/K fitting basis                 ... NOT available
Auxiliary Correlation fitting basis         ... NOT available
Auxiliary 'external' fitting basis          ... NOT available
Integral threshold                          ...     2.500000e-11
Primitive cut-off                           ...     2.500000e-12
Primitive pair pre-selection threshold      ...     2.500000e-12

Calculating pre-screening integrals         ... done (  0.1 sec) Dimension = 264
Organizing shell pair data                  ... done (  0.3 sec)
Shell pair information
Total number of shell pairs                 ...     34980
Shell pairs after pre-screening             ...     21476
Total number of primitive shell pairs       ...    115968
Primitive shell pairs kept                  ...     45760
          la=0 lb=0:   4014 shell pairs
          la=1 lb=0:   5835 shell pairs
          la=1 lb=1:   2046 shell pairs
          la=2 lb=0:   3192 shell pairs
          la=2 lb=1:   2368 shell pairs
          la=2 lb=2:    672 shell pairs
          la=3 lb=0:   1450 shell pairs
          la=3 lb=1:   1136 shell pairs
          la=3 lb=2:    615 shell pairs
          la=3 lb=3:    148 shell pairs

Calculating one electron integrals          ... done (  0.0 sec)
Calculating RI/J V-Matrix + Cholesky decomp.... done (  0.1 sec)
Calculating Nuclear repulsion               ... done (  0.0 sec) ENN=   2594.898969675816 Eh

SHARK setup successfully completed in   0.8 seconds

Maximum memory used throughout the entire GTOINT-calculation: 38.3 MB


           ************************************************************
           *        Program running with 20 parallel MPI-processes    *
           *              working on a common directory               *
           ************************************************************
-------------------------------------------------------------------------------
                                 ORCA SCF
-------------------------------------------------------------------------------

------------
SCF SETTINGS
------------
Hamiltonian:
 Density Functional     Method          .... DFT(GTOs)
 Exchange Functional    Exchange        .... TPSS
 Correlation Functional Correlation     .... TPSS
 LDA part of GGA corr.  LDAOpt          .... PW91-LDA
 Gradients option       PostSCFGGA      .... off
 Hybrid DFT is turned on
   Fraction HF Exchange ScalHFX         ....  0.100000
   Scaling of DF-GGA-X  ScalDFX         ....  0.900000
   Scaling of DF-GGA-C  ScalDFC         ....  1.000000
   Scaling of DF-LDA-C  ScalLDAC        ....  1.000000
   Perturbative correction              ....  0.000000
   Density functional embedding theory  .... OFF
   NL short-range parameter             ....  5.200000
 RI-approximation to the Coulomb term is turned on
   Number of AuxJ basis functions       .... 1176
   RIJ-COSX (HFX calculated with COS-X)).... on


General Settings:
 Integral files         IntName         .... rf_mecn_opt_TPS_C6_D_B
 Hartree-Fock type      HFTyp           .... UHF
 Total Charge           Charge          ....   -1
 Multiplicity           Mult            ....    2
 Number of Electrons    NEL             ....  191
 Basis Dimension        Dim             ....  744
 Nuclear Repulsion      ENuc            ....   2594.8989696758 Eh

Convergence Acceleration:
 DIIS                   CNVDIIS         .... on
   Start iteration      DIISMaxIt       ....     0
   Startup error        DIISStart       ....  0.200000
   # of expansion vecs  DIISMaxEq       ....     5
   Bias factor          DIISBfac        ....   1.050
   Max. coefficient     DIISMaxC        ....  10.000
 Trust-Rad. Augm. Hess. CNVTRAH         .... auto
   Auto Start mean grad. ratio tolernc. ....  1.125000
   Auto Start start iteration           ....    20
   Auto Start num. interpolation iter.  ....    10
   Max. Number of Micro iterations      ....    16
   Max. Number of Macro iterations      .... Maxiter - #DIIS iter
   Number of Davidson start vectors     ....     2
   Converg. threshold I  (grad. norm)   ....   1.000e-05
   Converg. threshold II (energy diff.) ....   1.000e-08
   Grad. Scal. Fac. for Micro threshold ....   0.100
   Minimum threshold for Micro iter.    ....   0.010
   NR start threshold (gradient norm)   ....   0.001
   Initial trust radius                 ....   0.400
   Minimum AH scaling param. (alpha)    ....   1.000
   Maximum AH scaling param. (alpha)    .... 1000.000
   Orbital update algorithm             .... Taylor
   White noise on init. David. guess    .... on
   Maximum white noise                  ....   0.010
   Quad. conv. algorithm                .... NR
 SOSCF                  CNVSOSCF        .... off
 Level Shifting         CNVShift        .... on
   Level shift para.    LevelShift      ....    0.2500
   Turn off err/grad.   ShiftErr        ....    0.0000
 Zerner damping         CNVZerner       .... off
 Static damping         CNVDamp         .... on
   Fraction old density DampFac         ....    0.8500
   Max. Damping (<1)    DampMax         ....    0.9800
   Min. Damping (>=0)   DampMin         ....    0.0000
   Turn off err/grad.   DampErr         ....    0.0300
 Fernandez-Rico         CNVRico         .... off

SCF Procedure:
 Maximum # iterations   MaxIter         ....  1500
 SCF integral mode      SCFMode         .... Direct
   Integral package                     .... SHARK and LIBINT hybrid scheme
 Reset frequency        DirectResetFreq ....    20
 Integral Threshold     Thresh          ....  2.500e-11 Eh
 Primitive CutOff       TCut            ....  2.500e-12 Eh

Convergence Tolerance:
 Convergence Check Mode ConvCheckMode   .... Total+1el-Energy
 Convergence forced     ConvForced      .... 0
 Energy Change          TolE            ....  1.000e-08 Eh
 1-El. energy change                    ....  1.000e-05 Eh
 DIIS Error             TolErr          ....  5.000e-07


Diagonalization of the overlap matrix:
Smallest eigenvalue                        ... 6.410e-05
Time for diagonalization                   ...    0.114 sec
Threshold for overlap eigenvalues          ... 1.000e-08
Number of eigenvalues below threshold      ... 0
Time for construction of square roots      ...    0.102 sec
Total time needed                          ...    0.220 sec

Time for model grid setup =    0.488 sec

------------------------------
INITIAL GUESS: MODEL POTENTIAL
------------------------------
Loading Hartree-Fock densities                     ... done
Calculating cut-offs                               ... done
Initializing the effective Hamiltonian             ... done
Setting up the integral package (SHARK)            ... done
Starting the Coulomb interaction                   ... done (   0.2 sec)
Reading the grid                                   ... done
Mapping shells                                     ... done
Starting the XC term evaluation                    ... done (   0.2 sec)
  promolecular density results
     # of electrons  =    190.000891703
     EX              =   -197.018238762
     EC              =     -6.647799013
     EX+EC           =   -203.666037775
Transforming the Hamiltonian                       ... done (   0.1 sec)
Diagonalizing the Hamiltonian                      ... done (   0.1 sec)
Back transforming the eigenvectors                 ... done (   0.0 sec)
Now organizing SCF variables                       ... done
                      ------------------
                      INITIAL GUESS DONE (   1.3 sec)
                      ------------------
-------------------
DFT GRID GENERATION
-------------------

General Integration Accuracy     IntAcc      ... 4.388
Radial Grid Type                 RadialGrid  ... OptM3 with GC (2021)
Angular Grid (max. ang.)         AngularGrid ... 4 (Lebedev-302)
Angular grid pruning method      GridPruning ... 4 (adaptive)
Weight generation scheme         WeightScheme... Becke
Basis function cutoff            BFCut       ... 1.0000e-11
Integration weight cutoff        WCut        ... 1.0000e-14
Angular grids for H and He will be reduced by one unit
Partially contracted basis set               ... off
Rotationally invariant grid construction     ... off

Total number of grid points                  ...   145512
Total number of batches                      ...     2284
Average number of points per batch           ...       63
Average number of grid points per atom       ...     6063
Time for grid setup =    0.929 sec

--------------------
COSX GRID GENERATION
--------------------

GRIDX 1
-------
General Integration Accuracy     IntAcc      ... 3.816
Radial Grid Type                 RadialGrid  ... OptM3 with GC (2021)
Angular Grid (max. ang.)         AngularGrid ... 1 (Lebedev-50)
Angular grid pruning method      GridPruning ... 4 (adaptive)
Weight generation scheme         WeightScheme... Becke
Basis function cutoff            BFCut       ... 1.0000e-11
Integration weight cutoff        WCut        ... 1.0000e-14
Angular grids for H and He will be reduced by one unit
Partially contracted basis set               ... on
Rotationally invariant grid construction     ... off

Total number of grid points                  ...    18286
Total number of batches                      ...      298
Average number of points per batch           ...       61
Average number of grid points per atom       ...      762
UseSFitting                                  ... on

GRIDX 2
-------
General Integration Accuracy     IntAcc      ... 4.020
Radial Grid Type                 RadialGrid  ... OptM3 with GC (2021)
Angular Grid (max. ang.)         AngularGrid ... 2 (Lebedev-110)
Angular grid pruning method      GridPruning ... 4 (adaptive)
Weight generation scheme         WeightScheme... Becke
Basis function cutoff            BFCut       ... 1.0000e-11
Integration weight cutoff        WCut        ... 1.0000e-14
Angular grids for H and He will be reduced by one unit
Partially contracted basis set               ... on
Rotationally invariant grid construction     ... off

Total number of grid points                  ...    43376
Total number of batches                      ...      693
Average number of points per batch           ...       62
Average number of grid points per atom       ...     1807
UseSFitting                                  ... on

GRIDX 3
-------
General Integration Accuracy     IntAcc      ... 4.338
Radial Grid Type                 RadialGrid  ... OptM3 with GC (2021)
Angular Grid (max. ang.)         AngularGrid ... 3 (Lebedev-194)
Angular grid pruning method      GridPruning ... 4 (adaptive)
Weight generation scheme         WeightScheme... Becke
Basis function cutoff            BFCut       ... 1.0000e-11
Integration weight cutoff        WCut        ... 1.0000e-14
Angular grids for H and He will be reduced by one unit
Partially contracted basis set               ... on
Rotationally invariant grid construction     ... off

Total number of grid points                  ...    96110
Total number of batches                      ...     1514
Average number of points per batch           ...       63
Average number of grid points per atom       ...     4005
UseSFitting                                  ... on

Time for X-Grid setup             =    1.606 sec


--------------------
CPCM SOLVATION MODEL
--------------------
CPCM parameters:
  Epsilon                                         ...      35.6880
  Refrac                                          ...       1.3442
  Rsolv                                           ...       1.3000
  Surface type                                    ... GAUSSIAN VDW
  Epsilon function type                           ...         CPCM
Solvent:                                     ... ACETONITRILE
SMD-CDS solvent descriptors:
  Soln                                       ...    1.3442
  Soln25                                     ...    1.3416
  Sola                                       ...    0.0700
  Solb                                       ...    0.3200
  Solg                                       ...   41.2500
  Solc                                       ...    0.0000
  Solh                                       ...    0.0000
Radii:
 Radius for C  used is    3.4960 Bohr (=   1.8500 Ang.)
 Radius for O  used is    4.0969 Bohr (=   2.1680 Ang.)
 Radius for F  used is    3.2692 Bohr (=   1.7300 Ang.)
Calculating surface                               ...        done! (  0.0s)
GEPOL surface points                              ...         1279
GEPOL Volume                                      ...    2150.3089
GEPOL Surface-area                                ...    1121.8007
Calculating surface distance matrix               ...        done! (  0.0s)
Performing Cholesky decomposition & store         ...        done! (  0.1s)
Overall time for CPCM initialization              ...                 0.1s
--------------
SCF ITERATIONS
--------------
ITER       Energy         Delta-E        Max-DP      RMS-DP      [F,P]     Damp
               ***  Starting incremental Fock matrix formation  ***
  0  -1853.4088998446   0.000000000000 0.03690700  0.00018917  0.1563388 0.8500
  1  -1853.5619167344  -0.153016889815 0.05755027  0.00021470  0.1023256 0.8500
                               ***Turning on DIIS***
  2  -1853.6384426209  -0.076525886470 0.04375296  0.00015633  0.0575750 0.8500
  3  -1853.6789496179  -0.040506997045 0.11291493  0.00048647  0.0292633 0.0000
  4  -1853.8479525129  -0.169002894928 0.01197387  0.00003820  0.0342839 0.8500
  5  -1853.8530228640  -0.005070351179 0.10060127  0.00031908  0.0292517 0.0000
  6  -1853.8705906520  -0.017567787908 0.01237183  0.00005165  0.0081221 0.0000
  7  -1853.8715072613  -0.000916609379 0.00156667  0.00001320  0.0024131 0.0000
  8  -1853.8715720744  -0.000064813102 0.00067272  0.00000614  0.0024644 0.0000
  9  -1853.8716159176  -0.000043843116 0.00034965  0.00000322  0.0003935 0.0000
               *** Restarting incremental Fock matrix formation ***
                                   *** Resetting DIIS ***
 10  -1853.8716276281  -0.000011710557 0.00029312  0.00000220  0.0002664 0.0000
 11  -1853.8716289373  -0.000001309138 0.00011123  0.00000098  0.0004175 0.0000
 12  -1853.8716307169  -0.000001779631 0.00010233  0.00000073  0.0000560 0.0000
 13  -1853.8716311483  -0.000000431432 0.00005524  0.00000048  0.0000529 0.0000
 14  -1853.8716313577  -0.000000209384 0.00004013  0.00000032  0.0000355 0.0000
 15  -1853.8716314992  -0.000000141516 0.00003070  0.00000023  0.0000281 0.0000
 16  -1853.8716315478  -0.000000048622 0.00002611  0.00000017  0.0000223 0.0000
 17  -1853.8716315713  -0.000000023451 0.00002008  0.00000015  0.0000177 0.0000
 18  -1853.8716316245  -0.000000053197 0.00001604  0.00000012  0.0000140 0.0000
 19  -1853.8716315964   0.000000028042 0.00001253  0.00000009  0.0000110 0.0000
 20  -1853.8716316214  -0.000000024919 0.00000996  0.00000008  0.0000086 0.0000
 21  -1853.8716316040   0.000000017402 0.00002019  0.00000011  0.0000067 0.0000
 22  -1853.8716316151  -0.000000011182 0.00000918  0.00000007  0.0000052 0.0000
 23  -1853.8716316328  -0.000000017687 0.00001398  0.00000008  0.0000041 0.0000
 24  -1853.8716315833   0.000000049524 0.00000569  0.00000004  0.0000032 0.0000
 25  -1853.8716316197  -0.000000036367 0.00000773  0.00000005  0.0000025 0.0000
 26  -1853.8716316278  -0.000000008095 0.00001007  0.00000004  0.0000019 0.0000
 27  -1853.8716316605  -0.000000032767 0.00000968  0.00000004  0.0000015 0.0000
 28  -1853.8716316380   0.000000022493 0.00000625  0.00000003  0.0000012 0.0000
                 **** Energy Check signals convergence ****

               *****************************************************
               *                     SUCCESS                       *
               *           SCF CONVERGED AFTER  29 CYCLES          *
               *****************************************************

Old exchange energy                            =    -19.871969234 Eh
New exchange energy                            =    -19.871977372 Eh
Exchange energy change after final integration =     -0.000008138 Eh
Total energy after final integration           =  -1853.871639779 Eh
Final COS-X integration done in                =    10.484 sec

SMD CDS free energy correction energy :                 3.61162     Kcal/mol
Total Energy after SMD CDS correction =             -1853.865884301 Eh

----------------
TOTAL SCF ENERGY
----------------

Total Energy       :        -1853.86588430 Eh          -50446.25535 eV

Components:
Nuclear Repulsion  :         2594.89896968 Eh           70610.79075 eV
Electronic Energy  :        -4448.76485398 Eh         -121057.04610 eV
One Electron Energy:        -7764.62582984 Eh         -211286.21041 eV
Two Electron Energy:         3315.86097586 Eh           90229.16432 eV
Max COSX asymmetry :            0.00000031 Eh               0.00001 eV
CPCM Dielectric    :           -0.08378209 Eh              -2.27983 eV
SMD CDS (Gcds)     :            0.00575548 Eh               0.15661 eV

Virial components:
Potential Energy   :        -3700.48285230 Eh         -100695.25766 eV
Kinetic Energy     :         1846.61696800 Eh           50249.00231 eV
Virial Ratio       :            2.00392551


DFT components:
N(Alpha)           :       95.999980740621 electrons
N(Beta)            :       94.999967369800 electrons
N(Total)           :      190.999948110420 electrons
E(X)               :     -180.648895482821 Eh       
E(C)               :       -6.696234741741 Eh       
E(XC)              :     -187.345130224562 Eh       
DFET-embed. en.    :        0.000000000000 Eh       
CPCM Solvation Model Properties:
Surface-charge          :            0.98983165
Charge-correction       :           -0.00099150 Eh              -0.02698 eV
Free-energy (cav+disp)  :            0.00575548 Eh               0.15661 eV

---------------
SCF CONVERGENCE
---------------

  Last Energy change         ...   -3.1341e-09  Tolerance :   1.0000e-08
  Last MAX-Density change    ...    0.0000e+00  Tolerance :   1.0000e-07
  Last RMS-Density change    ...    0.0000e+00  Tolerance :   5.0000e-09
  Last DIIS Error            ...    9.0931e-07  Tolerance :   5.0000e-07

             **** THE GBW FILE WAS UPDATED (rf_mecn_opt_TPS_C6_D_B.gbw) ****
             **** DENSITY rf_mecn_opt_TPS_C6_D_B.scfp WAS UPDATED ****
             **** ENERGY FILE WAS UPDATED (rf_mecn_opt_TPS_C6_D_B.en.tmp) ****
----------------------
UHF SPIN CONTAMINATION
----------------------

Warning: in a DFT calculation there is little theoretical justification to 
         calculate <S**2> as in Hartree-Fock theory. We will do it anyways
         but you should keep in mind that the values have only limited relevance

Expectation value of <S**2>     :     0.753860
Ideal value S*(S+1) for S=0.5   :     0.750000
Deviation                       :     0.003860

             **** THE GBW FILE WAS UPDATED (rf_mecn_opt_TPS_C6_D_B.gbw) ****
             **** DENSITY rf_mecn_opt_TPS_C6_D_B.scfp WAS UPDATED ****
----------------
ORBITAL ENERGIES
----------------
                 SPIN UP ORBITALS
  NO   OCC          E(Eh)            E(eV) 
   0   1.0000     -24.663632      -671.1315 
   1   1.0000     -24.658036      -670.9793 
   2   1.0000     -24.657571      -670.9666 
   3   1.0000     -24.655798      -670.9184 
   4   1.0000     -24.654723      -670.8891 
   5   1.0000     -24.653836      -670.8650 
   6   1.0000     -24.653323      -670.8510 
   7   1.0000     -24.650063      -670.7623 
   8   1.0000     -24.649231      -670.7397 
   9   1.0000     -24.647722      -670.6986 
  10   1.0000     -24.640827      -670.5110 
  11   1.0000     -24.636739      -670.3997 
  12   1.0000     -24.619887      -669.9412 
  13   1.0000     -24.617405      -669.8736 
  14   1.0000     -19.012753      -517.3633 
  15   1.0000     -19.010900      -517.3129 
  16   1.0000     -10.390511      -282.7402 
  17   1.0000     -10.340095      -281.3683 
  18   1.0000     -10.337514      -281.2981 
  19   1.0000     -10.330831      -281.1162 
  20   1.0000     -10.320582      -280.8373 
  21   1.0000     -10.296991      -280.1954 
  22   1.0000     -10.278367      -279.6886 
  23   1.0000     -10.228595      -278.3342 
  24   1.0000      -1.316409       -35.8213 
  25   1.0000      -1.287856       -35.0443 
  26   1.0000      -1.277225       -34.7550 
  27   1.0000      -1.267485       -34.4900 
  28   1.0000      -1.258845       -34.2549 
  29   1.0000      -1.250572       -34.0298 
  30   1.0000      -1.230854       -33.4932 
  31   1.0000      -1.227946       -33.4141 
  32   1.0000      -1.227220       -33.3943 
  33   1.0000      -1.222554       -33.2674 
  34   1.0000      -1.218455       -33.1559 
  35   1.0000      -1.213030       -33.0082 
  36   1.0000      -1.203156       -32.7395 
  37   1.0000      -1.175972       -31.9998 
  38   1.0000      -0.935460       -25.4552 
  39   1.0000      -0.877405       -23.8754 
  40   1.0000      -0.819457       -22.2986 
  41   1.0000      -0.797444       -21.6996 
  42   1.0000      -0.766267       -20.8512 
  43   1.0000      -0.729258       -19.8441 
  44   1.0000      -0.684402       -18.6235 
  45   1.0000      -0.654345       -17.8056 
  46   1.0000      -0.639399       -17.3989 
  47   1.0000      -0.611557       -16.6413 
  48   1.0000      -0.604680       -16.4542 
  49   1.0000      -0.603533       -16.4230 
  50   1.0000      -0.595545       -16.2056 
  51   1.0000      -0.590366       -16.0647 
  52   1.0000      -0.588675       -16.0187 
  53   1.0000      -0.574462       -15.6319 
  54   1.0000      -0.567228       -15.4351 
  55   1.0000      -0.564130       -15.3507 
  56   1.0000      -0.556238       -15.1360 
  57   1.0000      -0.550455       -14.9786 
  58   1.0000      -0.544093       -14.8055 
  59   1.0000      -0.538130       -14.6433 
  60   1.0000      -0.522681       -14.2229 
  61   1.0000      -0.497246       -13.5308 
  62   1.0000      -0.478776       -13.0282 
  63   1.0000      -0.474390       -12.9088 
  64   1.0000      -0.469061       -12.7638 
  65   1.0000      -0.467006       -12.7079 
  66   1.0000      -0.466379       -12.6908 
  67   1.0000      -0.454038       -12.3550 
  68   1.0000      -0.451924       -12.2975 
  69   1.0000      -0.449513       -12.2319 
  70   1.0000      -0.448423       -12.2022 
  71   1.0000      -0.441360       -12.0100 
  72   1.0000      -0.433851       -11.8057 
  73   1.0000      -0.433180       -11.7874 
  74   1.0000      -0.431758       -11.7487 
  75   1.0000      -0.430020       -11.7014 
  76   1.0000      -0.425831       -11.5874 
  77   1.0000      -0.424641       -11.5551 
  78   1.0000      -0.417322       -11.3559 
  79   1.0000      -0.414034       -11.2664 
  80   1.0000      -0.410601       -11.1730 
  81   1.0000      -0.408102       -11.1050 
  82   1.0000      -0.404434       -11.0052 
  83   1.0000      -0.402288       -10.9468 
  84   1.0000      -0.398205       -10.8357 
  85   1.0000      -0.387006       -10.5310 
  86   1.0000      -0.385699       -10.4954 
  87   1.0000      -0.371456       -10.1078 
  88   1.0000      -0.364179        -9.9098 
  89   1.0000      -0.347661        -9.4603 
  90   1.0000      -0.327581        -8.9139 
  91   1.0000      -0.318607        -8.6697 
  92   1.0000      -0.285748        -7.7756 
  93   1.0000      -0.231064        -6.2876 
  94   1.0000      -0.223635        -6.0854 
  95   1.0000      -0.220962        -6.0127 
  96   0.0000      -0.031319        -0.8522 
  97   0.0000      -0.016406        -0.4464 
  98   0.0000       0.017752         0.4831 
  99   0.0000       0.031088         0.8459 
 100   0.0000       0.052656         1.4328 
 101   0.0000       0.074140         2.0174 
 102   0.0000       0.085421         2.3244 
 103   0.0000       0.097684         2.6581 
 104   0.0000       0.104981         2.8567 
 105   0.0000       0.118569         3.2264 
 106   0.0000       0.126192         3.4339 
 107   0.0000       0.132432         3.6037 
 108   0.0000       0.142748         3.8844 
 109   0.0000       0.147267         4.0074 
 110   0.0000       0.162573         4.4238 
 111   0.0000       0.167609         4.5609 
 112   0.0000       0.184506         5.0207 
 113   0.0000       0.193129         5.2553 
 114   0.0000       0.195850         5.3294 
 115   0.0000       0.198824         5.4103 
 116   0.0000       0.203982         5.5506 
 117   0.0000       0.210448         5.7266 
 118   0.0000       0.215388         5.8610 
 119   0.0000       0.219330         5.9683 
 120   0.0000       0.222862         6.0644 
 121   0.0000       0.225145         6.1265 
 122   0.0000       0.230545         6.2734 
 123   0.0000       0.241293         6.5659 
 124   0.0000       0.244083         6.6418 
 125   0.0000       0.246777         6.7151 
 126   0.0000       0.251983         6.8568 
 127   0.0000       0.253521         6.8987 
 128   0.0000       0.268549         7.3076 
 129   0.0000       0.274247         7.4626 
 130   0.0000       0.280445         7.6313 
 131   0.0000       0.288810         7.8589 
 132   0.0000       0.290932         7.9167 
 133   0.0000       0.297543         8.0965 
 134   0.0000       0.308683         8.3997 
 135   0.0000       0.310140         8.4393 
 136   0.0000       0.317854         8.6492 
 137   0.0000       0.332044         9.0354 
 138   0.0000       0.338268         9.2047 
 139   0.0000       0.342477         9.3193 
 140   0.0000       0.348724         9.4893 
 141   0.0000       0.354547         9.6477 
 142   0.0000       0.377401        10.2696 
 143   0.0000       0.387700        10.5498 
 144   0.0000       0.398981        10.8568 
 145   0.0000       0.409369        11.1395 
 146   0.0000       0.418582        11.3902 
 147   0.0000       0.425348        11.5743 
 148   0.0000       0.434465        11.8224 
 149   0.0000       0.439393        11.9565 
 150   0.0000       0.445137        12.1128 
 151   0.0000       0.458181        12.4678 
 152   0.0000       0.464724        12.6458 
 153   0.0000       0.470600        12.8057 
 154   0.0000       0.473235        12.8774 
 155   0.0000       0.480367        13.0714 
 156   0.0000       0.488572        13.2947 
 157   0.0000       0.495488        13.4829 
 158   0.0000       0.505517        13.7558 
 159   0.0000       0.511911        13.9298 
 160   0.0000       0.522036        14.2053 
 161   0.0000       0.526456        14.3256 
 162   0.0000       0.532902        14.5010 
 163   0.0000       0.535808        14.5801 
 164   0.0000       0.549144        14.9430 
 165   0.0000       0.562227        15.2990 
 166   0.0000       0.571425        15.5493 
 167   0.0000       0.583280        15.8719 
 168   0.0000       0.587800        15.9948 
 169   0.0000       0.614068        16.7096 
 170   0.0000       0.626714        17.0538 
 171   0.0000       0.636315        17.3150 
 172   0.0000       0.640942        17.4409 
 173   0.0000       0.649031        17.6610 
 174   0.0000       0.664944        18.0940 
 175   0.0000       0.668315        18.1858 
 176   0.0000       0.675326        18.3766 
 177   0.0000       0.681842        18.5539 
 178   0.0000       0.688004        18.7215 
 179   0.0000       0.704619        19.1736 
 180   0.0000       0.710539        19.3347 
 181   0.0000       0.714979        19.4556 
 182   0.0000       0.723508        19.6877 
 183   0.0000       0.725204        19.7338 
 184   0.0000       0.731926        19.9167 
 185   0.0000       0.739288        20.1170 
 186   0.0000       0.745065        20.2743 
 187   0.0000       0.754557        20.5325 
 188   0.0000       0.763671        20.7806 
 189   0.0000       0.767355        20.8808 
 190   0.0000       0.770593        20.9689 
 191   0.0000       0.780365        21.2348 
 192   0.0000       0.793863        21.6021 
 193   0.0000       0.798083        21.7169 
 194   0.0000       0.806962        21.9585 
 195   0.0000       0.809696        22.0330 
 196   0.0000       0.816775        22.2256 
 197   0.0000       0.821038        22.3416 
 198   0.0000       0.835896        22.7459 
 199   0.0000       0.844333        22.9755 
 200   0.0000       0.848550        23.0902 
 201   0.0000       0.862515        23.4702 
 202   0.0000       0.868893        23.6438 
 203   0.0000       0.877432        23.8761 
 204   0.0000       0.887565        24.1519 
 205   0.0000       0.900890        24.5145 
 206   0.0000       0.910465        24.7750 
 207   0.0000       0.913721        24.8636 
 208   0.0000       0.917110        24.9558 
 209   0.0000       0.922647        25.1065 
 210   0.0000       0.938612        25.5409 
 211   0.0000       0.942398        25.6440 
 212   0.0000       0.957315        26.0499 
 213   0.0000       0.962899        26.2018 
 214   0.0000       0.975313        26.5396 
 215   0.0000       0.984920        26.8010 
 216   0.0000       0.997858        27.1531 
 217   0.0000       1.001783        27.2599 
 218   0.0000       1.010783        27.5048 
 219   0.0000       1.014380        27.6027 
 220   0.0000       1.031975        28.0815 
 221   0.0000       1.046163        28.4675 
 222   0.0000       1.065240        28.9867 
 223   0.0000       1.071999        29.1706 
 224   0.0000       1.081090        29.4180 
 225   0.0000       1.087671        29.5970 
 226   0.0000       1.093039        29.7431 
 227   0.0000       1.100491        29.9459 
 228   0.0000       1.115757        30.3613 
 229   0.0000       1.122056        30.5327 
 230   0.0000       1.130934        30.7743 
 231   0.0000       1.135148        30.8890 
 232   0.0000       1.146799        31.2060 
 233   0.0000       1.154320        31.4106 
 234   0.0000       1.166372        31.7386 
 235   0.0000       1.173114        31.9220 
 236   0.0000       1.183029        32.1919 
 237   0.0000       1.191798        32.4305 
 238   0.0000       1.204045        32.7637 
 239   0.0000       1.210799        32.9475 
 240   0.0000       1.217891        33.1405 
 241   0.0000       1.239020        33.7154 
 242   0.0000       1.243292        33.8317 
 243   0.0000       1.257881        34.2287 
 244   0.0000       1.270317        34.5671 
 245   0.0000       1.278002        34.7762 
 246   0.0000       1.285448        34.9788 
 247   0.0000       1.292221        35.1631 
 248   0.0000       1.307643        35.5828 
 249   0.0000       1.324794        36.0495 
 250   0.0000       1.338618        36.4257 
 251   0.0000       1.358569        36.9685 
 252   0.0000       1.379409        37.5356 
 253   0.0000       1.395983        37.9866 
 254   0.0000       1.405449        38.2442 
 255   0.0000       1.445289        39.3283 
 256   0.0000       1.457804        39.6689 
 257   0.0000       1.466904        39.9165 
 258   0.0000       1.484012        40.3820 
 259   0.0000       1.502404        40.8825 
 260   0.0000       1.530757        41.6540 
 261   0.0000       1.556579        42.3567 
 262   0.0000       1.559983        42.4493 
 263   0.0000       1.583696        43.0946 
 264   0.0000       1.601844        43.5884 
 265   0.0000       1.623230        44.1703 
 266   0.0000       1.636312        44.5263 
 267   0.0000       1.661226        45.2043 
 268   0.0000       1.677533        45.6480 
 269   0.0000       1.695175        46.1280 
 270   0.0000       1.699229        46.2384 
 271   0.0000       1.725377        46.9499 
 272   0.0000       1.745498        47.4974 
 273   0.0000       1.759552        47.8798 
 274   0.0000       1.768586        48.1257 
 275   0.0000       1.786166        48.6041 
 276   0.0000       1.798510        48.9400 
 277   0.0000       1.808492        49.2116 
 278   0.0000       1.810835        49.2753 
 279   0.0000       1.830044        49.7980 
 280   0.0000       1.847496        50.2729 
 281   0.0000       1.848719        50.3062 
 282   0.0000       1.872613        50.9564 
 283   0.0000       1.886640        51.3381 
 284   0.0000       1.891835        51.4794 
 285   0.0000       1.894794        51.5600 
 286   0.0000       1.899928        51.6997 
 287   0.0000       1.906798        51.8866 
 288   0.0000       1.914773        52.1036 
 289   0.0000       1.919877        52.2425 
 290   0.0000       1.927771        52.4573 
 291   0.0000       1.937242        52.7150 
 292   0.0000       1.946007        52.9536 
 293   0.0000       1.952598        53.1329 
 294   0.0000       1.959330        53.3161 
 295   0.0000       1.974955        53.7413 
 296   0.0000       2.001857        54.4733 
 297   0.0000       2.004655        54.5494 
 298   0.0000       2.023369        55.0587 
 299   0.0000       2.034866        55.3715 
 300   0.0000       2.042364        55.5756 
 301   0.0000       2.047772        55.7227 
 302   0.0000       2.055276        55.9269 
 303   0.0000       2.062264        56.1170 
 304   0.0000       2.064083        56.1666 
 305   0.0000       2.068423        56.2846 
 306   0.0000       2.071778        56.3759 
 307   0.0000       2.081320        56.6356 
 308   0.0000       2.087077        56.7922 
 309   0.0000       2.097459        57.0747 
 310   0.0000       2.106285        57.3149 
 311   0.0000       2.109991        57.4158 
 312   0.0000       2.115582        57.5679 
 313   0.0000       2.124792        57.8185 
 314   0.0000       2.134902        58.0936 
 315   0.0000       2.144514        58.3552 
 316   0.0000       2.148986        58.4769 
 317   0.0000       2.163052        58.8596 
 318   0.0000       2.168678        59.0127 
 319   0.0000       2.176896        59.2364 
 320   0.0000       2.190094        59.5955 
 321   0.0000       2.221433        60.4483 
 322   0.0000       2.232047        60.7371 
 323   0.0000       2.241134        60.9844 
 324   0.0000       2.253146        61.3112 
 325   0.0000       2.270353        61.7794 
 326   0.0000       2.275449        61.9181 
 327   0.0000       2.284687        62.1695 
 328   0.0000       2.304676        62.7134 
 329   0.0000       2.324781        63.2605 
 330   0.0000       2.330854        63.4258 
 331   0.0000       2.349043        63.9207 
 332   0.0000       2.360021        64.2194 
 333   0.0000       2.368465        64.4492 
 334   0.0000       2.378972        64.7351 
 335   0.0000       2.401358        65.3443 
 336   0.0000       2.403820        65.4113 
 337   0.0000       2.415264        65.7227 
 338   0.0000       2.425745        66.0079 
 339   0.0000       2.433224        66.2114 
 340   0.0000       2.444225        66.5107 
 341   0.0000       2.452889        66.7465 
 342   0.0000       2.455686        66.8226 
 343   0.0000       2.462350        67.0040 
 344   0.0000       2.466798        67.1250 
 345   0.0000       2.471161        67.2437 
 346   0.0000       2.477897        67.4270 
 347   0.0000       2.485050        67.6216 
 348   0.0000       2.506283        68.1994 
 349   0.0000       2.519759        68.5661 
 350   0.0000       2.522271        68.6345 
 351   0.0000       2.541314        69.1527 
 352   0.0000       2.550731        69.4089 
 353   0.0000       2.564754        69.7905 
 354   0.0000       2.580452        70.2177 
 355   0.0000       2.595299        70.6217 
 356   0.0000       2.623159        71.3798 
 357   0.0000       2.635627        71.7191 
 358   0.0000       2.635839        71.7248 
 359   0.0000       2.653225        72.1979 
 360   0.0000       2.664312        72.4996 
 361   0.0000       2.688189        73.1493 
 362   0.0000       2.712176        73.8021 
 363   0.0000       2.749541        74.8188 
 364   0.0000       2.759900        75.1007 
 365   0.0000       2.777026        75.5667 
 366   0.0000       2.808726        76.4293 
 367   0.0000       2.825193        76.8774 
 368   0.0000       2.830381        77.0186 
 369   0.0000       2.855320        77.6972 
 370   0.0000       2.871395        78.1346 
 371   0.0000       2.883504        78.4641 
 372   0.0000       2.899550        78.9008 
 373   0.0000       2.913335        79.2759 
 374   0.0000       2.917000        79.3756 
 375   0.0000       2.922077        79.5138 
 376   0.0000       2.935516        79.8795 
 377   0.0000       2.942650        80.0736 
 378   0.0000       2.957146        80.4680 
 379   0.0000       2.960218        80.5516 
 380   0.0000       2.965905        80.7064 
 381   0.0000       2.974744        80.9469 
 382   0.0000       2.986334        81.2623 
 383   0.0000       3.000126        81.6376 
 384   0.0000       3.005558        81.7854 
 385   0.0000       3.010434        81.9181 
 386   0.0000       3.018899        82.1484 
 387   0.0000       3.028665        82.4142 
 388   0.0000       3.036101        82.6165 
 389   0.0000       3.045558        82.8739 
 390   0.0000       3.058652        83.2302 
 391   0.0000       3.063506        83.3622 
 392   0.0000       3.070389        83.5495 
 393   0.0000       3.075160        83.6794 
 394   0.0000       3.079321        83.7926 
 395   0.0000       3.090090        84.0856 
 396   0.0000       3.096175        84.2512 
 397   0.0000       3.108034        84.5739 
 398   0.0000       3.114433        84.7480 
 399   0.0000       3.119148        84.8763 
 400   0.0000       3.125107        85.0385 
 401   0.0000       3.137461        85.3747 
 402   0.0000       3.145136        85.5835 
 403   0.0000       3.151780        85.7643 
 404   0.0000       3.157580        85.9221 
 405   0.0000       3.161176        86.0200 
 406   0.0000       3.171679        86.3058 
 407   0.0000       3.173163        86.3461 
 408   0.0000       3.183455        86.6262 
 409   0.0000       3.188794        86.7715 
 410   0.0000       3.200423        87.0879 
 411   0.0000       3.208270        87.3015 
 412   0.0000       3.222434        87.6869 
 413   0.0000       3.226365        87.7938 
 414   0.0000       3.233929        87.9997 
 415   0.0000       3.235301        88.0370 
 416   0.0000       3.252602        88.5078 
 417   0.0000       3.255241        88.5796 
 418   0.0000       3.262796        88.7852 
 419   0.0000       3.279951        89.2520 
 420   0.0000       3.281795        89.3022 
 421   0.0000       3.294304        89.6426 
 422   0.0000       3.304781        89.9277 
 423   0.0000       3.307261        89.9951 
 424   0.0000       3.311789        90.1184 
 425   0.0000       3.323277        90.4310 
 426   0.0000       3.339214        90.8646 
 427   0.0000       3.346426        91.0609 
 428   0.0000       3.357738        91.3687 
 429   0.0000       3.370575        91.7180 
 430   0.0000       3.387970        92.1913 
 431   0.0000       3.395515        92.3967 
 432   0.0000       3.415005        92.9270 
 433   0.0000       3.428489        93.2939 
 434   0.0000       3.441610        93.6510 
 435   0.0000       3.464103        94.2630 
 436   0.0000       3.477394        94.6247 
 437   0.0000       3.497235        95.1646 
 438   0.0000       3.506974        95.4296 
 439   0.0000       3.520215        95.7899 
 440   0.0000       3.541051        96.3569 
 441   0.0000       3.562509        96.9408 
 442   0.0000       3.588920        97.6595 
 443   0.0000       3.596150        97.8562 
 444   0.0000       3.611782        98.2816 
 445   0.0000       3.617757        98.4442 
 446   0.0000       3.630987        98.8042 
 447   0.0000       3.650609        99.3381 
 448   0.0000       3.666726        99.7767 
 449   0.0000       3.702674       100.7549 
 450   0.0000       3.712888       101.0328 
 451   0.0000       3.725650       101.3801 
 452   0.0000       3.734780       101.6285 
 453   0.0000       3.743903       101.8768 
 454   0.0000       3.764724       102.4434 
 455   0.0000       3.775076       102.7250 
 456   0.0000       3.785409       103.0062 
 457   0.0000       3.812136       103.7335 
 458   0.0000       3.817059       103.8675 
 459   0.0000       3.832176       104.2788 
 460   0.0000       3.839324       104.4733 
 461   0.0000       3.849593       104.7528 
 462   0.0000       3.859766       105.0296 
 463   0.0000       3.872645       105.3800 
 464   0.0000       3.888446       105.8100 
 465   0.0000       3.893186       105.9390 
 466   0.0000       3.904292       106.2412 
 467   0.0000       3.908837       106.3648 
 468   0.0000       3.918461       106.6267 
 469   0.0000       3.930318       106.9494 
 470   0.0000       3.944694       107.3406 
 471   0.0000       3.951625       107.5292 
 472   0.0000       3.975990       108.1922 
 473   0.0000       3.981321       108.3373 
 474   0.0000       3.996010       108.7370 
 475   0.0000       4.002383       108.9104 
 476   0.0000       4.008553       109.0783 
 477   0.0000       4.025406       109.5369 
 478   0.0000       4.030747       109.6822 
 479   0.0000       4.034216       109.7766 
 480   0.0000       4.045328       110.0790 
 481   0.0000       4.061651       110.5231 
 482   0.0000       4.066814       110.6636 
 483   0.0000       4.073776       110.8531 
 484   0.0000       4.094682       111.4220 
 485   0.0000       4.104517       111.6896 
 486   0.0000       4.113512       111.9343 
 487   0.0000       4.119857       112.1070 
 488   0.0000       4.128238       112.3351 
 489   0.0000       4.135630       112.5362 
 490   0.0000       4.150007       112.9274 
 491   0.0000       4.157842       113.1406 
 492   0.0000       4.163750       113.3014 
 493   0.0000       4.173254       113.5600 
 494   0.0000       4.186987       113.9337 
 495   0.0000       4.199723       114.2803 
 496   0.0000       4.217828       114.7729 
 497   0.0000       4.235186       115.2453 
 498   0.0000       4.255993       115.8114 
 499   0.0000       4.264664       116.0474 
 500   0.0000       4.303624       117.1076 
 501   0.0000       4.315686       117.4358 
 502   0.0000       4.337623       118.0327 
 503   0.0000       4.363117       118.7265 
 504   0.0000       4.421086       120.3039 
 505   0.0000       4.572887       124.4346 
 506   0.0000       4.601169       125.2042 
 507   0.0000       4.631808       126.0379 
 508   0.0000       4.681115       127.3796 
 509   0.0000       4.759061       129.5006 
 510   0.0000       4.774575       129.9228 
 511   0.0000       4.835118       131.5702 
 512   0.0000       4.942088       134.4810 
 513   0.0000       4.976476       135.4168 
 514   0.0000       5.016019       136.4928 
 515   0.0000       5.146297       140.0379 
 516   0.0000       5.184184       141.0688 
 517   0.0000       5.202255       141.5605 
 518   0.0000       5.234624       142.4414 
 519   0.0000       5.248668       142.8235 
 520   0.0000       5.251493       142.9004 
 521   0.0000       5.253072       142.9434 
 522   0.0000       5.265896       143.2923 
 523   0.0000       5.277969       143.6208 
 524   0.0000       5.302661       144.2927 
 525   0.0000       5.331190       145.0690 
 526   0.0000       5.333651       145.1360 
 527   0.0000       5.359562       145.8411 
 528   0.0000       5.370550       146.1401 
 529   0.0000       5.394180       146.7831 
 530   0.0000       5.454170       148.4155 
 531   0.0000       5.475370       148.9924 
 532   0.0000       5.511215       149.9678 
 533   0.0000       5.527788       150.4188 
 534   0.0000       5.557128       151.2171 
 535   0.0000       5.666088       154.1821 
 536   0.0000       5.743510       156.2888 
 537   0.0000       5.775576       157.1614 
 538   0.0000       5.878435       159.9603 
 539   0.0000       5.945522       161.7859 
 540   0.0000       6.193630       168.5372 
 541   0.0000       6.253251       170.1596 
 542   0.0000       6.354392       172.9118 
 543   0.0000       6.400063       174.1546 
 544   0.0000       6.431335       175.0055 
 545   0.0000       6.461908       175.8375 
 546   0.0000       6.755659       183.8308 
 547   0.0000       6.805407       185.1845 
 548   0.0000       6.811393       185.3474 
 549   0.0000       6.851440       186.4372 
 550   0.0000       6.856761       186.5820 
 551   0.0000       6.857830       186.6110 
 552   0.0000       6.858068       186.6175 
 553   0.0000       6.859093       186.6454 
 554   0.0000       6.861257       186.7043 
 555   0.0000       6.862318       186.7332 
 556   0.0000       6.863244       186.7584 
 557   0.0000       6.864325       186.7878 
 558   0.0000       6.865247       186.8129 
 559   0.0000       6.866289       186.8412 
 560   0.0000       6.867173       186.8653 
 561   0.0000       6.869042       186.9161 
 562   0.0000       6.871909       186.9941 
 563   0.0000       6.872559       187.0118 
 564   0.0000       6.873804       187.0457 
 565   0.0000       6.874555       187.0661 
 566   0.0000       6.876562       187.1208 
 567   0.0000       6.879260       187.1942 
 568   0.0000       6.880946       187.2401 
 569   0.0000       6.881216       187.2474 
 570   0.0000       6.883237       187.3024 
 571   0.0000       6.884973       187.3496 
 572   0.0000       6.885570       187.3659 
 573   0.0000       6.886820       187.3999 
 574   0.0000       6.888149       187.4361 
 575   0.0000       6.890412       187.4976 
 576   0.0000       6.892221       187.5469 
 577   0.0000       6.895482       187.6356 
 578   0.0000       6.896133       187.6533 
 579   0.0000       6.896738       187.6698 
 580   0.0000       6.901983       187.8125 
 581   0.0000       6.903023       187.8408 
 582   0.0000       6.905941       187.9202 
 583   0.0000       6.906484       187.9350 
 584   0.0000       6.911865       188.0814 
 585   0.0000       6.915194       188.1720 
 586   0.0000       6.917057       188.2227 
 587   0.0000       6.922048       188.3585 
 588   0.0000       6.925803       188.4607 
 589   0.0000       6.934238       188.6902 
 590   0.0000       6.942265       188.9086 
 591   0.0000       6.962735       189.4656 
 592   0.0000       6.964099       189.5028 
 593   0.0000       6.973655       189.7628 
 594   0.0000       6.990560       190.2228 
 595   0.0000       6.996864       190.3943 
[...]
      dxy     :    -0.000000
      f0      :    -0.000000  f :    -0.000000
      f+1     :    -0.000000
      f-1     :    -0.000000
      f+2     :    -0.000000
      f-2     :    -0.000000
      f+3     :    -0.000000
      f-3     :    -0.000000
  2 O s       :    -0.000000  s :    -0.000000
      pz      :    -0.000014  p :    -0.000003
      px      :     0.000012
      py      :    -0.000001
      dz2     :    -0.000000  d :    -0.000000
      dxz     :    -0.000000
      dyz     :    -0.000000
      dx2y2   :     0.000000
      dxy     :    -0.000000
      f0      :    -0.000000  f :    -0.000000
      f+1     :     0.000000
      f-1     :     0.000000
      f+2     :    -0.000000
      f-2     :    -0.000000
      f+3     :    -0.000000
      f-3     :     0.000000
  3 C s       :    -0.000007  s :    -0.000007
      pz      :     0.000004  p :    -0.000090
      px      :    -0.000081
      py      :    -0.000013
      dz2     :     0.000001  d :    -0.000020
      dxz     :    -0.000006
      dyz     :    -0.000002
      dx2y2   :    -0.000011
      dxy     :    -0.000002
      f0      :    -0.000000  f :    -0.000000
      f+1     :    -0.000000
      f-1     :     0.000000
      f+2     :     0.000000
      f-2     :    -0.000001
      f+3     :     0.000000
      f-3     :     0.000000
  4 C s       :    -0.000055  s :    -0.000055
      pz      :    -0.000027  p :    -0.000310
      px      :    -0.000261
      py      :    -0.000022
      dz2     :    -0.000002  d :    -0.000031
      dxz     :     0.000005
      dyz     :    -0.000005
      dx2y2   :     0.000004
      dxy     :    -0.000033
      f0      :    -0.000001  f :     0.000005
      f+1     :     0.000001
      f-1     :     0.000000
      f+2     :     0.000004
      f-2     :    -0.000001
      f+3     :     0.000003
      f-3     :    -0.000000
  5 C s       :     0.000047  s :     0.000047
      pz      :     0.000141  p :     0.000741
      px      :     0.000611
      py      :    -0.000011
      dz2     :    -0.000020  d :    -0.000621
      dxz     :    -0.000060
      dyz     :     0.000024
      dx2y2   :    -0.000533
      dxy     :    -0.000032
      f0      :     0.000094  f :     0.000101
      f+1     :    -0.000006
      f-1     :     0.000001
      f+2     :     0.000014
      f-2     :     0.000041
      f+3     :    -0.000040
      f-3     :    -0.000002
  6 C s       :    -0.002333  s :    -0.002333
      pz      :     0.014384  p :     0.003946
      px      :    -0.010292
      py      :    -0.000146
      dz2     :     0.001639  d :     0.047465
      dxz     :     0.018197
      dyz     :     0.013106
      dx2y2   :     0.005941
      dxy     :     0.008583
      f0      :     0.002710  f :     0.010519
      f+1     :     0.000720
      f-1     :     0.000994
      f+2     :     0.002337
      f-2     :     0.002193
      f+3     :     0.001087
      f-3     :     0.000479
  7 C s       :     0.030107  s :     0.030107
      pz      :     0.482865  p :     0.633585
      px      :     0.013361
      py      :     0.137359
      dz2     :     0.006955  d :     0.005854
      dxz     :     0.000472
      dyz     :     0.001098
      dx2y2   :    -0.001320
      dxy     :    -0.001351
      f0      :    -0.000387  f :     0.000475
      f+1     :    -0.000664
      f-1     :     0.001876
      f+2     :    -0.000217
      f-2     :    -0.000183
      f+3     :    -0.000058
      f-3     :     0.000109
  8 C s       :    -0.001372  s :    -0.001372
      pz      :     0.004719  p :    -0.006816
      px      :    -0.011229
      py      :    -0.000306
      dz2     :     0.000750  d :     0.061286
      dxz     :     0.044064
      dyz     :     0.001254
      dx2y2   :     0.005735
      dxy     :     0.009482
      f0      :     0.002822  f :     0.008358
      f+1     :     0.000563
      f-1     :     0.000054
      f+2     :     0.001141
      f-2     :     0.001961
      f+3     :     0.001121
      f-3     :     0.000696
  9 C s       :     0.003008  s :     0.003008
      pz      :     0.004907  p :     0.012258
      px      :     0.004751
      py      :     0.002601
      dz2     :     0.000480  d :     0.000991
      dxz     :    -0.000380
      dyz     :     0.000127
      dx2y2   :     0.000512
      dxy     :     0.000252
      f0      :     0.000119  f :     0.000149
      f+1     :    -0.000012
      f-1     :    -0.000003
      f+2     :    -0.000056
      f-2     :    -0.000010
      f+3     :     0.000058
      f-3     :     0.000054
 10 F s       :     0.000002  s :     0.000002
      pz      :     0.000004  p :     0.000021
      px      :     0.000011
      py      :     0.000006
      dz2     :     0.000000  d :     0.000000
      dxz     :     0.000000
      dyz     :     0.000000
      dx2y2   :     0.000000
      dxy     :    -0.000001
      f0      :     0.000000  f :    -0.000000
      f+1     :    -0.000000
      f-1     :    -0.000000
      f+2     :     0.000000
      f-2     :     0.000000
      f+3     :    -0.000000
      f-3     :    -0.000000
 11 F s       :     0.000000  s :     0.000000
      pz      :     0.000002  p :     0.000013
      px      :     0.000013
      py      :    -0.000002
      dz2     :    -0.000000  d :    -0.000001
      dxz     :    -0.000001
      dyz     :    -0.000000
      dx2y2   :     0.000000
      dxy     :    -0.000000
      f0      :    -0.000000  f :    -0.000000
      f+1     :    -0.000000
      f-1     :    -0.000000
      f+2     :    -0.000000
      f-2     :    -0.000000
      f+3     :     0.000000
      f-3     :     0.000000
 12 F s       :     0.000012  s :     0.000012
      pz      :     0.000048  p :     0.000106
      px      :     0.000034
      py      :     0.000025
      dz2     :     0.000000  d :     0.000000
      dxz     :     0.000002
      dyz     :     0.000000
      dx2y2   :    -0.000000
      dxy     :    -0.000002
      f0      :    -0.000000  f :    -0.000000
      f+1     :     0.000000
      f-1     :    -0.000000
      f+2     :     0.000000
      f-2     :    -0.000000
      f+3     :    -0.000000
      f-3     :    -0.000000
 13 F s       :    -0.000000  s :    -0.000000
      pz      :     0.000007  p :     0.000012
      px      :     0.000002
      py      :     0.000003
      dz2     :    -0.000001  d :    -0.000004
      dxz     :    -0.000004
      dyz     :     0.000000
      dx2y2   :     0.000000
      dxy     :     0.000000
      f0      :    -0.000000  f :    -0.000000
      f+1     :    -0.000000
      f-1     :    -0.000000
      f+2     :     0.000000
      f-2     :    -0.000000
      f+3     :     0.000000
      f-3     :     0.000000
 14 F s       :     0.000168  s :     0.000168
      pz      :    -0.000011  p :     0.001661
      px      :     0.001142
      py      :     0.000530
      dz2     :     0.000012  d :     0.000042
      dxz     :     0.000005
      dyz     :     0.000000
      dx2y2   :     0.000021
      dxy     :     0.000004
      f0      :     0.000000  f :     0.000001
      f+1     :     0.000000
      f-1     :     0.000000
      f+2     :    -0.000000
      f-2     :    -0.000000
      f+3     :    -0.000000
      f-3     :     0.000001
 15 F s       :     0.000027  s :     0.000027
      pz      :     0.000046  p :     0.001366
      px      :     0.000691
      py      :     0.000629
      dz2     :    -0.000000  d :     0.000025
      dxz     :     0.000018
      dyz     :     0.000004
      dx2y2   :    -0.000000
      dxy     :     0.000004
      f0      :     0.000000  f :     0.000001
      f+1     :     0.000000
      f-1     :     0.000000
      f+2     :     0.000000
      f-2     :     0.000000
      f+3     :     0.000000
      f-3     :     0.000000
 16 F s       :     0.002128  s :     0.002128
      pz      :     0.000608  p :     0.033360
      px      :     0.011917
      py      :     0.020836
      dz2     :     0.000082  d :     0.000268
      dxz     :    -0.000028
      dyz     :     0.000039
      dx2y2   :     0.000018
      dxy     :     0.000157
      f0      :     0.000004  f :     0.000008
      f+1     :    -0.000000
      f-1     :    -0.000003
      f+2     :     0.000001
      f-2     :     0.000003
      f+3     :     0.000003
      f-3     :     0.000000
 17 F s       :     0.000598  s :     0.000598
      pz      :    -0.000275  p :     0.012602
      px      :     0.001193
      py      :     0.011683
      dz2     :     0.000012  d :    -0.000067
      dxz     :    -0.000129
      dyz     :     0.000020
      dx2y2   :     0.000015
      dxy     :     0.000016
      f0      :    -0.000001  f :    -0.000008
      f+1     :    -0.000005
      f-1     :    -0.000002
      f+2     :     0.000003
      f-2     :    -0.000004
      f+3     :    -0.000000
      f-3     :     0.000000
 18 F s       :     0.002370  s :     0.002370
      pz      :     0.080309  p :     0.095340
      px      :     0.000460
      py      :     0.014571
      dz2     :     0.005340  d :     0.010175
      dxz     :     0.000058
      dyz     :     0.002829
      dx2y2   :     0.001819
      dxy     :     0.000129
      f0      :     0.000008  f :     0.000532
      f+1     :     0.000001
      f-1     :     0.000417
      f+2     :     0.000022
      f-2     :     0.000006
      f+3     :     0.000007
      f-3     :     0.000071
 19 F s       :     0.000257  s :     0.000257
      pz      :     0.003541  p :     0.002306
      px      :    -0.001874
      py      :     0.000639
      dz2     :    -0.000012  d :    -0.000170
      dxz     :     0.000026
      dyz     :     0.000013
      dx2y2   :    -0.000021
      dxy     :    -0.000176
      f0      :     0.000000  f :    -0.000010
      f+1     :    -0.000000
      f-1     :    -0.000002
      f+2     :    -0.000000
      f-2     :     0.000001
      f+3     :    -0.000008
      f-3     :    -0.000001
 20 F s       :     0.001477  s :     0.001477
      pz      :     0.006418  p :     0.019890
      px      :     0.013773
      py      :    -0.000301
      dz2     :    -0.000066  d :     0.000070
      dxz     :     0.000041
      dyz     :    -0.000014
      dx2y2   :     0.000118
      dxy     :    -0.000008
      f0      :    -0.000005  f :     0.000001
      f+1     :     0.000001
      f-1     :     0.000000
      f+2     :     0.000003
      f-2     :    -0.000001
      f+3     :     0.000002
      f-3     :    -0.000000
 21 F s       :     0.000085  s :     0.000085
      pz      :     0.000832  p :     0.001010
      px      :    -0.000138
      py      :     0.000316
      dz2     :     0.000015  d :     0.000122
      dxz     :    -0.000001
      dyz     :     0.000049
      dx2y2   :     0.000039
      dxy     :     0.000020
      f0      :     0.000001  f :     0.000008
      f+1     :    -0.000000
      f-1     :     0.000002
      f+2     :     0.000001
      f-2     :     0.000000
      f+3     :     0.000002
      f-3     :     0.000001
 22 F s       :     0.000195  s :     0.000195
      pz      :     0.002154  p :     0.004815
      px      :     0.002431
      py      :     0.000230
      dz2     :     0.000006  d :     0.000197
      dxz     :     0.000084
      dyz     :     0.000015
      dx2y2   :     0.000088
      dxy     :     0.000004
      f0      :     0.000002  f :     0.000009
      f+1     :     0.000000
      f-1     :     0.000000
      f+2     :     0.000002
      f-2     :     0.000002
      f+3     :     0.000004
      f-3     :    -0.000000
 23 F s       :     0.000153  s :     0.000153
      pz      :    -0.000426  p :     0.001482
      px      :     0.001350
      py      :     0.000558
      dz2     :     0.000051  d :     0.000138
      dxz     :     0.000009
      dyz     :     0.000032
      dx2y2   :     0.000044
      dxy     :     0.000002
      f0      :     0.000003  f :     0.000007
      f+1     :     0.000000
      f-1     :     0.000001
      f+2     :     0.000002
      f-2     :     0.000000
      f+3     :     0.000000
      f-3     :     0.000000


                      *****************************
                      * MAYER POPULATION ANALYSIS *
                      *****************************

  NA   - Mulliken gross atomic population
  ZA   - Total nuclear charge
  QA   - Mulliken gross atomic charge
  VA   - Mayer's total valence
  BVA  - Mayer's bonded valence
  FA   - Mayer's free valence

  ATOM       NA         ZA         QA         VA         BVA        FA
  0 C      5.8344     6.0000     0.1656     4.6430     4.6430     0.0000
  1 O      8.4781     8.0000    -0.4781     1.9803     1.9803     0.0000
  2 O      8.4925     8.0000    -0.4925     1.9635     1.9635     0.0000
  3 C      5.6999     6.0000     0.3001     3.9456     3.9456     0.0000
  4 C      5.7150     6.0000     0.2850     4.1502     4.1502     0.0000
  5 C      5.7046     6.0000     0.2954     4.2150     4.2149     0.0001
  6 C      5.6691     6.0000     0.3309     4.2648     4.2618     0.0030
  7 C      5.8839     6.0000     0.1161     3.9050     3.3156     0.5894
  8 C      5.6982     6.0000     0.3018     4.3450     4.3419     0.0031
  9 C      5.5882     6.0000     0.4118     4.5286     4.5282     0.0004
 10 F      9.1953     9.0000    -0.1953     1.1011     1.1011     0.0000
 11 F      9.2024     9.0000    -0.2024     1.0821     1.0821    -0.0000
 12 F      9.1649     9.0000    -0.1649     1.1526     1.1526     0.0000
 13 F      9.1747     9.0000    -0.1747     1.1399     1.1399     0.0000
 14 F      9.1606     9.0000    -0.1606     1.1587     1.1587     0.0000
 15 F      9.1595     9.0000    -0.1595     1.1632     1.1632     0.0000
 16 F      9.1644     9.0000    -0.1644     1.1446     1.1434     0.0012
 17 F      9.1609     9.0000    -0.1609     1.1532     1.1530     0.0002
 18 F      9.1290     9.0000    -0.1290     1.2208     1.2093     0.0115
 19 F      9.1515     9.0000    -0.1515     1.1671     1.1670     0.0000
 20 F      9.1551     9.0000    -0.1551     1.1592     1.1586     0.0005
 21 F      9.1416     9.0000    -0.1416     1.1805     1.1805     0.0000
 22 F      9.1354     9.0000    -0.1354     1.1894     1.1894     0.0000
 23 F      9.1408     9.0000    -0.1408     1.1830     1.1830     0.0000

  Mayer bond orders larger than 0.100000
B(  0-C ,  1-O ) :   1.8748 B(  0-C ,  2-O ) :   1.8464 B(  0-C ,  3-C ) :   0.8536 
B(  3-C ,  4-C ) :   0.9365 B(  3-C , 10-F ) :   1.0525 B(  3-C , 11-F ) :   1.0379 
B(  4-C ,  5-C ) :   0.9399 B(  4-C , 12-F ) :   1.0829 B(  4-C , 13-F ) :   1.0694 
B(  5-C ,  6-C ) :   0.9506 B(  5-C , 14-F ) :   1.0818 B(  5-C , 15-F ) :   1.0824 
B(  6-C ,  7-C ) :   1.0495 B(  6-C , 16-F ) :   1.0681 B(  6-C , 17-F ) :   1.0705 
B(  7-C ,  8-C ) :   1.0413 B(  7-C , 18-F ) :   1.1267 B(  8-C ,  9-C ) :   0.9701 
B(  8-C , 19-F ) :   1.0984 B(  8-C , 20-F ) :   1.1032 B(  9-C , 21-F ) :   1.1542 
B(  9-C , 22-F ) :   1.1612 B(  9-C , 23-F ) :   1.1620 

-------
TIMINGS
-------

Total SCF time: 0 days 0 hours 0 min 56 sec 

Total time                  ....      56.273 sec
Sum of individual times     ....      53.846 sec  ( 95.7%)

Fock matrix formation       ....      46.817 sec  ( 83.2%)
  Split-RI-J                ....       2.880 sec  (  6.2% of F)
  Chain of spheres X        ....      32.849 sec  ( 70.2% of F)
  XC integration            ....       7.380 sec  ( 15.8% of F)
    Basis function eval.    ....       0.467 sec  (  6.3% of XC)
    Density eval.           ....       2.783 sec  ( 37.7% of XC)
    XC-Functional eval.     ....       0.159 sec  (  2.2% of XC)
    XC-Potential eval.      ....       2.038 sec  ( 27.6% of XC)
Diagonalization             ....       2.399 sec  (  4.3%)
Density matrix formation    ....       0.110 sec  (  0.2%)
Population analysis         ....       0.312 sec  (  0.6%)
Initial guess               ....       0.558 sec  (  1.0%)
Orbital Transformation      ....       0.000 sec  (  0.0%)
Orbital Orthonormalization  ....       0.480 sec  (  0.9%)
DIIS solution               ....       0.886 sec  (  1.6%)
Grid generation             ....       2.764 sec  (  4.9%)

Maximum memory used throughout the entire SCF-calculation: 160.3 MB


-------------------------------------------------------------------------------
                          DFT DISPERSION CORRECTION                            
                                                                               
                              DFTD3 V3.1  Rev 1                                
                          USING Becke-Johnson damping                          
-------------------------------------------------------------------------------
The TPSSH functional is recognized
Active option DFTDOPT                   ...         4   

molecular C6(AA) [au] = 6300.360519 


            DFT-D V3
 parameters
 s6 scaling factor         :     1.0000 
 a1 scaling factor         :     0.4529 
 s8 scaling factor         :     2.2382 
 a2 scaling factor         :     4.6550 
 ad hoc parameters k1-k3   :    16.0000     1.3333    -4.0000 

 Edisp/kcal,au: -18.138161291278  -0.028904996827 
 E6   /kcal   :  -8.767367110 
 E8   /kcal   :  -9.370794181 
 % E8         :  51.663418528 

-------------------------   ----------------
Dispersion correction           -0.028904997
-------------------------   ----------------


-------------------------   --------------------
FINAL SINGLE POINT ENERGY     -1853.954174471193
-------------------------   --------------------

                                *** OPTIMIZATION RUN DONE ***

                            ***************************************
                            *     ORCA property calculations      *
                            ***************************************

                                    ---------------------
                                    Active property flags
                                    ---------------------
   (+) Dipole Moment


------------------------------------------------------------------------------
                       ORCA ELECTRIC PROPERTIES CALCULATION
------------------------------------------------------------------------------

Dipole Moment Calculation                       ... on
Quadrupole Moment Calculation                   ... off
Polarizability Calculation                      ... off
GBWName                                         ... rf_mecn_opt_TPS_C6_D_B.gbw
Electron density                                ... rf_mecn_opt_TPS_C6_D_B.scfp
The origin for moment calculation is the CENTER OF MASS  = ( 0.058406,  0.042132  0.111697)

-------------
DIPOLE MOMENT
-------------
                                X             Y             Z
Electronic contribution:    -17.44398      -0.32933       3.18587
Nuclear contribution   :      8.97593       0.12066      -1.66772
                        -----------------------------------------
Total Dipole Moment    :     -8.46806      -0.20867       1.51816
                        -----------------------------------------
Magnitude (a.u.)       :      8.60560
Magnitude (Debye)      :     21.87370



--------------------
Rotational spectrum 
--------------------
 
Rotational constants in cm-1:     0.020419     0.003975     0.003955 
Rotational constants in MHz :   612.140474   119.170443   118.578836 

 Dipole components along the rotational axes: 
x,y,z [a.u.] :     8.489741    -0.267520     1.381695 
x,y,z [Debye]:    21.579206    -0.679981     3.511990 

 

Timings for individual modules:

Sum of individual times         ...     2887.022 sec (=  48.117 min)
GTO integral calculation        ...       28.899 sec (=   0.482 min)   1.0 %
SCF iterations                  ...     2303.283 sec (=  38.388 min)  79.8 %
SCF Gradient evaluation         ...      553.372 sec (=   9.223 min)  19.2 %
Geometry relaxation             ...        1.469 sec (=   0.024 min)   0.1 %
                             ****ORCA TERMINATED NORMALLY****
TOTAL RUN TIME: 0 days 0 hours 48 minutes 18 seconds 977 msec
