
                                 *****************
                                 * O   R   C   A *
                                 *****************

                                            #,                                       
                                            ###                                      
                                            ####                                     
                                            #####                                    
                                            ######                                   
                                           ########,                                 
                                     ,,################,,,,,                         
                               ,,#################################,,                 
                          ,,##########################################,,             
                       ,#########################################, ''#####,          
                    ,#############################################,,   '####,        
                  ,##################################################,,,,####,       
                ,###########''''           ''''###############################       
              ,#####''   ,,,,##########,,,,          '''####'''          '####       
            ,##' ,,,,###########################,,,                        '##       
           ' ,,###''''                  '''############,,,                           
         ,,##''                                '''############,,,,        ,,,,,,###''
      ,#''                                            '''#######################'''  
     '                                                          ''''####''''         
             ,#######,   #######,   ,#######,      ##                                
            ,#'     '#,  ##    ##  ,#'     '#,    #''#        ,####,   ,####,        
            ##       ##  ##   ,#'  ##            #'  '#       #'       #'  '#        
            ##       ##  #######   ##           ,######,      #####,   #    #        
            '#,     ,#'  ##    ##  '#,     ,#' ,#      #,     #,   #   #,  ,#        
             '#######'   ##     ##  '#######'  #'      '#     '####' # '####'        



                #########################################################
                #                        -***-                          #
                #          Department of theory and spectroscopy        #
                #                                                       #
                #                      Frank Neese                      #
                #                                                       #
                #     Directorship, Architecture, Infrastructure        #
                #                    SHARK, DRIVERS                     #
                #        Core code/Algorithms in most modules           #
                #                                                       #
                #        Max Planck Institute fuer Kohlenforschung      #
                #                Kaiser Wilhelm Platz 1                 #
                #                 D-45470 Muelheim/Ruhr                 #
                #                      Germany                          #
                #                                                       #
                #                  All rights reserved                  #
                #                        -***-                          #
                #########################################################


                         Program Version 6.0.1  -  RELEASE   -


 With contributions from (in alphabetic order):
[Max-Planck-Institut fuer Kohlenforschung]                               
  Daniel Aravena         : Magnetic Suceptibility                        
  Michael Atanasov       : Ab Initio Ligand Field Theory (pilot matlab implementation)
  Alexander A. Auer      : GIAO ZORA, VPT2 properties, NMR spectrum      
  Ute Becker             : All parallelization in ORCA, NUMFREQ, NUMCALC 
  Giovanni Bistoni       : ED, misc. LED, open-shell LED, HFLD           
  Martin Brehm           : Molecular dynamics                            
  Dmytro Bykov           : pre 5.0 version of the SCF Hessian            
  Marcos Casanova-Páez   : Triplet and SCS-CIS(D). UHF-(DLPNO)-IP/EA/STEOM-CCSD. UHF-CVS-IP/STEOM-CCSD   
  Vijay G. Chilkuri      : MRCI spin determinant printing, contributions to CSF-ICE 
  Pauline Colinet        : FMM embedding                                 
  Dipayan Datta          : RHF DLPNO-CCSD density                        
  Achintya Kumar Dutta   : EOM-CC, STEOM-CC                              
  Nicolas Foglia         : Exact transition moments, OPA infrastructure, MCD improvements    
  Dmitry Ganyushin       : Spin-Orbit,Spin-Spin,Magnetic field MRCI      
  Miquel Garcia-Rates    : C-PCM and meta-GGA Hessian, CCSD/C-PCM, Gaussian charge scheme 
  Tiago L. C. Gouveia    : GS-ROHF, GS-ROCIS                             
  Yang Guo               : DLPNO-NEVPT2, F12-NEVPT2, CIM, IAO-localization        
  Andreas Hansen         : Spin unrestricted coupled pair/coupled cluster methods 
  Ingolf Harden          : AUTO-CI MPn and infrastructure                
  Benjamin Helmich-Paris : MC-RPA, TRAH-(SCF,CASSCF), AVAS, COSX integrals, SCF dyn. polar. 
  Lee Huntington         : MR-EOM, pCC                                   
  Robert Izsak           : Overlap fitted RIJCOSX, COSX-SCS-MP3, EOM     
  Riya Kayal             : Wick's Theorem for AUTO-CI, AUTO-CI UHF-CCSDT 
  Emily Kempfer          : AUTO-CI, RHF CISDT and CCSDT                  
  Christian Kollmar      : KDIIS, OOCD, Brueckner-CCSD(T), CCSD density, CASPT2, CASPT2-K, improved NEVPT2 
  Axel Koslowski         : Symmetry handling                             
  Simone Kossmann        : meta-GGA functionals, TD-DFT gradient, OOMP2, (MP2 Hessian; deprecated post 5.0) 
  Lucas Lang             : DCDCAS                                        
  Marvin Lechner         : AUTO-CI (C++ implementation), FIC-MRCC        
  Spencer Leger          : CASSCF response                               
  Dagmar Lenk            : GEPOL surface, SMD, ORCA-2-JSON               
  Dimitrios Liakos       : Extrapolation schemes; Compound Job, initial MDCI parallelization 
  Dimitrios Manganas     : Further ROCIS development; embedding schemes. LFT, Crystal Embedding 
  Dimitrios Pantazis     : SARC Basis sets                               
  Anastasios Papadopoulos: AUTO-CI, single reference methods and gradients 
  Taras Petrenko         : pre 6.0 DFT Hessian and TD-DFT gradient, (ASA, deprecated), ECA, 1-Electron XAS/XES, NRVS 
  Peter Pinski           : DLPNO-MP2, DLPNO-MP2 Gradient                 
  Christoph Reimann      : Effective Core Potentials                     
  Marius Retegan         : Local ZFS, SOC                                
  Christoph Riplinger    : Optimizer, TS searches, QM/MM, DLPNO-CCSD(T), (RO)-DLPNO pert. Triples 
  Michael Roemelt        : Original ROCIS implementation                 
  Masaaki Saitow         : Open-shell DLPNO-CCSD energy and density      
  Barbara Sandhoefer     : DKH picture change effects                    
  Kantharuban Sivalingam : CASSCF convergence/infrastructure, NEVPT2 and variants, FIC-MRCI 
  Bernardo de Souza      : ESD, SOC TD-DFT                               
  Georgi L. Stoychev     : AutoAux, RI-MP2 NMR, DLPNO-MP2 response, X2C  
  Van Anh Tran           : RI-MP2 g-tensors                              
  Willem Van den Heuvel  : Paramagnetic NMR                              
  Zikuan Wang            : NOTCH, Electric field optimization            
  Frank Wennmohs         : Technical directorship and infrastructure     
  Hang Xu                : AUTO-CI-Response properties                   
                                                                         
[FACCTs GmbH]                                                            
  Markus Bursch, Miquel Garcia-Rates, Christoph Riplinger, Bernardo de Souza, Georgi L. Stoychev 
                                                                 
  APM, Basis sets (HGBS, AHGBS, def-TZVP (Ac-Lr), def2-XVPD (La-Lu)), CI-OPT, improved COSX, DLPNO-Multilevel,           
  DOCKER, DRACO, updates on ESD, GOAT, IRC, LR-CPCM, MBIS, meta-GGA TD-DFT gradient, ML-optimized integration grids, 
  MM, NACMEs, nearIR, NEB, NEB-TS, NL-DFT gradient (VV10), 2- and 3-layer-ONIOM, interface openCOSMO-RS, QMMM,   
  Crystal-QMMM, SF, symmetry and pop. for TD-DFT, r2SCAN hybrids, SOLVATOR                                   
                                                                         
[Other institutions]                                                     
  V. Asgeirsson          : NEB                                           
  Christoph Bannwarth    : sTDA-DFT, sTD-DFT, PBEh-3c, B97-3c, D3        
  Sebastian Ehlert       : rSCAN, r2SCAN, r2SCAN-3c, D4, dhf basis sets  
  Marvin Friede          : D4 for Fr, Ra, Ac-Lr                          
  Lars Goerigk           : TD-DFT with DH, B97 family of functionals     
  Stefan Grimme          : VdW corrections, initial TS optimization, DFT functionals, gCP, sTDA/sTD-DF 
  Waldemar Hujo          : DFT-NL                                        
  H. Jonsson             : NEB                                           
  Holger Kruse           : gCP                                           
  Marcel Mueller         : wB97X-3c, vDZP basis set                      
  Hagen Neugebauer       : wr2SCAN                                       
  Tobias Risthaus        : range-separated hybrid DFT                    
  Lukas Wittmann         : regularized MP2, r2SCAN double-hybrids, wr2SCAN        
                                                                         
We gratefully acknowledge several colleagues who have allowed us to      
interface, adapt or use parts of their codes:                            
  Ed Valeev, F. Pavosevic, A. Kumar             : LibInt (2-el integral package), F12 methods 
  Garnet Chan, S. Sharma, J. Yang, R. Olivares  : DMRG                   
  Ulf Ekstrom                                   : XCFun DFT Library      
  Mihaly Kallay                                 : mrcc  (arbitrary order and MRCC methods)
  Frank Weinhold                                : gennbo (NPA and NBO analysis)           
  Simon Mueller                                 : openCOSMO-RS                            
  Christopher J. Cramer and Donald G. Truhlar   : smd solvation model                     
  S Lehtola, MJT Oliveira, MAL Marques          : LibXC Library                           
  Liviu Ungur et al                             : ANISO software                          


 Your calculation uses the libint2 library for the computation of 2-el integrals
 For citations please refer to: http://libint.valeyev.net

 Your ORCA version has been built with support for libXC version: 6.2.2
 For citations please refer to: https://libxc.gitlab.io

 This ORCA versions uses:
   CBLAS   interface :  Fast vector & matrix operations
   LAPACKE interface :  Fast linear algebra routines
   SCALAPACK package :  Parallel linear algebra routines
   Shared memory     :  Shared parallel matrices
   BLAS/LAPACK       :  OpenBLAS 0.3.27  USE64BITINT DYNAMIC_ARCH NO_AFFINITY SkylakeX SINGLE_THREADED
        Core in use  :  SkylakeX
   Copyright (c) 2011-2014, The OpenBLAS Project


NOTE: MaxCore=8000 MB was set to SCF,MP2,MDCI,CIPSI,MRCI and CIS
      => If you want to overwrite this, your respective input block should be placed after the MaxCore statement
Your calculation utilizes the atom-pairwise dispersion correction
with the Becke-Johnson damping scheme (D3BJ)


Your calculation utilizes the SMD solvation module
Please cite in your paper:
A.V. Marenich, C.J. Cramer, D.G. Truhlar J. Phys. Chem. B, 113, (2009), 6378 

Warning: RI is on but no J-basis has been assigned. Assigning Def2/J (nothing to worry about!)
================================================================================

----- Orbital basis set information -----
Your calculation utilizes the basis: def2-TZVP
   F. Weigend and R. Ahlrichs, Phys. Chem. Chem. Phys. 7, 3297 (2005).

----- AuxJ basis set information -----
Your calculation utilizes the auxiliary basis: def2/J
   F. Weigend, Phys. Chem. Chem. Phys. 8, 1057 (2006).

================================================================================
                                        WARNINGS
                       Please study these warnings very carefully!
================================================================================


================================================================================
                                       INPUT FILE
================================================================================
NAME = rf_mecn_freq_B3L_P_A.inp
|  1> !B3LYP def2-TZVP freq d3 TightSCF SlowConv defgrid2
|  2>  
|  3> %pal
|  4> nprocs 20
|  5> end
|  6>  
|  7> %scf
|  8> MaxIter 1500
|  9> end
| 10>  
| 11> %maxcore 8000
| 12>  
| 13> !CPCM
| 14> %cpcm smd true
| 15> SMDsolvent "ACETONITRILE"
| 16> end
| 17>  
| 18> * xyz 0 1
| 19> 6        4.788223000     -0.032696000     -0.223229000
| 20> 8        5.165957000     -0.808294000     -1.226702000
| 21> 8        5.325435000      0.962347000      0.169113000
| 22> 6        3.482390000     -0.557973000      0.435970000
| 23> 6        2.224404000      0.126072000     -0.189037000
| 24> 6        0.862821000     -0.540707000      0.214541000
| 25> 6       -0.375070000      0.394824000     -0.021252000
| 26> 6       -1.740782000     -0.379295000     -0.031409000
| 27> 6       -2.981170000      0.554331000      0.174914000
| 28> 6       -4.348449000     -0.102338000     -0.205324000
| 29> 9        3.366712000     -1.896918000      0.292501000
| 30> 9        3.528918000     -0.268614000      1.751164000
| 31> 9        2.221025000      1.419803000      0.192543000
| 32> 9        2.342277000      0.075452000     -1.532846000
| 33> 9        0.706204000     -1.663621000     -0.514203000
| 34> 9        0.902962000     -0.874358000      1.518376000
| 35> 9       -0.405166000      1.319976000      0.957438000
| 36> 9       -0.230706000      1.019336000     -1.206294000
| 37> 9       -1.735519000     -1.296913000      0.955536000
| 38> 9       -1.864890000     -1.014650000     -1.212671000
| 39> 9       -2.838619000      1.664400000     -0.576541000
| 40> 9       -3.047149000      0.909814000      1.470651000
| 41> 9       -4.480044000     -1.292543000      0.384800000
| 42> 9       -5.333919000      0.695622000      0.210904000
| 43> 9       -4.454490000     -0.256186000     -1.524314000
| 44> 1        5.973177000     -0.438092000     -1.636807000
| 45> *
| 46> 
| 47>                          ****END OF INPUT****
================================================================================

                       ****************************
                       * Single Point Calculation *
                       ****************************

---------------------------------
CARTESIAN COORDINATES (ANGSTROEM)
---------------------------------
  C      4.788223   -0.032696   -0.223229
  O      5.165957   -0.808294   -1.226702
  O      5.325435    0.962347    0.169113
  C      3.482390   -0.557973    0.435970
  C      2.224404    0.126072   -0.189037
  C      0.862821   -0.540707    0.214541
  C     -0.375070    0.394824   -0.021252
  C     -1.740782   -0.379295   -0.031409
  C     -2.981170    0.554331    0.174914
  C     -4.348449   -0.102338   -0.205324
  F      3.366712   -1.896918    0.292501
  F      3.528918   -0.268614    1.751164
  F      2.221025    1.419803    0.192543
  F      2.342277    0.075452   -1.532846
  F      0.706204   -1.663621   -0.514203
  F      0.902962   -0.874358    1.518376
  F     -0.405166    1.319976    0.957438
  F     -0.230706    1.019336   -1.206294
  F     -1.735519   -1.296913    0.955536
  F     -1.864890   -1.014650   -1.212671
  F     -2.838619    1.664400   -0.576541
  F     -3.047149    0.909814    1.470651
  F     -4.480044   -1.292543    0.384800
  F     -5.333919    0.695622    0.210904
  F     -4.454490   -0.256186   -1.524314
  H      5.973177   -0.438092   -1.636807

----------------------------
CARTESIAN COORDINATES (A.U.)
----------------------------
  NO LB      ZA    FRAG     MASS         X           Y           Z
   0 C     6.0000    0    12.011    9.048430   -0.061786   -0.421842
   1 O     8.0000    0    15.999    9.762244   -1.527454   -2.318131
   2 O     8.0000    0    15.999   10.063614    1.818572    0.319577
   3 C     6.0000    0    12.011    6.580763   -1.054416    0.823864
   4 C     6.0000    0    12.011    4.203514    0.238242   -0.357228
   5 C     6.0000    0    12.011    1.630495   -1.021788    0.405424
   6 C     6.0000    0    12.011   -0.708780    0.746109   -0.040160
   7 C     6.0000    0    12.011   -3.289601   -0.716764   -0.059354
   8 C     6.0000    0    12.011   -5.633595    1.047534    0.330540
   9 C     6.0000    0    12.011   -8.217378   -0.193391   -0.388006
  10 F     9.0000    0    18.998    6.362164   -3.584656    0.552747
  11 F     9.0000    0    18.998    6.668689   -0.507607    3.309220
  12 F     9.0000    0    18.998    4.197129    2.683039    0.363854
  13 F     9.0000    0    18.998    4.426262    0.142584   -2.896659
  14 F     9.0000    0    18.998    1.334532   -3.143788   -0.971703
  15 F     9.0000    0    18.998    1.706351   -1.652297    2.869315
  16 F     9.0000    0    18.998   -0.765653    2.494393    1.809296
  17 F     9.0000    0    18.998   -0.435971    1.926266   -2.279565
  18 F     9.0000    0    18.998   -3.279656   -2.450810    1.805701
  19 F     9.0000    0    18.998   -3.524131   -1.917411   -2.291616
  20 F     9.0000    0    18.998   -5.364213    3.145260   -1.089505
  21 F     9.0000    0    18.998   -5.758277    1.719299    2.779128
  22 F     9.0000    0    18.998   -8.466056   -2.442552    0.727167
  23 F     9.0000    0    18.998  -10.079646    1.314535    0.398551
  24 F     9.0000    0    18.998   -8.417766   -0.484121   -2.880536
  25 H     1.0000    0     1.008   11.287669   -0.827874   -3.093117

--------------------------------
INTERNAL COORDINATES (ANGSTROEM)
--------------------------------
 C      0   0   0     0.000000000000     0.00000000     0.00000000
 O      1   0   0     1.323326601444     0.00000000     0.00000000
 O      1   2   0     1.196929216686   127.42254122     0.00000000
 C      1   2   3     1.554239065337   111.30655970   179.27440163
 C      4   1   2     1.562395624760   111.02943699   266.52557048
 C      5   4   1     1.568877848277   114.19230874   168.67625094
 C      6   5   4     1.569455548492   113.11246292   161.43007796
 C      7   6   5     1.569883007665   113.15362938   162.96730981
 C      8   7   6     1.566138269358   113.21553610   162.35371810
 C      9   8   7     1.563728549348   114.21317576   164.48409158
 F      4   1   2     1.351568890834   111.20432538    27.83018074
 F      4   1   2     1.347452686851   108.20321091   147.04686087
 F      5   4   1     1.348834539298   107.98583000   290.63545804
 F      5   4   1     1.349918166783   108.14949340    47.89646466
 F      6   5   4     1.347788022510   108.41236308   282.29832853
 F      6   5   4     1.346447175684   109.18029078    40.56309392
 F      7   6   5     1.347088010644   108.53291999   283.95976712
 F      7   6   5     1.347286437401   108.90122202    42.31638475
 F      8   7   6     1.347631598813   109.12474581    41.77899450
 F      8   7   6     1.347018442462   108.56693614   283.39628744
 F      9   8   7     1.348057339058   109.49368046    43.73444911
 F      9   8   7     1.345234464656   108.86066267   284.74150766
 F     10   9   8     1.334972479651   110.67709478    50.73925956
 F     10   9   8     1.334592458575   108.58557750   170.11140588
 F     10   9   8     1.332159345155   111.02993374   289.44683102
 H      2   1   3     0.978181864598   109.36942860   359.05832021

---------------------------
INTERNAL COORDINATES (A.U.)
---------------------------
 C      0   0   0     0.000000000000     0.00000000     0.00000000
 O      1   0   0     2.500724862462     0.00000000     0.00000000
 O      1   2   0     2.261868421226   127.42254122     0.00000000
 C      1   2   3     2.937086180128   111.30655970   179.27440163
 C      4   1   2     2.952499843634   111.02943699   266.52557048
 C      5   4   1     2.964749470819   114.19230874   168.67625094
 C      6   5   4     2.965841166012   113.11246292   161.43007796
 C      7   6   5     2.966648946783   113.15362938   162.96730981
 C      8   7   6     2.959572416941   113.21553610   162.35371810
 C      9   8   7     2.955018706062   114.21317576   164.48409158
 F      4   1   2     2.554095054804   111.20432538    27.83018074
 F      4   1   2     2.546316556564   108.20321091   147.04686087
 F      5   4   1     2.548927879246   107.98583000   290.63545804
 F      5   4   1     2.550975638424   108.14949340    47.89646466
 F      6   5   4     2.546950249123   108.41236308   282.29832853
 F      6   5   4     2.544416415834   109.18029078    40.56309392
 F      7   6   5     2.545627418405   108.53291999   283.95976712
 F      7   6   5     2.546002390634   108.90122202    42.31638475
 F      8   7   6     2.546654651174   109.12474581    41.77899450
 F      8   7   6     2.545495953595   108.56693614   283.39628744
 F      9   8   7     2.547459183641   109.49368046    43.73444911
 F      9   8   7     2.542124724112   108.86066267   284.74150766
 F     10   9   8     2.522732382862   110.67709478    50.73925956
 F     10   9   8     2.522014247102   108.58557750   170.11140588
 F     10   9   8     2.517416329088   111.02993374   289.44683102
 H      2   1   3     1.848495833259   109.36942860   359.05832021

---------------------
BASIS SET INFORMATION
---------------------
There are 4 groups of distinct atoms

 Group   1 Type C   : 11s6p2d1f contracted to 5s3p2d1f pattern {62111/411/11/1}
 Group   2 Type O   : 11s6p2d1f contracted to 5s3p2d1f pattern {62111/411/11/1}
 Group   3 Type F   : 11s6p2d1f contracted to 5s3p2d1f pattern {62111/411/11/1}
 Group   4 Type H   : 5s1p contracted to 3s1p pattern {311/1}

Atom   0C    basis set group =>   1
Atom   1O    basis set group =>   2
Atom   2O    basis set group =>   2
Atom   3C    basis set group =>   1
Atom   4C    basis set group =>   1
Atom   5C    basis set group =>   1
Atom   6C    basis set group =>   1
Atom   7C    basis set group =>   1
Atom   8C    basis set group =>   1
Atom   9C    basis set group =>   1
Atom  10F    basis set group =>   3
Atom  11F    basis set group =>   3
Atom  12F    basis set group =>   3
Atom  13F    basis set group =>   3
Atom  14F    basis set group =>   3
Atom  15F    basis set group =>   3
Atom  16F    basis set group =>   3
Atom  17F    basis set group =>   3
Atom  18F    basis set group =>   3
Atom  19F    basis set group =>   3
Atom  20F    basis set group =>   3
Atom  21F    basis set group =>   3
Atom  22F    basis set group =>   3
Atom  23F    basis set group =>   3
Atom  24F    basis set group =>   3
Atom  25H    basis set group =>   4
---------------------------------
AUXILIARY/J BASIS SET INFORMATION
---------------------------------
There are 4 groups of distinct atoms

 Group   1 Type C   : 12s5p4d2f1g contracted to 6s4p3d1f1g pattern {711111/2111/211/2/1}
 Group   2 Type O   : 12s5p4d2f1g contracted to 6s4p3d1f1g pattern {711111/2111/211/2/1}
 Group   3 Type F   : 12s5p4d2f1g contracted to 6s4p3d1f1g pattern {711111/2111/211/2/1}
 Group   4 Type H   : 5s2p1d contracted to 3s1p1d pattern {311/2/1}

Atom   0C    basis set group =>   1
Atom   1O    basis set group =>   2
Atom   2O    basis set group =>   2
Atom   3C    basis set group =>   1
Atom   4C    basis set group =>   1
Atom   5C    basis set group =>   1
Atom   6C    basis set group =>   1
Atom   7C    basis set group =>   1
Atom   8C    basis set group =>   1
Atom   9C    basis set group =>   1
Atom  10F    basis set group =>   3
Atom  11F    basis set group =>   3
Atom  12F    basis set group =>   3
Atom  13F    basis set group =>   3
Atom  14F    basis set group =>   3
Atom  15F    basis set group =>   3
Atom  16F    basis set group =>   3
Atom  17F    basis set group =>   3
Atom  18F    basis set group =>   3
Atom  19F    basis set group =>   3
Atom  20F    basis set group =>   3
Atom  21F    basis set group =>   3
Atom  22F    basis set group =>   3
Atom  23F    basis set group =>   3
Atom  24F    basis set group =>   3
Atom  25H    basis set group =>   4


           ************************************************************
           *        Program running with 20 parallel MPI-processes    *
           *              working on a common directory               *
           ************************************************************
------------------------------------------------------------------------------
                             ORCA STARTUP CALCULATIONS
                           -- RI-GTO INTEGRALS CHOSEN --
------------------------------------------------------------------------------
------------------------------------------------------------------------------
                   ___                                                        
                  /   \      - P O W E R E D   B Y -                         
                 /     \                                                     
                 |  |  |   _    _      __       _____    __    __             
                 |  |  |  | |  | |    /  \     |  _  \  |  |  /  |          
                  \  \/   | |  | |   /    \    | | | |  |  | /  /          
                 / \  \   | |__| |  /  /\  \   | |_| |  |  |/  /          
                |  |  |   |  __  | /  /__\  \  |    /   |      \           
                |  |  |   | |  | | |   __   |  |    \   |  |\   \          
                \     /   | |  | | |  |  |  |  | |\  \  |  | \   \       
                 \___/    |_|  |_| |__|  |__|  |_| \__\ |__|  \__/        
                                                                              
                      - O R C A' S   B I G   F R I E N D -                    
                                      &                                       
                       - I N T E G R A L  F E E D E R -                       
                                                                              
 v1 FN, 2020, v2 2021, v3 2022-2024                                           
------------------------------------------------------------------------------


----------------------
SHARK INTEGRAL PACKAGE
----------------------

Number of atoms                             ...     26
Number of basis functions                   ...    781
Number of shells                            ...    279
Maximum angular momentum                    ...      3
Integral batch strategy                     ... SHARK/LIBINT Hybrid
RI-J (if used) integral strategy            ... SPLIT-RIJ (Revised 2003 algorithm where possible)
Printlevel                                  ...      1
Contraction scheme used                     ... SEGMENTED contraction
Prescreening option                         ... SCHWARTZ
   Thresh                                   ... 2.500e-11
   Tcut                                     ... 2.500e-12
   Tpresel                                  ... 2.500e-12 
Coulomb Range Separation                    ... NOT USED
Exchange Range Separation                   ... NOT USED
Multipole approximations                    ... NOT USED
Finite Nucleus Model                        ... NOT USED
CABS basis                                  ... NOT available
Auxiliary Coulomb fitting basis             ... AVAILABLE
   # of basis functions in Aux-J            ...   1236
   # of shells in Aux-J                     ...    380
   Maximum angular momentum in Aux-J        ...      4
Auxiliary J/K fitting basis                 ... NOT available
Auxiliary Correlation fitting basis         ... NOT available
Auxiliary 'external' fitting basis          ... NOT available

Checking pre-screening integrals            ... done (  0.0 sec) Dimension = 279
Check shell pair data                       ... done (  0.0 sec)
Shell pair information
Shell pair cut-off parameter TPreSel        ...   2.5e-12
Total number of shell pairs                 ...     39060
Shell pairs after pre-screening             ...     23908
Total number of primitive shell pairs       ...    128824
Primitive shell pairs kept                  ...     50674
          la=0 lb=0:   4552 shell pairs
          la=1 lb=0:   6538 shell pairs
          la=1 lb=1:   2262 shell pairs
          la=2 lb=0:   3546 shell pairs
          la=2 lb=1:   2599 shell pairs
          la=2 lb=2:    729 shell pairs
          la=3 lb=0:   1606 shell pairs
          la=3 lb=1:   1250 shell pairs
          la=3 lb=2:    667 shell pairs
          la=3 lb=3:    159 shell pairs

Calculating one electron integrals          ... done (  0.2 sec)
Calculating RI/J V-Matrix + Cholesky decomp.... done (  0.2 sec)
Calculating Nuclear repulsion               ... done (  0.0 sec) ENN=   2898.188724199323 Eh

Diagonalization of the overlap matrix:
Smallest eigenvalue                        ... 5.687e-05
Time for diagonalization                   ...    0.181 sec
Threshold for overlap eigenvalues          ... 1.000e-07
Number of eigenvalues below threshold      ... 0
Time for construction of square roots      ...    0.053 sec
Total time needed                          ...    0.242 sec

-------------------
DFT GRID GENERATION
-------------------

General Integration Accuracy     IntAcc      ... 4.388
Radial Grid Type                 RadialGrid  ... OptM3 with GC (2021)
Angular Grid (max. ang.)         AngularGrid ... 4 (Lebedev-302)
Angular grid pruning method      GridPruning ... 4 (adaptive)
Weight generation scheme         WeightScheme... mBecke (2022)
Basis function cutoff            BFCut       ... 1.0000e-11
Integration weight cutoff        WCut        ... 1.0000e-14
Partially contracted basis set               ... off
Rotationally invariant grid construction     ... off
Angular grids for H and He will be reduced by one unit

Total number of grid points                  ...   154672
Total number of batches                      ...     2431
Average number of points per batch           ...       63
Average number of grid points per atom       ...     5949

--------------------
COSX GRID GENERATION
--------------------

GRIDX 1
-------
General Integration Accuracy     IntAcc      ... 3.816
Radial Grid Type                 RadialGrid  ... OptM3 with GC (2021)
Angular Grid (max. ang.)         AngularGrid ... 1 (Lebedev-50)
Angular grid pruning method      GridPruning ... 4 (adaptive)
Weight generation scheme         WeightScheme... mBecke (2022)
Basis function cutoff            BFCut       ... 1.0000e-11
Integration weight cutoff        WCut        ... 1.0000e-14
Partially contracted basis set               ... on
Rotationally invariant grid construction     ... off
Angular grids for H and He will be reduced by one unit

Total number of grid points                  ...    19444
Total number of batches                      ...      163
Average number of points per batch           ...      119
Average number of grid points per atom       ...      748
UseSFitting                                  ... on

GRIDX 2
-------
General Integration Accuracy     IntAcc      ... 4.020
Radial Grid Type                 RadialGrid  ... OptM3 with GC (2021)
Angular Grid (max. ang.)         AngularGrid ... 2 (Lebedev-110)
Angular grid pruning method      GridPruning ... 4 (adaptive)
Weight generation scheme         WeightScheme... mBecke (2022)
Basis function cutoff            BFCut       ... 1.0000e-11
Integration weight cutoff        WCut        ... 1.0000e-14
Partially contracted basis set               ... on
Rotationally invariant grid construction     ... off
Angular grids for H and He will be reduced by one unit

Total number of grid points                  ...    45833
Total number of batches                      ...      374
Average number of points per batch           ...      122
Average number of grid points per atom       ...     1763
UseSFitting                                  ... on

GRIDX 3
-------
General Integration Accuracy     IntAcc      ... 4.338
Radial Grid Type                 RadialGrid  ... OptM3 with GC (2021)
Angular Grid (max. ang.)         AngularGrid ... 3 (Lebedev-194)
Angular grid pruning method      GridPruning ... 4 (adaptive)
Weight generation scheme         WeightScheme... mBecke (2022)
Basis function cutoff            BFCut       ... 1.0000e-11
Integration weight cutoff        WCut        ... 1.0000e-14
Partially contracted basis set               ... on
Rotationally invariant grid construction     ... off
Angular grids for H and He will be reduced by one unit

Total number of grid points                  ...   101451
Total number of batches                      ...      801
Average number of points per batch           ...      126
Average number of grid points per atom       ...     3902
UseSFitting                                  ... on
Initializing property integral containers    ... done (  0.0 sec)

SHARK setup successfully completed in   4.3 seconds

Maximum memory used throughout the entire STARTUP-calculation: 60.8 MB


           ************************************************************
           *        Program running with 20 parallel MPI-processes    *
           *              working on a common directory               *
           ************************************************************
-------------------------------------------------------------------------------
                                 ORCA GUESS
                   Start orbitals & Density for SCF / CASSCF
-------------------------------------------------------------------------------

------------
SCF SETTINGS
------------
Hamiltonian:
 Density Functional     Method          .... DFT(GTOs)
 Exchange Functional    Exchange        .... B88
   X-Alpha parameter    XAlpha          ....  0.666667
   Becke's b parameter  XBeta           ....  0.004200
 Correlation Functional Correlation     .... LYP
 LDA part of GGA corr.  LDAOpt          .... VWN-5
 Gradients option       PostSCFGGA      .... off
 Hybrid DFT is turned on
   Fraction HF Exchange ScalHFX         ....  0.200000
   Scaling of DF-GGA-X  ScalDFX         ....  0.720000
   Scaling of DF-GGA-C  ScalDFC         ....  0.810000
   Scaling of DF-LDA-C  ScalLDAC        ....  1.000000
   Perturbative correction              ....  0.000000
   NL short-range parameter             ....  4.800000
 RI-approximation to the Coulomb term is turned on
   Number of AuxJ basis functions       .... 1236
   RIJ-COSX (HFX calculated with COS-X)).... on


General Settings:
 Integral files         IntName         .... rf_mecn_freq_B3L_P_A
 Hartree-Fock type      HFTyp           .... RHF
 Total Charge           Charge          ....    0
 Multiplicity           Mult            ....    1
 Number of Electrons    NEL             ....  200
 Basis Dimension        Dim             ....  781
 Nuclear Repulsion      ENuc            ....   2898.1887241993 Eh

Convergence Acceleration:
 AO-DIIS                CNVDIIS         .... on
   Start iteration      DIISMaxIt       ....     0
   Startup error        DIISStart       ....  0.200000
   # of expansion vecs  DIISMaxEq       ....     5
   Bias factor          DIISBfac        ....   1.050
   Max. coefficient     DIISMaxC        ....  10.000
 MO-DIIS                CNVKDIIS        .... off
 Trust-Rad. Augm. Hess. CNVTRAH         .... auto
   Auto Start mean grad. ratio tolernc. ....  1.125000
   Auto Start start iteration           ....    50
   Auto Start num. interpolation iter.  ....    10
   Max. Number of Micro iterations      ....    24
   Max. Number of Macro iterations      .... Maxiter - #DIIS iter
   Number of Davidson start vectors     ....     2
   Converg. threshold    (grad. norm)   ....   1.000e-05
   Grad. Scal. Fac. for Micro threshold ....   0.100
   Minimum threshold for Micro iter.    ....   1.000e-02
   NR start threshold (gradient norm)   ....   1.000e-04
   Initial trust radius                 ....   0.400
   Minimum AH scaling param. (alpha)    ....   1.000
   Maximum AH scaling param. (alpha)    .... 1000.000
   Quad. conv. algorithm                .... NR
   White noise on init. David. guess    .... on
   Maximum white noise                  ....   0.010
   Pseudo random numbers                .... off
   Inactive MOs                         .... canonical
   Orbital update algorithm             .... Taylor
   Preconditioner                       .... Diag
   Full preconditioner red. dimension   ....   250
 SOSCF                  CNVSOSCF        .... on
   Start iteration      SOSCFMaxIt      ....   150
   Startup grad/error   SOSCFStart      ....  0.001000
   Hessian update       SOSCFHessUp     .... L-BFGS
 Level Shifting         CNVShift        .... on
   Level shift para.    LevelShift      ....    0.2500
   Turn off err/grad.   ShiftErr        ....    0.0000
 Zerner damping         CNVZerner       .... off
 Static damping         CNVDamp         .... on
   Fraction old density DampFac         ....    0.8500
   Max. Damping (<1)    DampMax         ....    0.9800
   Min. Damping (>=0)   DampMin         ....    0.0000
   Turn off err/grad.   DampErr         ....    0.0300

SCF Procedure:
 Maximum # iterations   MaxIter         ....  1500
 SCF integral mode      SCFMode         .... Direct
   Integral package                     .... SHARK and LIBINT hybrid scheme
 Reset frequency        DirectResetFreq ....    20
 Integral Threshold     Thresh          ....  2.500e-11 Eh
 Primitive CutOff       TCut            ....  2.500e-12 Eh

Convergence Tolerance:
 Convergence Check Mode ConvCheckMode   .... Total+1el-Energy
 Convergence forced     ConvForced      .... 0
 Energy Change          TolE            ....  1.000e-08 Eh
 1-El. energy change                    ....  1.000e-05 Eh
 Orbital Gradient       TolG            ....  1.000e-05
 Orbital Rotation angle TolX            ....  1.000e-05
 DIIS Error             TolErr          ....  5.000e-07

------------------------------
INITIAL GUESS: MODEL POTENTIAL
------------------------------
Loading Hartree-Fock densities                     ... done
Calculating cut-offs                               ... done
Initializing the effective Hamiltonian             ... done
Setting up the integral package (SHARK)            ... done
Starting the Coulomb interaction                   ... done (   0.4 sec)
Making the grid                                    ... done (   0.5 sec)
Mapping shells                                     ... done
Starting the XC term evaluation                    ... done (   0.1 sec)
  promolecular density results
     # of electrons  =    199.996847369
     EX              =   -208.716061362
     EC              =     -7.533070844
     EX+EC           =   -216.249132206
Transforming the Hamiltonian                       ... done (   0.0 sec)
Diagonalizing the Hamiltonian                      ... done (   0.2 sec)
Back transforming the eigenvectors                 ... done (   0.0 sec)
Now organizing SCF variables                       ... done
                      ------------------
                      INITIAL GUESS DONE (   1.4 sec)
                      ------------------
             **** ENERGY FILE WAS UPDATED (rf_mecn_freq_B3L_P_A.en.tmp) ****
Finished Guess after   2.1 sec
Maximum memory used throughout the entire GUESS-calculation: 49.5 MB


           ************************************************************
           *        Program running with 20 parallel MPI-processes    *
           *              working on a common directory               *
           ************************************************************

-------------------------------------------------------------------------------------------
                                      ORCA LEAN-SCF
                              memory conserving SCF solver
-------------------------------------------------------------------------------------------

--------------------
CPCM SOLVATION MODEL
--------------------
CPCM parameters:
  Epsilon                                         ...      35.6880
  Refrac                                          ...       1.3442
  Rsolv                                           ...       1.3000
  Surface type                                    ... GAUSSIAN VDW
  Discretization scheme                           ... Constant charge density
    Threshold for H atoms                         ...       5.0000 (charges/Ang^2)
    Threshold for non-H atoms                     ...       5.0000 (charges/Ang^2)
  Epsilon function type                           ...         CPCM
Solvent:                                          ... ACETONITRILE
SMD-CDS solvent descriptors:
  Soln                                            ...       1.3442
  Soln25                                          ...       1.3416
  Sola                                            ...       0.0700
  Solb                                            ...       0.3200
  Solg                                            ...      41.2500
  Solc                                            ...       0.0000
  Solh                                            ...       0.0000
Radii:
  Scheme                                          ... Element-dependent radii
  Radius for C  used is    3.4960 Bohr (=   1.8500 Ang.)
  Radius for O  used is    4.0969 Bohr (=   2.1680 Ang.)
  Radius for F  used is    3.2692 Bohr (=   1.7300 Ang.)
  Radius for H  used is    2.2677 Bohr (=   1.2000 Ang.)
Calculating surface                               ...        done! (  0.0s)
Cavity surface points                             ...         2173
Cavity Volume                                     ...    2169.8679
Cavity Surface-area                               ...    1117.6249
Calculating surface distance matrix               ...        done! (  0.0s)
Performing Cholesky decomposition & store         ...        done! (  0.1s)
Overall time for CPCM initialization              ...                 0.1s

----------------------------------------D-I-I-S--------------------------------------------
Iteration    Energy (Eh)           Delta-E    RMSDP     MaxDP     DIISErr   Damp  Time(sec)
-------------------------------------------------------------------------------------------
               ***  Starting incremental Fock matrix formation  ***
    1    -1953.1019571330398321     0.00e+00  3.97e-04  2.82e-02  2.96e-01  0.850   5.9
    2    -1953.2583507141862356    -1.56e-01  3.64e-04  2.39e-02  1.99e-01  0.850   3.3
                               ***Turning on AO-DIIS***
    3    -1953.3425248541443580    -8.42e-02  1.66e-04  9.30e-03  1.16e-01  0.850   3.3
    4    -1953.3930100845045672    -5.05e-02  9.81e-05  5.18e-03  8.89e-02  0.850   2.9
    5    -1953.4289859885911937    -3.60e-02  7.25e-05  4.46e-03  7.55e-02  0.850   2.9
    6    -1953.4575649546577552    -2.86e-02  6.20e-05  4.60e-03  6.54e-02  0.850   2.8
    7    -1953.4813587888902475    -2.38e-02  5.67e-05  4.38e-03  5.56e-02  0.850   2.8
    8    -1953.5014002369807713    -2.00e-02  4.94e-05  3.86e-03  4.57e-02  0.850   2.7
    9    -1953.5180490588509201    -1.66e-02  4.14e-05  3.26e-03  3.78e-02  0.850   2.6
   10    -1953.5318322803350384    -1.38e-02  3.45e-05  2.74e-03  3.18e-02  0.850   2.7
   11    -1953.5432983581767985    -1.15e-02  2.90e-05  2.33e-03  2.68e-02  0.850   2.7
   12    -1953.5528887636173749    -9.59e-03  1.64e-04  1.34e-02  2.24e-02  0.000   2.7
   13    -1953.6048890995443799    -5.20e-02  1.18e-05  1.40e-03  3.14e-03  0.000   2.8
   14    -1953.6049121248988740    -2.30e-05  5.06e-06  4.81e-04  1.48e-03  0.000   2.4
                              *** Initializing SOSCF ***
---------------------------------------S-O-S-C-F--------------------------------------
Iteration    Energy (Eh)           Delta-E    RMSDP     MaxDP     MaxGrad    Time(sec)
--------------------------------------------------------------------------------------
   15    -1953.6049169995112607    -4.87e-06  1.78e-06  1.75e-04  2.96e-04     2.5
               *** Restarting incremental Fock matrix formation ***
   16    -1953.6049387097309591    -2.17e-05  3.16e-06  2.12e-04  1.40e-05     5.4
   17    -1953.6049387440198188    -3.43e-08  8.92e-07  6.41e-05  1.23e-05     3.3
   18    -1953.6049388045885280    -6.06e-08  6.66e-07  3.58e-05  1.08e-05     2.9
   19    -1953.6049387577340894     4.69e-08  2.25e-07  1.85e-05  8.26e-06     2.8
   20    -1953.6049387298908186     2.78e-08  2.65e-07  1.80e-05  2.76e-06     2.4
   21    -1953.6049387621014830    -3.22e-08  1.25e-07  1.23e-05  9.49e-07     2.6
                  *** Gradient check signals convergence ***

               *****************************************************
               *                     SUCCESS                       *
               *           SCF CONVERGED AFTER  21 CYCLES          *
               *****************************************************

Recomputing exchange energy using gridx3       ... done (    7.189 sec)
Old exchange energy                            :    -41.839532798 Eh
New exchange energy                            :    -41.839557063 Eh
Exchange energy change after final integration :     -0.000024265 Eh
Total energy after final integration           :  -1953.604963027 Eh

SMD CDS free energy correction energy :                 3.36838     Kcal/mol
Total Energy after SMD CDS correction =             -1953.599595173 Eh
             **** ENERGY FILE WAS UPDATED (rf_mecn_freq_B3L_P_A.en.tmp) ****

----------------
TOTAL SCF ENERGY
----------------

Total Energy       :      -1953.59959517310767 Eh          -53160.14759 eV

Components:
Nuclear Repulsion  :       2898.18872419932268 Eh           78863.72454 eV
Electronic Energy  :      -4851.78183268613247 Eh         -132023.69562 eV
One Electron Energy:      -8485.45340202492480 Eh         -230900.92585 eV
Two Electron Energy:       3633.67156933879278 Eh           98877.23022 eV
CPCM Dielectric    :         -0.01183027529128 Eh              -0.32192 eV
SMD CDS (Gcds)     :          0.00536785353057 Eh               0.14607 eV

Virial components:
Potential Energy   :      -3900.57485703500970 Eh         -106140.03792 eV
Kinetic Energy     :       1946.97526186190225 Eh           52979.89032 eV
Virial Ratio       :          2.00340237158682

DFT components:
N(Alpha)           :       99.999966061550 electrons
N(Beta)            :       99.999966061550 electrons
N(Total)           :      199.999932123100 electrons
E(X)               :     -166.733452406963 Eh       
E(C)               :       -8.799596206105 Eh       
E(XC)              :     -175.533048613068 Eh       

CPCM Solvation Model Properties:
Surface-charge          :         -0.00910132215687
Corrected charge        :         -0.00000000000000
Outlying charge corr.   :          0.00000451701012 Eh               0.00012 eV
Free-energy (cav+disp)  :          0.00536785353057 Eh               0.14607 eV

---------------
SCF CONVERGENCE
---------------

  Last Energy change         ...    3.2211e-08  Tolerance :   1.0000e-08
  Last MAX-Density change    ...    1.2307e-05  Tolerance :   1.0000e-07
  Last RMS-Density change    ...    1.2458e-07  Tolerance :   5.0000e-09
  Last DIIS Error            ...    2.9577e-04  Tolerance :   5.0000e-07
  Last Orbital Gradient      ...    9.4934e-07  Tolerance :   1.0000e-05
  Last Orbital Rotation      ...    1.2423e-06  Tolerance :   1.0000e-05


----------------
ORBITAL ENERGIES
----------------

  NO   OCC          E(Eh)            E(eV) 
   0   2.0000     -24.747134      -673.4037 
   1   2.0000     -24.747014      -673.4005 
   2   2.0000     -24.746870      -673.3966 
   3   2.0000     -24.746841      -673.3958 
   4   2.0000     -24.746763      -673.3937 
   5   2.0000     -24.746424      -673.3844 
   6   2.0000     -24.745840      -673.3685 
   7   2.0000     -24.745701      -673.3648 
   8   2.0000     -24.745366      -673.3556 
   9   2.0000     -24.745036      -673.3467 
  10   2.0000     -24.744848      -673.3416 
  11   2.0000     -24.744374      -673.3287 
  12   2.0000     -24.743751      -673.3117 
  13   2.0000     -24.735453      -673.0859 
  14   2.0000     -24.733501      -673.0328 
  15   2.0000     -19.207868      -522.6727 
  16   2.0000     -19.154844      -521.2298 
  17   2.0000     -10.463378      -284.7230 
  18   2.0000     -10.412650      -283.3426 
  19   2.0000     -10.412270      -283.3323 
  20   2.0000     -10.411218      -283.3037 
  21   2.0000     -10.410097      -283.2731 
  22   2.0000     -10.406831      -283.1843 
  23   2.0000     -10.397032      -282.9176 
  24   2.0000     -10.346887      -281.5531 
  25   2.0000      -1.355855       -36.8947 
  26   2.0000      -1.338008       -36.4090 
  27   2.0000      -1.325753       -36.0756 
  28   2.0000      -1.314489       -35.7691 
  29   2.0000      -1.311281       -35.6818 
  30   2.0000      -1.309326       -35.6286 
  31   2.0000      -1.302257       -35.4362 
  32   2.0000      -1.270928       -34.5837 
  33   2.0000      -1.266361       -34.4594 
  34   2.0000      -1.262477       -34.3538 
  35   2.0000      -1.260864       -34.3098 
  36   2.0000      -1.256021       -34.1781 
  37   2.0000      -1.253373       -34.1060 
  38   2.0000      -1.252654       -34.0865 
  39   2.0000      -1.244812       -33.8731 
  40   2.0000      -1.147321       -31.2202 
  41   2.0000      -1.063208       -28.9314 
  42   2.0000      -0.853857       -23.2346 
  43   2.0000      -0.838222       -22.8092 
  44   2.0000      -0.814456       -22.1625 
  45   2.0000      -0.781572       -21.2677 
  46   2.0000      -0.740967       -20.1627 
  47   2.0000      -0.705223       -19.1901 
  48   2.0000      -0.687940       -18.7198 
  49   2.0000      -0.670001       -18.2316 
  50   2.0000      -0.655368       -17.8335 
  51   2.0000      -0.652434       -17.7536 
  52   2.0000      -0.641938       -17.4680 
  53   2.0000      -0.637948       -17.3594 
  54   2.0000      -0.636441       -17.3184 
  55   2.0000      -0.631218       -17.1763 
  56   2.0000      -0.621171       -16.9029 
  57   2.0000      -0.617313       -16.7979 
  58   2.0000      -0.613058       -16.6822 
  59   2.0000      -0.607832       -16.5400 
  60   2.0000      -0.603312       -16.4170 
  61   2.0000      -0.596188       -16.2231 
  62   2.0000      -0.589281       -16.0352 
  63   2.0000      -0.585516       -15.9327 
  64   2.0000      -0.574841       -15.6422 
  65   2.0000      -0.522348       -14.2138 
  66   2.0000      -0.521392       -14.1878 
  67   2.0000      -0.519054       -14.1242 
  68   2.0000      -0.513874       -13.9832 
  69   2.0000      -0.511166       -13.9095 
  70   2.0000      -0.506634       -13.7862 
  71   2.0000      -0.504141       -13.7184 
  72   2.0000      -0.501207       -13.6385 
  73   2.0000      -0.497065       -13.5258 
  74   2.0000      -0.492410       -13.3992 
  75   2.0000      -0.492096       -13.3906 
  76   2.0000      -0.487863       -13.2754 
  77   2.0000      -0.484283       -13.1780 
  78   2.0000      -0.481982       -13.1154 
  79   2.0000      -0.476507       -12.9664 
  80   2.0000      -0.473859       -12.8944 
  81   2.0000      -0.468827       -12.7574 
  82   2.0000      -0.465710       -12.6726 
  83   2.0000      -0.462493       -12.5851 
  84   2.0000      -0.459102       -12.4928 
  85   2.0000      -0.456542       -12.4231 
  86   2.0000      -0.455240       -12.3877 
  87   2.0000      -0.452339       -12.3088 
  88   2.0000      -0.450009       -12.2454 
  89   2.0000      -0.448290       -12.1986 
  90   2.0000      -0.444632       -12.0990 
  91   2.0000      -0.443980       -12.0813 
  92   2.0000      -0.442910       -12.0522 
  93   2.0000      -0.437399       -11.9022 
  94   2.0000      -0.430122       -11.7042 
  95   2.0000      -0.412775       -11.2322 
  96   2.0000      -0.384817       -10.4714 
  97   2.0000      -0.361372        -9.8334 
  98   2.0000      -0.353749        -9.6260 
  99   2.0000      -0.318504        -8.6669 
 100   0.0000      -0.054089        -1.4718 
 101   0.0000      -0.009349        -0.2544 
 102   0.0000       0.004052         0.1103 
 103   0.0000       0.028201         0.7674 
 104   0.0000       0.036112         0.9827 
 105   0.0000       0.049017         1.3338 
 106   0.0000       0.079842         2.1726 
 107   0.0000       0.091144         2.4802 
 108   0.0000       0.095060         2.5867 
 109   0.0000       0.105962         2.8834 
 110   0.0000       0.125056         3.4030 
*Only the first 10 virtual orbitals were printed.

                    ********************************
                    * MULLIKEN POPULATION ANALYSIS *
                    ********************************

-----------------------
MULLIKEN ATOMIC CHARGES
-----------------------
   0 C :    0.227491
   1 O :   -0.347248
   2 O :   -0.284565
   3 C :    0.413105
   4 C :    0.307135
   5 C :    0.328491
   6 C :    0.334438
   7 C :    0.313015
   8 C :    0.324069
   9 C :    0.476301
  10 F :   -0.176464
  11 F :   -0.172055
  12 F :   -0.170260
  13 F :   -0.171563
  14 F :   -0.167582
  15 F :   -0.165754
  16 F :   -0.165931
  17 F :   -0.166408
  18 F :   -0.166623
  19 F :   -0.165681
  20 F :   -0.164922
  21 F :   -0.161426
  22 F :   -0.154621
  23 F :   -0.151946
  24 F :   -0.152026
  25 H :    0.381031
Sum of atomic charges:    0.0000000

--------------------------------
MULLIKEN REDUCED ORBITAL CHARGES
--------------------------------
  0 C s       :     3.098883  s :     3.098883
      pz      :     0.758750  p :     2.389831
      px      :     0.856391
      py      :     0.774690
      dz2     :     0.053683  d :     0.259164
      dxz     :     0.033068
      dyz     :     0.059461
      dx2y2   :     0.060740
      dxy     :     0.052213
      f0      :     0.003125  f :     0.024631
      f+1     :     0.002499
      f-1     :     0.004005
      f+2     :     0.004039
      f-2     :     0.003735
      f+3     :     0.002911
      f-3     :     0.004316

  1 O s       :     3.766991  s :     3.766991
      pz      :     1.451160  p :     4.547966
      px      :     1.484808
      py      :     1.611999
      dz2     :     0.005706  d :     0.030529
      dxz     :     0.004315
      dyz     :     0.008551
      dx2y2   :     0.005339
      dxy     :     0.006618
      f0      :     0.000313  f :     0.001761
      f+1     :     0.000198
      f-1     :     0.000279
      f+2     :     0.000353
      f-2     :     0.000391
      f+3     :     0.000025
      f-3     :     0.000203

  2 O s       :     3.793040  s :     3.793040
      pz      :     1.561926  p :     4.459650
      px      :     1.553817
      py      :     1.343907
      dz2     :     0.004047  d :     0.030028
      dxz     :     0.003364
      dyz     :     0.006724
      dx2y2   :     0.008841
      dxy     :     0.007052
      f0      :     0.000148  f :     0.001846
      f+1     :     0.000116
      f-1     :     0.000327
      f+2     :     0.000206
      f-2     :     0.000291
      f+3     :     0.000281
      f-3     :     0.000476

  3 C s       :     3.063825  s :     3.063825
      pz      :     0.658620  p :     2.218005
      px      :     0.929652
      py      :     0.629734
      dz2     :     0.046356  d :     0.277289
      dxz     :     0.056060
      dyz     :     0.076354
      dx2y2   :     0.040089
      dxy     :     0.058430
      f0      :     0.005489  f :     0.027776
      f+1     :     0.004803
      f-1     :     0.005244
      f+2     :     0.003411
      f-2     :     0.001499
      f+3     :     0.004712
      f-3     :     0.002619

  4 C s       :     3.163706  s :     3.163706
      pz      :     0.626582  p :     2.215780
      px      :     0.926408
      py      :     0.662790
      dz2     :     0.053210  d :     0.285287
      dxz     :     0.058811
      dyz     :     0.074834
      dx2y2   :     0.038044
      dxy     :     0.060388
      f0      :     0.004340  f :     0.028092
      f+1     :     0.005113
      f-1     :     0.007380
      f+2     :     0.002501
      f-2     :     0.001764
      f+3     :     0.004467
      f-3     :     0.002527

  5 C s       :     3.150766  s :     3.150766
      pz      :     0.594826  p :     2.205666
      px      :     0.912420
      py      :     0.698420
      dz2     :     0.067586  d :     0.286932
      dxz     :     0.062375
      dyz     :     0.064435
      dx2y2   :     0.034923
      dxy     :     0.057614
      f0      :     0.004178  f :     0.028145
      f+1     :     0.004802
      f-1     :     0.007659
      f+2     :     0.002638
      f-2     :     0.003426
      f+3     :     0.003009
      f-3     :     0.002434

  6 C s       :     3.147559  s :     3.147559
      pz      :     0.580981  p :     2.202470
      px      :     0.910618
      py      :     0.710871
      dz2     :     0.077950  d :     0.287377
      dxz     :     0.061425
      dyz     :     0.055806
      dx2y2   :     0.033281
      dxy     :     0.058915
      f0      :     0.005782  f :     0.028156
      f+1     :     0.004050
      f-1     :     0.005219
      f+2     :     0.003817
      f-2     :     0.005014
      f+3     :     0.002208
      f-3     :     0.002065

  7 C s       :     3.151500  s :     3.151500
      pz      :     0.581437  p :     2.220139
      px      :     0.923929
      py      :     0.714773
      dz2     :     0.078282  d :     0.287196
      dxz     :     0.061652
      dyz     :     0.055592
      dx2y2   :     0.033172
      dxy     :     0.058498
      f0      :     0.005823  f :     0.028149
      f+1     :     0.004077
      f-1     :     0.005153
      f+2     :     0.003820
      f-2     :     0.005058
      f+3     :     0.002178
      f-3     :     0.002040

  8 C s       :     3.129255  s :     3.129255
      pz      :     0.597412  p :     2.238005
      px      :     0.928470
      py      :     0.712122
      dz2     :     0.067314  d :     0.280521
      dxz     :     0.060513
      dyz     :     0.063050
      dx2y2   :     0.033122
      dxy     :     0.056522
      f0      :     0.004324  f :     0.028151
      f+1     :     0.004695
      f-1     :     0.007489
      f+2     :     0.002733
      f-2     :     0.003559
      f+3     :     0.002915
      f-3     :     0.002436

  9 C s       :     3.023633  s :     3.023633
      pz      :     0.638482  p :     2.114238
      px      :     0.813996
      py      :     0.661760
      dz2     :     0.068582  d :     0.345402
      dxz     :     0.068317
      dyz     :     0.080881
      dx2y2   :     0.065206
      dxy     :     0.062415
      f0      :     0.004727  f :     0.040427
      f+1     :     0.006931
      f-1     :     0.010158
      f+2     :     0.003351
      f-2     :     0.004728
      f+3     :     0.006283
      f-3     :     0.004249

 10 F s       :     3.915827  s :     3.915827
      pz      :     1.890009  p :     5.243720
      px      :     1.904431
      py      :     1.449281
      dz2     :     0.002278  d :     0.016215
      dxz     :     0.000161
      dyz     :     0.003391
      dx2y2   :     0.006428
      dxy     :     0.003957
      f0      :     0.000059  f :     0.000702
      f+1     :     0.000013
      f-1     :     0.000140
      f+2     :     0.000102
      f-2     :     0.000009
      f+3     :     0.000158
      f-3     :     0.000222

 11 F s       :     3.913571  s :     3.913571
      pz      :     1.459654  p :     5.241379
      px      :     1.907159
      py      :     1.874566
      dz2     :     0.008155  d :     0.016383
      dxz     :     0.003760
      dyz     :     0.003863
      dx2y2   :     0.000324
      dxy     :     0.000281
      f0      :     0.000321  f :     0.000722
      f+1     :     0.000157
      f-1     :     0.000196
      f+2     :     0.000026
      f-2     :     0.000019
      f+3     :     0.000001
      f-3     :     0.000002

 12 F s       :     3.917112  s :     3.917112
      pz      :     1.859632  p :     5.235923
      px      :     1.906176
      py      :     1.470115
      dz2     :     0.002179  d :     0.016515
      dxz     :     0.000349
      dyz     :     0.004315
      dx2y2   :     0.005954
      dxy     :     0.003718
      f0      :     0.000073  f :     0.000709
      f+1     :     0.000007
      f-1     :     0.000126
      f+2     :     0.000149
      f-2     :     0.000028
      f+3     :     0.000135
      f-3     :     0.000190

 13 F s       :     3.917306  s :     3.917306
      pz      :     1.442958  p :     5.237052
      px      :     1.902407
      py      :     1.891687
      dz2     :     0.008768  d :     0.016497
      dxz     :     0.004032
      dyz     :     0.003347
      dx2y2   :     0.000206
      dxy     :     0.000143
      f0      :     0.000365  f :     0.000708
      f+1     :     0.000173
      f-1     :     0.000152
      f+2     :     0.000010
      f-2     :     0.000006
      f+3     :     0.000001
      f-3     :     0.000001

 14 F s       :     3.916896  s :     3.916896
      pz      :     1.764929  p :     5.233354
      px      :     1.899579
      py      :     1.568846
      dz2     :     0.002250  d :     0.016619
      dxz     :     0.001211
      dyz     :     0.006051
      dx2y2   :     0.004015
      dxy     :     0.003092
      f0      :     0.000081  f :     0.000714
      f+1     :     0.000007
      f-1     :     0.000146
      f+2     :     0.000200
      f-2     :     0.000093
      f+3     :     0.000088
      f-3     :     0.000098

 15 F s       :     3.916602  s :     3.916602
      pz      :     1.467897  p :     5.231742
      px      :     1.905260
      py      :     1.858585
      dz2     :     0.007977  d :     0.016693
      dxz     :     0.003682
      dyz     :     0.004225
      dx2y2   :     0.000363
      dxy     :     0.000446
      f0      :     0.000311  f :     0.000718
      f+1     :     0.000138
      f-1     :     0.000207
      f+2     :     0.000024
      f-2     :     0.000034
      f+3     :     0.000002
      f-3     :     0.000001

 16 F s       :     3.916998  s :     3.916998
      pz      :     1.657784  p :     5.231543
      px      :     1.905252
      py      :     1.668507
      dz2     :     0.003374  d :     0.016675
      dxz     :     0.002015
      dyz     :     0.006761
      dx2y2   :     0.002421
      dxy     :     0.002104
      f0      :     0.000088  f :     0.000715
      f+1     :     0.000025
      f-1     :     0.000234
      f+2     :     0.000180
      f-2     :     0.000107
      f+3     :     0.000040
      f-3     :     0.000040

 17 F s       :     3.917017  s :     3.917017
      pz      :     1.544799  p :     5.232017
      px      :     1.900134
      py      :     1.787084
      dz2     :     0.005713  d :     0.016659
      dxz     :     0.003134
      dyz     :     0.005646
      dx2y2   :     0.001010
      dxy     :     0.001156
      f0      :     0.000171  f :     0.000715
      f+1     :     0.000089
      f-1     :     0.000263
      f+2     :     0.000085
      f-2     :     0.000087
      f+3     :     0.000010
      f-3     :     0.000009

 18 F s       :     3.917292  s :     3.917292
      pz      :     1.653859  p :     5.231964
      px      :     1.905809
      py      :     1.672296
      dz2     :     0.003419  d :     0.016654
      dxz     :     0.002037
      dyz     :     0.006757
      dx2y2   :     0.002371
      dxy     :     0.002070
      f0      :     0.000089  f :     0.000714
      f+1     :     0.000026
      f-1     :     0.000237
      f+2     :     0.000178
      f-2     :     0.000107
      f+3     :     0.000039
      f-3     :     0.000038

 19 F s       :     3.917009  s :     3.917009
      pz      :     1.546945  p :     5.231278
      px      :     1.901338
      py      :     1.782995
      dz2     :     0.005663  d :     0.016679
      dxz     :     0.003077
      dyz     :     0.005728
      dx2y2   :     0.001047
      dxy     :     0.001163
      f0      :     0.000169  f :     0.000716
      f+1     :     0.000085
      f-1     :     0.000266
      f+2     :     0.000089
      f-2     :     0.000087
      f+3     :     0.000011
      f-3     :     0.000009

 20 F s       :     3.916393  s :     3.916393
      pz      :     1.756643  p :     5.231278
      px      :     1.897871
      py      :     1.576763
      dz2     :     0.002274  d :     0.016539
      dxz     :     0.001229
      dyz     :     0.006148
      dx2y2   :     0.003884
      dxy     :     0.003005
      f0      :     0.000080  f :     0.000712
      f+1     :     0.000007
      f-1     :     0.000151
      f+2     :     0.000203
      f-2     :     0.000094
      f+3     :     0.000084
      f-3     :     0.000092

 21 F s       :     3.914102  s :     3.914102
      pz      :     1.472157  p :     5.229891
      px      :     1.903173
      py      :     1.854561
      dz2     :     0.007874  d :     0.016706
      dxz     :     0.003634
      dyz     :     0.004327
      dx2y2   :     0.000383
      dxy     :     0.000489
      f0      :     0.000304  f :     0.000727
      f+1     :     0.000139
      f-1     :     0.000214
      f+2     :     0.000028
      f-2     :     0.000039
      f+3     :     0.000002
      f-3     :     0.000001

 22 F s       :     3.912440  s :     3.912440
      pz      :     1.805149  p :     5.224766
      px      :     1.889410
      py      :     1.530208
      dz2     :     0.002186  d :     0.016658
      dxz     :     0.000785
      dyz     :     0.005551
      dx2y2   :     0.004937
      dxy     :     0.003200
      f0      :     0.000087  f :     0.000757
      f+1     :     0.000005
      f-1     :     0.000136
      f+2     :     0.000201
      f-2     :     0.000068
      f+3     :     0.000113
      f-3     :     0.000148

 23 F s       :     3.911451  s :     3.911451
      pz      :     1.851488  p :     5.223015
      px      :     1.635988
      py      :     1.735540
      dz2     :     0.002230  d :     0.016714
      dxz     :     0.002947
      dyz     :     0.002112
      dx2y2   :     0.003563
      dxy     :     0.005862
      f0      :     0.000081  f :     0.000767
      f+1     :     0.000084
      f-1     :     0.000059
      f+2     :     0.000041
      f-2     :     0.000164
      f+3     :     0.000154
      f-3     :     0.000184

 24 F s       :     3.911080  s :     3.911080
      pz      :     1.450061  p :     5.223351
      px      :     1.890326
      py      :     1.882964
      dz2     :     0.008976  d :     0.016823
      dxz     :     0.003765
      dyz     :     0.003638
      dx2y2   :     0.000200
      dxy     :     0.000244
      f0      :     0.000389  f :     0.000771
      f+1     :     0.000168
      f-1     :     0.000181
      f+2     :     0.000013
      f-2     :     0.000017
      f+3     :     0.000001
      f-3     :     0.000001

 25 H s       :     0.575827  s :     0.575827
      pz      :     0.012726  p :     0.043142
      px      :     0.018858
      py      :     0.011558



                     *******************************
                     * LOEWDIN POPULATION ANALYSIS *
                     *******************************

----------------------
LOEWDIN ATOMIC CHARGES
----------------------
   0 C :   -0.489187
   1 O :    0.155258
   2 O :    0.136485
   3 C :   -0.449324
   4 C :   -0.452459
   5 C :   -0.455400
   6 C :   -0.455462
   7 C :   -0.457056
   8 C :   -0.463356
   9 C :   -0.663948
  10 F :    0.209802
  11 F :    0.215506
  12 F :    0.224865
  13 F :    0.222248
  14 F :    0.225208
  15 F :    0.227158
  16 F :    0.227139
  17 F :    0.226699
  18 F :    0.226554
  19 F :    0.226718
  20 F :    0.224143
  21 F :    0.225861
  22 F :    0.225627
  23 F :    0.226143
  24 F :    0.227790
  25 H :    0.232986

-------------------------------
LOEWDIN REDUCED ORBITAL CHARGES
-------------------------------
  0 C s       :     2.760181  s :     2.760181
      pz      :     0.842297  p :     2.653907
      px      :     0.895504
      py      :     0.916105
      dz2     :     0.181637  d :     0.926323
      dxz     :     0.122029
      dyz     :     0.231493
      dx2y2   :     0.195777
      dxy     :     0.195386
      f0      :     0.020415  f :     0.148776
      f+1     :     0.017561
      f-1     :     0.021779
      f+2     :     0.026038
      f-2     :     0.018314
      f+3     :     0.017911
      f-3     :     0.026757

  1 O s       :     3.318726  s :     3.318726
      pz      :     1.445382  p :     4.451036
      px      :     1.418037
      py      :     1.587618
      dz2     :     0.012198  d :     0.069787
      dxz     :     0.014745
      dyz     :     0.020568
      dx2y2   :     0.011631
      dxy     :     0.010644
      f0      :     0.000757  f :     0.005192
      f+1     :     0.000498
      f-1     :     0.001072
      f+2     :     0.000833
      f-2     :     0.001095
      f+3     :     0.000192
      f-3     :     0.000744

  2 O s       :     3.397810  s :     3.397810
      pz      :     1.470456  p :     4.390695
      px      :     1.482906
      py      :     1.437333
      dz2     :     0.009518  d :     0.068487
      dxz     :     0.005749
      dyz     :     0.016502
      dx2y2   :     0.016259
      dxy     :     0.020458
      f0      :     0.000640  f :     0.006523
      f+1     :     0.000326
      f-1     :     0.001004
      f+2     :     0.000814
      f-2     :     0.001079
      f+3     :     0.001457
      f-3     :     0.001202

  3 C s       :     2.758472  s :     2.758472
      pz      :     0.803218  p :     2.601475
      px      :     1.014771
      py      :     0.783485
      dz2     :     0.207985  d :     0.910916
      dxz     :     0.166117
      dyz     :     0.197918
      dx2y2   :     0.174924
      dxy     :     0.163973
      f0      :     0.036933  f :     0.178462
      f+1     :     0.026021
      f-1     :     0.036251
      f+2     :     0.020355
      f-2     :     0.012256
      f+3     :     0.026116
      f-3     :     0.020530

  4 C s       :     2.761443  s :     2.761443
      pz      :     0.780457  p :     2.596166
      px      :     1.007091
      py      :     0.808618
      dz2     :     0.228039  d :     0.916450
      dxz     :     0.154611
      dyz     :     0.198174
      dx2y2   :     0.164729
      dxy     :     0.170897
      f0      :     0.034564  f :     0.178400
      f+1     :     0.028418
      f-1     :     0.040676
      f+2     :     0.019895
      f-2     :     0.012358
      f+3     :     0.024049
      f-3     :     0.018440

  5 C s       :     2.760522  s :     2.760522
      pz      :     0.753898  p :     2.598467
      px      :     1.003184
      py      :     0.841385
      dz2     :     0.240792  d :     0.917263
      dxz     :     0.145393
      dyz     :     0.216821
      dx2y2   :     0.129402
      dxy     :     0.184854
      f0      :     0.031791  f :     0.179149
      f+1     :     0.027869
      f-1     :     0.043480
      f+2     :     0.024419
      f-2     :     0.020481
      f+3     :     0.016423
      f-3     :     0.014687

  6 C s       :     2.760579  s :     2.760579
      pz      :     0.740894  p :     2.598880
      px      :     1.003676
      py      :     0.854310
      dz2     :     0.241181  d :     0.916954
      dxz     :     0.137827
      dyz     :     0.233700
      dx2y2   :     0.112921
      dxy     :     0.191326
      f0      :     0.032739  f :     0.179049
      f+1     :     0.025227
      f-1     :     0.039527
      f+2     :     0.030364
      f-2     :     0.027497
      f+3     :     0.012104
      f-3     :     0.011591

  7 C s       :     2.760591  s :     2.760591
      pz      :     0.739743  p :     2.599619
      px      :     1.005995
      py      :     0.853881
      dz2     :     0.241939  d :     0.917837
      dxz     :     0.137107
      dyz     :     0.234155
      dx2y2   :     0.112944
      dxy     :     0.191692
      f0      :     0.032760  f :     0.179009
      f+1     :     0.025296
      f-1     :     0.039456
      f+2     :     0.030464
      f-2     :     0.027667
      f+3     :     0.012001
      f-3     :     0.011366

  8 C s       :     2.764490  s :     2.764490
      pz      :     0.753503  p :     2.603986
      px      :     1.009934
      py      :     0.840549
      dz2     :     0.240605  d :     0.915900
      dxz     :     0.145037
      dyz     :     0.218058
      dx2y2   :     0.123961
      dxy     :     0.188239
      f0      :     0.031914  f :     0.178980
      f+1     :     0.027746
      f-1     :     0.043118
      f+2     :     0.025173
      f-2     :     0.020880
      f+3     :     0.015651
      f-3     :     0.014500

  9 C s       :     2.758562  s :     2.758562
      pz      :     0.789770  p :     2.510356
      px      :     0.913300
      py      :     0.807287
      dz2     :     0.273570  d :     1.138549
      dxz     :     0.183450
      dyz     :     0.241894
      dx2y2   :     0.213420
      dxy     :     0.226215
      f0      :     0.038168  f :     0.256481
      f+1     :     0.039325
      f-1     :     0.053543
      f+2     :     0.028545
      f-2     :     0.032751
      f+3     :     0.034885
      f-3     :     0.029264

 10 F s       :     3.595999  s :     3.595999
      pz      :     1.815077  p :     5.162037
      px      :     1.825304
      py      :     1.521656
      dz2     :     0.004279  d :     0.030628
      dxz     :     0.000245
      dyz     :     0.005506
      dx2y2   :     0.012379
      dxy     :     0.008220
      f0      :     0.000124  f :     0.001534
      f+1     :     0.000032
      f-1     :     0.000284
      f+2     :     0.000217
      f-2     :     0.000016
      f+3     :     0.000426
      f-3     :     0.000435

 11 F s       :     3.592847  s :     3.592847
      pz      :     1.526955  p :     5.159200
      px      :     1.827438
      py      :     1.804807
      dz2     :     0.015473  d :     0.030885
      dxz     :     0.007935
      dyz     :     0.006376
      dx2y2   :     0.000562
      dxy     :     0.000540
      f0      :     0.000625  f :     0.001563
      f+1     :     0.000434
      f-1     :     0.000390
      f+2     :     0.000067
      f-2     :     0.000043
      f+3     :     0.000002
      f-3     :     0.000003

 12 F s       :     3.591679  s :     3.591679
      pz      :     1.795125  p :     5.150803
      px      :     1.819776
      py      :     1.535901
      dz2     :     0.004080  d :     0.031096
      dxz     :     0.000669
      dyz     :     0.007263
      dx2y2   :     0.011452
      dxy     :     0.007633
      f0      :     0.000136  f :     0.001557
      f+1     :     0.000017
      f-1     :     0.000290
      f+2     :     0.000296
      f-2     :     0.000068
      f+3     :     0.000381
      f-3     :     0.000369

 13 F s       :     3.592580  s :     3.592580
      pz      :     1.519971  p :     5.152605
      px      :     1.818539
      py      :     1.814096
      dz2     :     0.016871  d :     0.031015
      dxz     :     0.008236
      dyz     :     0.005419
      dx2y2   :     0.000287
      dxy     :     0.000202
      f0      :     0.000714  f :     0.001552
      f+1     :     0.000463
      f-1     :     0.000339
      f+2     :     0.000021
      f-2     :     0.000012
      f+3     :     0.000002
      f-3     :     0.000002

 14 F s       :     3.591324  s :     3.591324
      pz      :     1.735247  p :     5.150636
      px      :     1.817021
      py      :     1.598369
      dz2     :     0.003862  d :     0.031265
      dxz     :     0.002499
      dyz     :     0.011115
      dx2y2   :     0.007647
      dxy     :     0.006141
      f0      :     0.000165  f :     0.001567
      f+1     :     0.000013
      f-1     :     0.000323
      f+2     :     0.000393
      f-2     :     0.000235
      f+3     :     0.000238
      f-3     :     0.000199

 15 F s       :     3.590590  s :     3.590590
      pz      :     1.539376  p :     5.149303
      px      :     1.821017
      py      :     1.788910
      dz2     :     0.014925  d :     0.031374
      dxz     :     0.007567
      dyz     :     0.007636
      dx2y2   :     0.000459
      dxy     :     0.000787
      f0      :     0.000615  f :     0.001575
      f+1     :     0.000371
      f-1     :     0.000447
      f+2     :     0.000038
      f-2     :     0.000096
      f+3     :     0.000005
      f-3     :     0.000003

 16 F s       :     3.590837  s :     3.590837
      pz      :     1.665465  p :     5.149103
      px      :     1.820715
      py      :     1.662922
      dz2     :     0.005686  d :     0.031351
      dxz     :     0.004174
      dyz     :     0.012968
      dx2y2   :     0.004353
      dxy     :     0.004169
      f0      :     0.000214  f :     0.001571
      f+1     :     0.000063
      f-1     :     0.000456
      f+2     :     0.000356
      f-2     :     0.000291
      f+3     :     0.000116
      f-3     :     0.000075

 17 F s       :     3.590908  s :     3.590908
      pz      :     1.591241  p :     5.149489
      px      :     1.817210
      py      :     1.741038
      dz2     :     0.010220  d :     0.031334
      dxz     :     0.006454
      dyz     :     0.010833
      dx2y2   :     0.001663
      dxy     :     0.002164
      f0      :     0.000376  f :     0.001570
      f+1     :     0.000225
      f-1     :     0.000517
      f+2     :     0.000174
      f-2     :     0.000232
      f+3     :     0.000028
      f-3     :     0.000018

 18 F s       :     3.591303  s :     3.591303
      pz      :     1.663154  p :     5.149288
      px      :     1.820789
      py      :     1.665345
      dz2     :     0.005772  d :     0.031287
      dxz     :     0.004217
      dyz     :     0.012953
      dx2y2   :     0.004241
      dxy     :     0.004104
      f0      :     0.000217  f :     0.001568
      f+1     :     0.000065
      f-1     :     0.000459
      f+2     :     0.000352
      f-2     :     0.000291
      f+3     :     0.000112
      f-3     :     0.000072

 19 F s       :     3.591310  s :     3.591310
      pz      :     1.592401  p :     5.149060
      px      :     1.818380
      py      :     1.738279
      dz2     :     0.010105  d :     0.031341
      dxz     :     0.006360
      dyz     :     0.010979
      dx2y2   :     0.001706
      dxy     :     0.002190
      f0      :     0.000372  f :     0.001571
      f+1     :     0.000217
      f-1     :     0.000522
      f+2     :     0.000179
      f-2     :     0.000234
      f+3     :     0.000030
      f-3     :     0.000018

 20 F s       :     3.592808  s :     3.592808
      pz      :     1.730108  p :     5.150370
      px      :     1.817534
      py      :     1.602728
      dz2     :     0.003870  d :     0.031114
      dxz     :     0.002493
      dyz     :     0.011332
      dx2y2   :     0.007338
      dxy     :     0.006081
      f0      :     0.000166  f :     0.001565
      f+1     :     0.000014
      f-1     :     0.000329
      f+2     :     0.000396
      f-2     :     0.000242
      f+3     :     0.000233
      f-3     :     0.000184

 21 F s       :     3.591517  s :     3.591517
      pz      :     1.541532  p :     5.149609
      px      :     1.822043
      py      :     1.786034
      dz2     :     0.014634  d :     0.031421
[...]
 15:    133.60   0.000011    0.06  0.000027  (-0.002105  0.004318  0.001926)
 16:    159.77   0.000116    0.58  0.000226  ( 0.013213  0.001750  0.006931)
 17:    186.34   0.003173   16.03  0.005314  ( 0.003129 -0.005688 -0.072607)
 18:    202.42   0.000166    0.84  0.000256  (-0.014090  0.006977 -0.002931)
 19:    204.06   0.000045    0.23  0.000069  ( 0.007123  0.001103  0.004103)
 20:    208.56   0.000395    2.00  0.000591  (-0.000766  0.023808 -0.004834)
 21:    231.44   0.000131    0.66  0.000177  (-0.003542 -0.003229  0.012417)
 22:    242.23   0.000017    0.08  0.000021  (-0.004291 -0.001160 -0.001310)
 23:    254.27   0.000191    0.97  0.000235  (-0.014177 -0.003165  0.004896)
 24:    259.29   0.000015    0.08  0.000018  ( 0.001280 -0.003762 -0.001458)
 25:    264.93   0.000303    1.53  0.000356  ( 0.015818  0.009146 -0.004742)
 26:    285.83   0.001208    6.11  0.001319  (-0.033664  0.013312  0.002953)
 27:    304.35   0.000047    0.24  0.000048  (-0.001949 -0.000210  0.006675)
 28:    308.31   0.000123    0.62  0.000124  (-0.008948  0.006541 -0.001199)
 29:    332.79   0.000088    0.44  0.000083  ( 0.007559  0.000534  0.005012)
 30:    346.94   0.000328    1.66  0.000295  ( 0.006505  0.007301  0.014129)
 31:    357.64   0.000100    0.51  0.000087  ( 0.002050 -0.002648 -0.008733)
 32:    362.92   0.000021    0.11  0.000018  (-0.002768 -0.002602 -0.001942)
 33:    367.33   0.000129    0.65  0.000110  (-0.010377  0.000991 -0.000923)
 34:    374.49   0.000277    1.40  0.000231  ( 0.014632  0.004065  0.000602)
 35:    376.42   0.000648    3.28  0.000537  (-0.017726 -0.014236 -0.004541)
 36:    408.30   0.000269    1.36  0.000205  (-0.003897  0.013652 -0.001961)
 37:    462.93   0.000636    3.21  0.000429  ( 0.012404 -0.004278 -0.016012)
 38:    511.91   0.010445   52.78  0.006367  ( 0.075934 -0.011801 -0.021497)
 39:    515.52   0.002276   11.50  0.001378  (-0.034813 -0.004600  0.012037)
 40:    528.31   0.003136   15.85  0.001853  ( 0.023210 -0.035945  0.004676)
 41:    553.19   0.010519   53.16  0.005934  (-0.069202 -0.028342  0.018487)
 42:    559.66   0.004756   24.03  0.002652  (-0.002919  0.047278 -0.020203)
 43:    579.85   0.004846   24.49  0.002608  ( 0.038663 -0.005926 -0.032833)
 44:    585.00   0.017736   89.63  0.009461  ( 0.075982 -0.026414  0.054685)
 45:    596.43   0.003168   16.01  0.001658  (-0.038519  0.002055  0.013025)
 46:    614.23   0.005302   26.79  0.002694  (-0.006105 -0.027919  0.043324)
 47:    633.62   0.063519  321.00  0.031284  (-0.165659  0.055596 -0.027381)
 48:    649.11   0.003558   17.98  0.001710  (-0.013012  0.009703  0.038039)
 49:    679.76   0.004502   22.75  0.002067  (-0.034517 -0.025898  0.014300)
 50:    704.12   0.007195   36.36  0.003189  (-0.049161 -0.005493 -0.027235)
 51:    720.76   0.001736    8.77  0.000751  (-0.025889 -0.001034  0.008954)
 52:    751.91   0.001828    9.24  0.000759  ( 0.013188  0.009282 -0.022331)
 53:    773.62   0.007112   35.94  0.002869  (-0.027182 -0.014518  0.043809)
 54:    870.81   0.001942    9.82  0.000696  (-0.021048  0.015882 -0.000880)
 55:   1004.41   0.014670   74.13  0.004558  (-0.066735  0.009104 -0.004619)
 56:   1096.10   0.010265   51.88  0.002923  (-0.026775 -0.046358 -0.007523)
 57:   1119.62   0.008300   41.94  0.002313  ( 0.019276  0.002658  0.043985)
 58:   1129.63   0.052509  265.36  0.014506  (-0.002457 -0.107250 -0.054745)
 59:   1133.11   0.073345  370.66  0.020200  (-0.036994 -0.093144  0.100773)
 60:   1141.39   0.006350   32.09  0.001736  ( 0.006490  0.040812 -0.005342)
 61:   1145.62   0.079065  399.56  0.021537  ( 0.001501 -0.145714 -0.017380)
 62:   1148.66   0.015746   79.58  0.004278  ( 0.010687 -0.063548 -0.011196)
 63:   1151.51   0.070199  354.76  0.019024  ( 0.008313  0.066032  0.120809)
 64:   1159.58   0.182088  920.20  0.049003  (-0.002752 -0.003955  0.221314)
 65:   1161.97   0.106934  540.40  0.028719  (-0.035848  0.154775  0.058976)
 66:   1173.78   0.063053  318.64  0.016763  (-0.007356 -0.025047  0.126814)
 67:   1183.23   0.018079   91.36  0.004768  (-0.034362 -0.014397  0.058138)
 68:   1190.33   0.026573  134.29  0.006966  ( 0.012337 -0.022189  0.079510)
 69:   1201.60   0.011153   56.36  0.002897  (-0.031176  0.037687  0.022458)
 70:   1222.38   0.007044   35.60  0.001798  (-0.034708 -0.000550  0.024361)
 71:   1253.27   0.001776    8.97  0.000442  ( 0.002132 -0.017807 -0.010980)
 72:   1268.19   0.002035   10.28  0.000501  ( 0.014904 -0.012615 -0.010929)
 73:   1292.08   0.011601   58.62  0.002802  (-0.047135  0.018445 -0.015486)
 74:   1346.83   0.016821   85.01  0.003898  (-0.062176 -0.002665  0.004960)
 75:   1398.29   0.015377   77.71  0.003432  ( 0.040716 -0.029804 -0.029762)
 76:   1823.35   0.093891  474.49  0.016069  (-0.041602 -0.100736 -0.064737)
 77:   3612.25   0.051447  259.99  0.004444  (-0.052641 -0.004704  0.040636)

* The epsilon (eps) is given for a Dirac delta lineshape.
** The dipole moment derivative (T) already includes vibrational overlap.

The first frequency considered to be a vibration is 6
The total number of vibrations considered is 72


--------------------------
THERMOCHEMISTRY AT 298.15K
--------------------------

Temperature         ...   298.15 K
Pressure            ...     1.00 atm
Total Mass          ...   414.06 AMU
Quasi RRHO          ...     True
Cut-Off Frequency   ...     1.00 cm^-1

Throughout the following assumptions are being made:
  (1) The electronic state is orbitally nondegenerate
  (2) There are no thermally accessible electronically excited states
  (3) Hindered rotations indicated by low frequency modes are not
      treated as such but are treated as vibrations and this may
      cause some error
  (4) All equations used are the standard statistical mechanics
      equations for an ideal gas
  (5) All vibrations are strictly harmonic

freq.      29.05  E(vib)   ...       0.55 
freq.      30.65  E(vib)   ...       0.55 
freq.      34.43  E(vib)   ...       0.54 
freq.      45.85  E(vib)   ...       0.53 
freq.      54.32  E(vib)   ...       0.52 
freq.      60.16  E(vib)   ...       0.51 
freq.      61.92  E(vib)   ...       0.51 
freq.      72.96  E(vib)   ...       0.49 
freq.     116.42  E(vib)   ...       0.44 
freq.     133.60  E(vib)   ...       0.42 
freq.     159.77  E(vib)   ...       0.39 
freq.     186.34  E(vib)   ...       0.37 
freq.     202.42  E(vib)   ...       0.35 
freq.     204.06  E(vib)   ...       0.35 
freq.     208.56  E(vib)   ...       0.34 
freq.     231.44  E(vib)   ...       0.32 
freq.     242.23  E(vib)   ...       0.31 
freq.     254.27  E(vib)   ...       0.30 
freq.     259.29  E(vib)   ...       0.30 
freq.     264.93  E(vib)   ...       0.29 
freq.     285.83  E(vib)   ...       0.27 
freq.     304.35  E(vib)   ...       0.26 
freq.     308.31  E(vib)   ...       0.26 
freq.     332.79  E(vib)   ...       0.24 
freq.     346.94  E(vib)   ...       0.23 
freq.     357.64  E(vib)   ...       0.22 
freq.     362.92  E(vib)   ...       0.22 
freq.     367.33  E(vib)   ...       0.21 
freq.     374.49  E(vib)   ...       0.21 
freq.     376.42  E(vib)   ...       0.21 
freq.     408.30  E(vib)   ...       0.19 
freq.     462.93  E(vib)   ...       0.16 
freq.     511.91  E(vib)   ...       0.14 
freq.     515.52  E(vib)   ...       0.13 
freq.     528.31  E(vib)   ...       0.13 
freq.     553.19  E(vib)   ...       0.12 
freq.     559.66  E(vib)   ...       0.12 
freq.     579.85  E(vib)   ...       0.11 
freq.     585.00  E(vib)   ...       0.11 
freq.     596.43  E(vib)   ...       0.10 
freq.     614.23  E(vib)   ...       0.10 
freq.     633.62  E(vib)   ...       0.09 
freq.     649.11  E(vib)   ...       0.08 
freq.     679.76  E(vib)   ...       0.08 
freq.     704.12  E(vib)   ...       0.07 
freq.     720.76  E(vib)   ...       0.07 
freq.     751.91  E(vib)   ...       0.06 
freq.     773.62  E(vib)   ...       0.05 
freq.     870.81  E(vib)   ...       0.04 
freq.    1004.41  E(vib)   ...       0.02 
freq.    1096.10  E(vib)   ...       0.02 
freq.    1119.62  E(vib)   ...       0.01 
freq.    1129.63  E(vib)   ...       0.01 
freq.    1133.11  E(vib)   ...       0.01 
freq.    1141.39  E(vib)   ...       0.01 
freq.    1145.62  E(vib)   ...       0.01 
freq.    1148.66  E(vib)   ...       0.01 
freq.    1151.51  E(vib)   ...       0.01 
freq.    1159.58  E(vib)   ...       0.01 
freq.    1161.97  E(vib)   ...       0.01 
freq.    1173.78  E(vib)   ...       0.01 
freq.    1183.23  E(vib)   ...       0.01 
freq.    1190.33  E(vib)   ...       0.01 
freq.    1201.60  E(vib)   ...       0.01 
freq.    1222.38  E(vib)   ...       0.01 
freq.    1253.27  E(vib)   ...       0.01 
freq.    1268.19  E(vib)   ...       0.01 
freq.    1292.08  E(vib)   ...       0.01 
freq.    1346.83  E(vib)   ...       0.01 
freq.    1398.29  E(vib)   ...       0.00 
freq.    1823.35  E(vib)   ...       0.00 
freq.    3612.25  E(vib)   ...       0.00 

------------
INNER ENERGY
------------

The inner energy is: U= E(el) + E(ZPE) + E(vib) + E(rot) + E(trans)
    E(el)   - is the total energy from the electronic structure calculation
              = E(kin-el) + E(nuc-el) + E(el-el) + E(nuc-nuc)
    E(ZPE)  - the the zero temperature vibrational energy from the frequency calculation
    E(vib)  - the the finite temperature correction to E(ZPE) due to population
              of excited vibrational states
    E(rot)  - is the rotational thermal energy
    E(trans)- is the translational thermal energy

Summary of contributions to the inner energy U:
Electronic energy                ...  -1953.64466727 Eh
Zero point energy                ...      0.11009440 Eh      69.09 kcal/mol
Thermal vibrational correction   ...      0.02055706 Eh      12.90 kcal/mol
Thermal rotational correction    ...      0.00141627 Eh       0.89 kcal/mol
Thermal translational correction ...      0.00141627 Eh       0.89 kcal/mol
-----------------------------------------------------------------------
Total thermal energy                  -1953.51118326 Eh


Summary of corrections to the electronic energy:
(perhaps to be used in another calculation)
Total thermal correction                  0.02338961 Eh      14.68 kcal/mol
Non-thermal (ZPE) correction              0.11009440 Eh      69.09 kcal/mol
-----------------------------------------------------------------------
Total correction                          0.13348401 Eh      83.76 kcal/mol


--------
ENTHALPY
--------

The enthalpy is H = U + kB*T
                kB is Boltzmann's constant
Total thermal energy              ...  -1953.51118326 Eh 
Thermal Enthalpy correction       ...      0.00094421 Eh       0.59 kcal/mol
-----------------------------------------------------------------------
Total Enthalpy                    ...  -1953.51023905 Eh


Note: Only C1 symmetry has been detected, increase convergence thresholds 
      if your molecule has a higher symmetry. Symmetry factor of 1.0 is   
      used for the rotational entropy correction. 
 

Note: Rotational entropy computed according to Herzberg 
Infrared and Raman Spectra, Chapter V,1, Van Nostrand Reinhold, 1945 
Point Group:  C1, Symmetry Number:   1  
Rotational constants in cm-1:     0.021264     0.003676     0.003636 

Vibrational entropy computed according to the QRRHO of S. Grimme
Chem.Eur.J. 2012 18 9955 using a reference frequency of 100.0 cm-1


-------
ENTROPY
-------

The entropy contributions are T*S = T*(S(el)+S(vib)+S(rot)+S(trans))
     S(el)   - electronic entropy
     S(vib)  - vibrational entropy
     S(rot)  - rotational entropy
     S(trans)- translational entropy
The entropies will be listed as multiplied by the temperature to get
units of energy

Electronic entropy                ...      0.00000000 Eh      0.00 kcal/mol
Vibrational entropy               ...      0.03663841 Eh     22.99 kcal/mol
Rotational entropy                ...      0.01662682 Eh     10.43 kcal/mol
Translational entropy             ...      0.02088355 Eh     13.10 kcal/mol
-----------------------------------------------------------------------
Final entropy term                ...      0.07414879 Eh     46.53 kcal/mol

In case the symmetry of your molecule has not been determined correctly
or in case you have a reason to use a different symmetry number we print 
out the resulting rotational entropy values for sn=1,12:

 non-linear molecules -----------------------------------
|  sn= 1 | S(rot)=       0.01662682 Eh     10.43 kcal/mol|
|  sn= 2 | S(rot)=       0.01597237 Eh     10.02 kcal/mol|
|  sn= 3 | S(rot)=       0.01558954 Eh      9.78 kcal/mol|
|  sn= 4 | S(rot)=       0.01531791 Eh      9.61 kcal/mol|
|  sn= 5 | S(rot)=       0.01510722 Eh      9.48 kcal/mol|
|  sn= 6 | S(rot)=       0.01493508 Eh      9.37 kcal/mol|
|  sn= 7 | S(rot)=       0.01478953 Eh      9.28 kcal/mol|
|  sn= 8 | S(rot)=       0.01466346 Eh      9.20 kcal/mol|
|  sn= 9 | S(rot)=       0.01455225 Eh      9.13 kcal/mol|
|  sn=10 | S(rot)=       0.01445277 Eh      9.07 kcal/mol|
|  sn=11 | S(rot)=       0.01436278 Eh      9.01 kcal/mol|
|  sn=12 | S(rot)=       0.01428062 Eh      8.96 kcal/mol|
 linear molecules ---------------------------------------
|  Dinfh | S(rot)=       0.01062910 Eh      6.67 kcal/mol|
|  Cinfv | S(rot)=       0.01128355 Eh      7.08 kcal/mol|
 --------------------------------------------------------


-------------------
GIBBS FREE ENERGY
-------------------

The Gibbs free energy is G = H - T*S

Total enthalpy                    ...  -1953.51023905 Eh 
Total entropy correction          ...     -0.07414879 Eh    -46.53 kcal/mol
-----------------------------------------------------------------------
Final Gibbs free energy         ...  -1953.58438784 Eh

For completeness - the Gibbs free energy minus the electronic energy
G-E(el)                           ...      0.06027943 Eh     37.83 kcal/mol


Maximum memory used throughout the entire PROP-calculation: 337.5 MB

--------------------------------
SUGGESTED CITATIONS FOR THIS RUN
--------------------------------

Below you find a list of papers that are relevant to this ORCA run
We neither can nor want to force you to cite these papers, but we appreciate if you do
You receive ORCA, which is the product of decades of hard work by many enthusiastic individuals, for free
The only thing we kindly ask in return is that you cite our papers,
We deeply appreciate it, if you show your appreciation for ORCA by not just citing the generic ORCA reference.

Please note that relegating all ORCA citations to the supporting information does *not* help us.
SI sections are not indexed - citations you put there will not count into any citation statistics
But we need these citations in order to attract the funding resources that allow us to do what we are doing

Therefore, if you are a happy ORCA user, please consider citing a few of the papers listed below in the main body of your paper

In addition to the list printed below, the program has created the file rf_mecn_freq_B3L_P_A.bibtex that contains the list in bibtex format
You can import this file easily into all common literature databanks and citation aid programs


List of essential papers. We consider these as the minimum necessary citations

  1. Neese,F.
     Software update: the ORCA program system, version 5.0
     WIRES Comput. Molec. Sci., 2022 12(1)e1606
     doi.org/10.1002/wcms.1606

List of papers to cite with high priority. The work reported in these papers was absolutely
necessary for this run to complete.
Our perspective: the developers of density functionals and basis sets usually get cited in chemistry papers
Good! But without the algorithms to do something with them, the functionals or basis sets would not do anything.
Hence, in our opinion, the algorithm design and method developments papers are equally worthy of getting cited

  1. Neese,F.
     An improvement of the resolution of the identity approximation for the formation of the Coulomb matrix
     J. Comp. Chem., 2003 24(14)1740-1747
     doi.org/10.1002/jcc.10318
  2. Neese,F.; Wennmohs,F.; Hansen,A.; Becker,U.
     Efficient, approximate and parallel Hartree-Fock and hybrid DFT calculations. A 'chain-of-spheres' algorithm for the Hartree-Fock exchange
     Chem. Phys., 2009 356(1-3)98-109
     doi.org/10.1016/j.chemphys.2008.10.036
  3. Bykov,D.; Petrenko,T.; Izsak,R.; Kossmann,S.; Becker,U.; Valeev,E.; Neese,F.
     Efficient implementation of the analytic second derivatives of Hartree-Fock and hybrid DFT energies: a detailed analysis of different approximations
     Molec. Phys., 2015 113 1961-1977
     doi.org/10.1080/00268976.2015.1025114
  4. Garcia-Rates,M.; Neese,F.
     Efficient implementation of the analytical second derivatives of hartree-fock and hybrid DFT energies within the framework of the conductor-like polarizable continuum model
     J. Comput. Chem., 2019 40 1816-1828
     doi.org/10.1002/jcc.25833
  5. Garcia-Rates,M.; Neese,F.
     Effect of the Solute Cavity on the Solvation Energy and its Derivatives within the Framework of the Gaussian Charge Scheme
     J. Comput. Chem., 2020 41 922-939
     doi.org/10.1002/jcc.26139
  6. Helmich-Paris,B.; de Souza,B.; Neese,F.; Izsák,R.
     An improved chain of spheres for exchange algorithm
     J. Chem. Phys., 2021 155 104109
     doi.org/doi: 10.1063/5.0058766.
  7. Neese,F.
     The SHARK Integral Generation and Digestion System
     J. Comp. Chem., 2022  1-16
     doi.org/10.1002/jcc.26942
  8. Grimme,S.; Antony,J.; Ehrlich,S.; Krieg,H.
     A consistent and accurate ab initio parametrization of density functional dispersion correction (DFT-D) for the 94 elements H-Pu
     J. Chem. Phys., 2010 132 154104
     doi.org/10.1063/1.3382344
  9. Grimme,S.; Ehrlich,S.; Goerigk,L.
     Effect of the damping function in dispersion corrected density functional theory
     J. Comput. Chem., 2011 32(7)1456-1465
     doi.org/10.1002/jcc.21759

List of suggested additional citations. These are papers that are important in the 'surrounding' of 
of this run, or papers that preceded the highly important papers. If you like your results we are grateful for a citation.

  1. Izsak,R.; Neese,F.
     An overlap fitted chain of spheres exchange method
     J. Chem. Phys., 2011 135 144105
     doi.org/10.1063/1.3646921
  2. Izsak,R.; Hansen,A.; Neese,F.
     The resolution of identity and chain of spheres approximations for the LPNO-CCSD singles Fock term
     Molec. Phys., 2012 110 2413-2417
     doi.org/10.1080/00268976.2012.687466
  3. Neese,F.
     The ORCA program system
     WIRES Comput. Molec. Sci., 2012 2(1)73-78
     doi.org/10.1002/wcms.81
  4. Izsak,R.; Neese,F.; Klopper,W.
     Robust fitting techniques in the chain of spheres approximation to the Fock exchange: The role of the complementary space
     J. Chem. Phys., 2013 139 
     doi.org/10.1063/1.4819264
  5. Neese,F.
     Software update: the ORCA program system, version 4.0
     WIRES Comput. Molec. Sci., 2018 8(1)1-6
     doi.org/10.1002/wcms.1327
  6. Neese,F.; Wennmohs,F.; Becker,U.; Riplinger,C.
     The ORCA quantum chemistry program package
     J. Chem. Phys., 2020 152 Art. No. L224108
     doi.org/10.1063/5.0004608

List of optional additional citations

  1. Neese,F.
     Approximate second-order SCF convergence for spin unrestricted wavefunctions
     Chem. Phys. Lett., 2000 325(1-3)93-98
     doi.org/10.1016/s0009-2614(00)00662-x

Timings for individual modules:

Sum of individual times          ...      888.667 sec (=  14.811 min)
Startup calculation              ...        8.805 sec (=   0.147 min)   1.0 %
SCF iterations                   ...       76.677 sec (=   1.278 min)   8.6 %
Property integrals               ...      177.255 sec (=   2.954 min)  19.9 %
SCF Response                     ...      351.670 sec (=   5.861 min)  39.6 %
Property calculations            ...      274.260 sec (=   4.571 min)  30.9 %
                             ****ORCA TERMINATED NORMALLY****
TOTAL RUN TIME: 0 days 0 hours 14 minutes 49 seconds 699 msec
