
                                 *****************
                                 * O   R   C   A *
                                 *****************

                                            #,                                       
                                            ###                                      
                                            ####                                     
                                            #####                                    
                                            ######                                   
                                           ########,                                 
                                     ,,################,,,,,                         
                               ,,#################################,,                 
                          ,,##########################################,,             
                       ,#########################################, ''#####,          
                    ,#############################################,,   '####,        
                  ,##################################################,,,,####,       
                ,###########''''           ''''###############################       
              ,#####''   ,,,,##########,,,,          '''####'''          '####       
            ,##' ,,,,###########################,,,                        '##       
           ' ,,###''''                  '''############,,,                           
         ,,##''                                '''############,,,,        ,,,,,,###''
      ,#''                                            '''#######################'''  
     '                                                          ''''####''''         
             ,#######,   #######,   ,#######,      ##                                
            ,#'     '#,  ##    ##  ,#'     '#,    #''#        ,####,   ,####,        
            ##       ##  ##   ,#'  ##            #'  '#       #'       #'  '#        
            ##       ##  #######   ##           ,######,      #####,   #    #        
            '#,     ,#'  ##    ##  '#,     ,#' ,#      #,     #,   #   #,  ,#        
             '#######'   ##     ##  '#######'  #'      '#     '####' # '####'        



                #########################################################
                #                        -***-                          #
                #          Department of theory and spectroscopy        #
                #                                                       #
                #                      Frank Neese                      #
                #                                                       #
                #     Directorship, Architecture, Infrastructure        #
                #                    SHARK, DRIVERS                     #
                #        Core code/Algorithms in most modules           #
                #                                                       #
                #        Max Planck Institute fuer Kohlenforschung      #
                #                Kaiser Wilhelm Platz 1                 #
                #                 D-45470 Muelheim/Ruhr                 #
                #                      Germany                          #
                #                                                       #
                #                  All rights reserved                  #
                #                        -***-                          #
                #########################################################


                         Program Version 6.0.1  -  RELEASE   -


 With contributions from (in alphabetic order):
[Max-Planck-Institut fuer Kohlenforschung]                               
  Daniel Aravena         : Magnetic Suceptibility                        
  Michael Atanasov       : Ab Initio Ligand Field Theory (pilot matlab implementation)
  Alexander A. Auer      : GIAO ZORA, VPT2 properties, NMR spectrum      
  Ute Becker             : All parallelization in ORCA, NUMFREQ, NUMCALC 
  Giovanni Bistoni       : ED, misc. LED, open-shell LED, HFLD           
  Martin Brehm           : Molecular dynamics                            
  Dmytro Bykov           : pre 5.0 version of the SCF Hessian            
  Marcos Casanova-Páez   : Triplet and SCS-CIS(D). UHF-(DLPNO)-IP/EA/STEOM-CCSD. UHF-CVS-IP/STEOM-CCSD   
  Vijay G. Chilkuri      : MRCI spin determinant printing, contributions to CSF-ICE 
  Pauline Colinet        : FMM embedding                                 
  Dipayan Datta          : RHF DLPNO-CCSD density                        
  Achintya Kumar Dutta   : EOM-CC, STEOM-CC                              
  Nicolas Foglia         : Exact transition moments, OPA infrastructure, MCD improvements    
  Dmitry Ganyushin       : Spin-Orbit,Spin-Spin,Magnetic field MRCI      
  Miquel Garcia-Rates    : C-PCM and meta-GGA Hessian, CCSD/C-PCM, Gaussian charge scheme 
  Tiago L. C. Gouveia    : GS-ROHF, GS-ROCIS                             
  Yang Guo               : DLPNO-NEVPT2, F12-NEVPT2, CIM, IAO-localization        
  Andreas Hansen         : Spin unrestricted coupled pair/coupled cluster methods 
  Ingolf Harden          : AUTO-CI MPn and infrastructure                
  Benjamin Helmich-Paris : MC-RPA, TRAH-(SCF,CASSCF), AVAS, COSX integrals, SCF dyn. polar. 
  Lee Huntington         : MR-EOM, pCC                                   
  Robert Izsak           : Overlap fitted RIJCOSX, COSX-SCS-MP3, EOM     
  Riya Kayal             : Wick's Theorem for AUTO-CI, AUTO-CI UHF-CCSDT 
  Emily Kempfer          : AUTO-CI, RHF CISDT and CCSDT                  
  Christian Kollmar      : KDIIS, OOCD, Brueckner-CCSD(T), CCSD density, CASPT2, CASPT2-K, improved NEVPT2 
  Axel Koslowski         : Symmetry handling                             
  Simone Kossmann        : meta-GGA functionals, TD-DFT gradient, OOMP2, (MP2 Hessian; deprecated post 5.0) 
  Lucas Lang             : DCDCAS                                        
  Marvin Lechner         : AUTO-CI (C++ implementation), FIC-MRCC        
  Spencer Leger          : CASSCF response                               
  Dagmar Lenk            : GEPOL surface, SMD, ORCA-2-JSON               
  Dimitrios Liakos       : Extrapolation schemes; Compound Job, initial MDCI parallelization 
  Dimitrios Manganas     : Further ROCIS development; embedding schemes. LFT, Crystal Embedding 
  Dimitrios Pantazis     : SARC Basis sets                               
  Anastasios Papadopoulos: AUTO-CI, single reference methods and gradients 
  Taras Petrenko         : pre 6.0 DFT Hessian and TD-DFT gradient, (ASA, deprecated), ECA, 1-Electron XAS/XES, NRVS 
  Peter Pinski           : DLPNO-MP2, DLPNO-MP2 Gradient                 
  Christoph Reimann      : Effective Core Potentials                     
  Marius Retegan         : Local ZFS, SOC                                
  Christoph Riplinger    : Optimizer, TS searches, QM/MM, DLPNO-CCSD(T), (RO)-DLPNO pert. Triples 
  Michael Roemelt        : Original ROCIS implementation                 
  Masaaki Saitow         : Open-shell DLPNO-CCSD energy and density      
  Barbara Sandhoefer     : DKH picture change effects                    
  Kantharuban Sivalingam : CASSCF convergence/infrastructure, NEVPT2 and variants, FIC-MRCI 
  Bernardo de Souza      : ESD, SOC TD-DFT                               
  Georgi L. Stoychev     : AutoAux, RI-MP2 NMR, DLPNO-MP2 response, X2C  
  Van Anh Tran           : RI-MP2 g-tensors                              
  Willem Van den Heuvel  : Paramagnetic NMR                              
  Zikuan Wang            : NOTCH, Electric field optimization            
  Frank Wennmohs         : Technical directorship and infrastructure     
  Hang Xu                : AUTO-CI-Response properties                   
                                                                         
[FACCTs GmbH]                                                            
  Markus Bursch, Miquel Garcia-Rates, Christoph Riplinger, Bernardo de Souza, Georgi L. Stoychev 
                                                                 
  APM, Basis sets (HGBS, AHGBS, def-TZVP (Ac-Lr), def2-XVPD (La-Lu)), CI-OPT, improved COSX, DLPNO-Multilevel,           
  DOCKER, DRACO, updates on ESD, GOAT, IRC, LR-CPCM, MBIS, meta-GGA TD-DFT gradient, ML-optimized integration grids, 
  MM, NACMEs, nearIR, NEB, NEB-TS, NL-DFT gradient (VV10), 2- and 3-layer-ONIOM, interface openCOSMO-RS, QMMM,   
  Crystal-QMMM, SF, symmetry and pop. for TD-DFT, r2SCAN hybrids, SOLVATOR                                   
                                                                         
[Other institutions]                                                     
  V. Asgeirsson          : NEB                                           
  Christoph Bannwarth    : sTDA-DFT, sTD-DFT, PBEh-3c, B97-3c, D3        
  Sebastian Ehlert       : rSCAN, r2SCAN, r2SCAN-3c, D4, dhf basis sets  
  Marvin Friede          : D4 for Fr, Ra, Ac-Lr                          
  Lars Goerigk           : TD-DFT with DH, B97 family of functionals     
  Stefan Grimme          : VdW corrections, initial TS optimization, DFT functionals, gCP, sTDA/sTD-DF 
  Waldemar Hujo          : DFT-NL                                        
  H. Jonsson             : NEB                                           
  Holger Kruse           : gCP                                           
  Marcel Mueller         : wB97X-3c, vDZP basis set                      
  Hagen Neugebauer       : wr2SCAN                                       
  Tobias Risthaus        : range-separated hybrid DFT                    
  Lukas Wittmann         : regularized MP2, r2SCAN double-hybrids, wr2SCAN        
                                                                         
We gratefully acknowledge several colleagues who have allowed us to      
interface, adapt or use parts of their codes:                            
  Ed Valeev, F. Pavosevic, A. Kumar             : LibInt (2-el integral package), F12 methods 
  Garnet Chan, S. Sharma, J. Yang, R. Olivares  : DMRG                   
  Ulf Ekstrom                                   : XCFun DFT Library      
  Mihaly Kallay                                 : mrcc  (arbitrary order and MRCC methods)
  Frank Weinhold                                : gennbo (NPA and NBO analysis)           
  Simon Mueller                                 : openCOSMO-RS                            
  Christopher J. Cramer and Donald G. Truhlar   : smd solvation model                     
  S Lehtola, MJT Oliveira, MAL Marques          : LibXC Library                           
  Liviu Ungur et al                             : ANISO software                          


 Your calculation uses the libint2 library for the computation of 2-el integrals
 For citations please refer to: http://libint.valeyev.net

 Your ORCA version has been built with support for libXC version: 6.2.2
 For citations please refer to: https://libxc.gitlab.io

 This ORCA versions uses:
   CBLAS   interface :  Fast vector & matrix operations
   LAPACKE interface :  Fast linear algebra routines
   SCALAPACK package :  Parallel linear algebra routines
   Shared memory     :  Shared parallel matrices
   BLAS/LAPACK       :  OpenBLAS 0.3.27  USE64BITINT DYNAMIC_ARCH NO_AFFINITY SkylakeX SINGLE_THREADED
        Core in use  :  SkylakeX
   Copyright (c) 2011-2014, The OpenBLAS Project


NOTE: MaxCore=8000 MB was set to SCF,MP2,MDCI,CIPSI,MRCI and CIS
      => If you want to overwrite this, your respective input block should be placed after the MaxCore statement
Your calculation utilizes the atom-pairwise dispersion correction
with the Becke-Johnson damping scheme (D3BJ)


Your calculation utilizes the SMD solvation module
Please cite in your paper:
A.V. Marenich, C.J. Cramer, D.G. Truhlar J. Phys. Chem. B, 113, (2009), 6378 

Warning: RI is on but no J-basis has been assigned. Assigning Def2/J (nothing to worry about!)
================================================================================

----- Orbital basis set information -----
Your calculation utilizes the basis: def2-TZVP
   F. Weigend and R. Ahlrichs, Phys. Chem. Chem. Phys. 7, 3297 (2005).

----- AuxJ basis set information -----
Your calculation utilizes the auxiliary basis: def2/J
   F. Weigend, Phys. Chem. Chem. Phys. 8, 1057 (2006).

================================================================================
                                        WARNINGS
                       Please study these warnings very carefully!
================================================================================


WARNING: your system is open-shell and RHF/RKS was chosen
  ===> : WILL SWITCH to UHF/UKS


WARNING: Geometry Optimization
  ===> : Switching off AutoStart
         For restart on a previous wavefunction, please use MOREAD

================================================================================
                                       INPUT FILE
================================================================================
NAME = rf_mecn_opt_B3L_C4_P_B.inp
|  1> !B3LYP def2-TZVP opt d3 TightSCF SlowConv defgrid2
|  2>  
|  3> %pal
|  4> nprocs 20
|  5> end
|  6>  
|  7> %scf
|  8> MaxIter 1500
|  9> end
| 10>  
| 11> %maxcore 8000
| 12>  
| 13> !CPCM
| 14> %cpcm smd true
| 15> SMDsolvent "ACETONITRILE"
| 16> end
| 17>  
| 18> * xyz 0 2
| 19> 6        4.790427000     -0.033865800     -0.529943200
| 20> 8        5.449345000     -1.206924000     -0.894594600
| 21> 8        4.978223000      1.323071000     -0.737377200
| 22> 6        3.506687600     -0.338741600      0.376153800
| 23> 6        2.222300000      0.400524800     -0.110681600
| 24> 6        0.900506800     -0.386389800      0.175703000
| 25> 6       -0.395261200      0.487294000      0.065549000
| 26> 6       -1.705693600     -0.364773800     -0.068373600
| 27> 6       -3.005136200      0.445344800      0.258164000
| 28> 6       -4.319880200     -0.214526000     -0.270540800
| 29> 9        3.211587400     -1.692050400      0.412735200
| 30> 9        3.741061800      0.055285800      1.689948800
| 31> 9        2.125696800      1.616867800      0.483236600
| 32> 9        2.314152400      0.589704000     -1.455769200
| 33> 9        0.794028800     -1.413561400     -0.700839000
| 34> 9       -0.498373400      1.260265600      1.173340200
| 35> 9       -0.299075000      1.289512600     -1.020910800
| 36> 9       -1.641790400     -1.418189000      0.779523800
| 37> 9       -1.792381400     -0.831391600     -1.336863600
| 38> 9       -2.918792200      1.679227200     -0.295171200
| 39> 9       -3.119771000      0.573779800      1.598579800
| 40> 9       -4.383115600     -1.504377600      0.089127600
| 41> 9       -5.365669800      0.430528600      0.260394200
| 42> 9       -4.396020400     -0.128550600     -1.602941800
| 43> 1        5.903122371     -2.014774547     -1.145719253
| 44> *
| 45> 
| 46>                          ****END OF INPUT****
================================================================================

                       *****************************
                       * Geometry Optimization Run *
                       *****************************

Geometry optimization settings:
Update method            Update   .... BFGS
Choice of coordinates    CoordSys .... (2022) Redundant Internals
Initial Hessian          InHess   .... Almloef's Model
Max. no of cycles        MaxIter  .... 75

Convergence Tolerances:
Energy Change            TolE     ....  5.0000e-06 Eh
Max. Gradient            TolMAXG  ....  3.0000e-04 Eh/bohr
RMS Gradient             TolRMSG  ....  1.0000e-04 Eh/bohr
Max. Displacement        TolMAXD  ....  4.0000e-03 bohr
RMS Displacement         TolRMSD  ....  2.0000e-03 bohr
Strict Convergence                .... False

------------------------------------------------------------------------------
                        ORCA OPTIMIZATION COORDINATE SETUP
------------------------------------------------------------------------------

The optimization will be done in redundant internal coordinates (2022)
Making redundant internal coordinates   ...  (2022 redundants) done
Evaluating the initial hessian          ...  (Almloef) done
Evaluating the coordinates              ...  done
Calculating the B-matrix                .... done
Calculating the G-matrix                .... done
Diagonalizing the G-matrix              .... done
Small eigenvalue found = 4.721e-03
Small eigenvalue found = 1.266e-02
Small eigenvalue found = 2.865e-02
Small eigenvalue found = 2.987e-02
The first mode is                       ....   39
The number of degrees of freedom        ....   69

    -----------------------------------------------------------------
                    Redundant Internal Coordinates


    -----------------------------------------------------------------
         Definition                    Initial Value    Approx d2E/dq
    -----------------------------------------------------------------
      1. B(O   1,C   0)                  1.3940         0.551454   
      2. B(O   2,C   0)                  1.3855         0.568952   
      3. B(C   3,C   0)                  1.6006         0.288221   
      4. B(C   4,C   3)                  1.5599         0.334759   
      5. B(C   5,C   4)                  1.5647         0.328824   
      6. B(C   6,C   5)                  1.5667         0.326486   
      7. B(C   7,C   6)                  1.5688         0.323927   
      8. B(C   8,C   7)                  1.5657         0.327637   
      9. B(C   9,C   8)                  1.5632         0.330714   
     10. B(F  10,C   3)                  1.3856         0.528443   
     11. B(F  11,C   3)                  1.3915         0.517117   
     12. B(F  12,C   4)                  1.3570         0.586881   
     13. B(F  13,C   4)                  1.3614         0.577499   
     14. B(F  14,C   5)                  1.3545         0.592326   
     15. B(F  15,C   6)                  1.3547         0.591865   
     16. B(F  16,C   6)                  1.3540         0.593567   
     17. B(F  17,C   7)                  1.3538         0.593973   
     18. B(F  18,C   7)                  1.3544         0.592672   
     19. B(F  19,C   8)                  1.3550         0.591238   
     20. B(F  20,C   8)                  1.3514         0.599114   
     21. B(F  21,C   9)                  1.3406         0.623533   
     22. B(F  22,C   9)                  1.3385         0.628179   
     23. B(F  23,C   9)                  1.3373         0.630929   
     24. B(H  24,O   1)                  0.9600         0.519956   
     25. A(O   1,C   0,C   3)          111.5249         0.369222   
     26. A(O   1,C   0,O   2)          136.1318         0.413163   
     27. A(O   2,C   0,C   3)          112.3347         0.371210   
     28. L(C   0,O   1,H  24,C   3, 1) 180.0000         0.362759   
     29. L(C   0,O   1,H  24,C   3, 2) 180.0000         0.362759   
     30. A(F  10,C   3,F  11)          106.7094         0.399684   
     31. A(C   0,C   3,F  11)          110.2099         0.363632   
     32. A(C   4,C   3,F  11)          107.4072         0.373095   
     33. A(C   0,C   3,F  10)          111.8265         0.364982   
     34. A(C   4,C   3,F  10)          107.2033         0.374492   
     35. A(C   0,C   3,C   4)          113.1687         0.341363   
     36. A(C   3,C   4,F  12)          110.2926         0.381351   
     37. A(C   3,C   4,C   5)          113.5839         0.349005   
     38. A(C   5,C   4,F  13)          107.9208         0.379109   
     39. A(C   3,C   4,F  13)          108.5818         0.380286   
     40. A(C   5,C   4,F  12)          108.0911         0.380169   
     41. A(F  12,C   4,F  13)          108.2194         0.415201   
     42. A(C   6,C   5,F  14)          108.2026         0.380308   
     43. A(C   4,C   5,F  14)          109.2282         0.380779   
     44. A(C   4,C   5,C   6)          113.9128         0.347536   
     45. A(C   5,C   6,C   7)          113.2023         0.346660   
     46. A(F  15,C   6,F  16)          108.8752         0.417862   
     47. A(C   7,C   6,F  16)          108.2186         0.379927   
     48. A(C   5,C   6,F  16)          109.1523         0.380446   
     49. A(C   7,C   6,F  15)          108.4284         0.379738   
     50. A(C   5,C   6,F  15)          108.8835         0.380256   
     51. A(C   8,C   7,F  18)          108.6915         0.380579   
     52. A(C   6,C   7,F  18)          108.6955         0.379828   
     53. A(C   8,C   7,F  17)          108.1296         0.380723   
     54. A(F  17,C   7,F  18)          108.7561         0.418014   
     55. A(C   6,C   7,F  17)          109.2524         0.379972   
     56. A(C   6,C   7,C   8)          113.2298         0.346865   
     57. A(F  19,C   8,F  20)          108.8987         0.418476   
     58. A(C   7,C   8,C   9)          114.1471         0.348078   
     59. A(C   9,C   8,F  20)          107.7127         0.381912   
     60. A(C   7,C   8,F  20)          109.0521         0.381293   
     61. A(C   9,C   8,F  19)          107.4499         0.381036   
     62. A(C   7,C   8,F  19)          109.4572         0.380419   
     63. A(F  22,C   9,F  23)          108.6464         0.426961   
     64. A(F  21,C   9,F  23)          109.0552         0.426394   
     65. A(C   8,C   9,F  23)          110.9604         0.385362   
     66. A(F  21,C   9,F  22)          108.6877         0.426061   
     67. A(C   8,C   9,F  22)          108.6349         0.385069   
     68. A(C   8,C   9,F  21)          110.7995         0.384572   
     69. D(C   4,C   3,C   0,O   1)   -131.0839         0.006601   
     70. D(F  10,C   3,C   0,O   1)     -9.8890         0.006601   
     71. D(F  11,C   3,C   0,O   1)    108.6317         0.006601   
     72. D(F  10,C   3,C   0,O   2)    171.0025         0.006601   
     73. D(F  11,C   3,C   0,O   2)    -70.4768         0.006601   
     74. D(C   4,C   3,C   0,O   2)     49.8076         0.006601   
     75. D(C   5,C   4,C   3,C   0)    148.6429         0.009100   
     76. D(F  12,C   4,C   3,F  11)     32.0233         0.009100   
     77. D(F  12,C   4,C   3,C   0)    -89.8453         0.009100   
     78. D(C   5,C   4,C   3,F  11)    -89.4885         0.009100   
     79. D(F  12,C   4,C   3,F  10)    146.3851         0.009100   
     80. D(C   5,C   4,C   3,F  10)     24.8733         0.009100   
     81. D(C   6,C   5,C   4,F  13)    -75.6292         0.008276   
     82. D(C   6,C   5,C   4,F  12)     41.2001         0.008276   
     83. D(C   6,C   5,C   4,C   3)    163.9326         0.008276   
     84. D(F  14,C   5,C   4,F  12)    162.3014         0.008276   
     85. D(F  14,C   5,C   4,C   3)    -74.9661         0.008276   
     86. D(F  16,C   6,C   5,C   4)     42.3872         0.008172   
     87. D(F  15,C   6,C   5,F  14)    161.9826         0.008172   
     88. D(F  15,C   6,C   5,C   4)    -76.3465         0.008172   
     89. D(C   7,C   6,C   5,F  14)     41.3107         0.008172   
     90. D(C   7,C   6,C   5,C   4)    162.9815         0.008172   
     91. D(F  17,C   7,C   6,F  16)    162.9167         0.008578   
     92. D(F  17,C   7,C   6,F  15)    -79.1358         0.008578   
     93. D(F  17,C   7,C   6,C   5)     41.7939         0.008578   
     94. D(C   8,C   7,C   6,F  16)    -76.5134         0.008578   
     95. D(C   8,C   7,C   6,F  15)     41.4341         0.008578   
     96. D(C   8,C   7,C   6,C   5)    162.3638         0.008578   
     97. D(C   9,C   8,C   7,F  18)     41.5227         0.008755   
     98. D(C   9,C   8,C   7,F  17)    -76.3785         0.008755   
     99. D(C   9,C   8,C   7,C   6)    162.4166         0.008755   
    100. D(F  19,C   8,C   7,F  18)    -78.9355         0.008755   
    101. D(F  19,C   8,C   7,F  17)    163.1633         0.008755   
    102. D(F  19,C   8,C   7,C   6)     41.9584         0.008755   
    103. D(F  22,C   9,C   8,F  20)     48.1091         0.008903   
    104. D(F  22,C   9,C   8,F  19)    -69.0724         0.008903   
    105. D(F  22,C   9,C   8,C   7)    169.3552         0.008903   
    106. D(F  21,C   9,C   8,F  20)    -71.2185         0.008903   
    107. D(F  21,C   9,C   8,F  19)    171.5999         0.008903   
    108. D(F  21,C   9,C   8,C   7)     50.0276         0.008903   
    -----------------------------------------------------------------

Number of atoms                         .... 25
Number of degrees of freedom            .... 108


         *************************************************************
         *                GEOMETRY OPTIMIZATION CYCLE   1            *
         *************************************************************
---------------------------------
CARTESIAN COORDINATES (ANGSTROEM)
---------------------------------
  C      4.790427   -0.033866   -0.529943
  O      5.449345   -1.206924   -0.894595
  O      4.978223    1.323071   -0.737377
  C      3.506688   -0.338742    0.376154
  C      2.222300    0.400525   -0.110682
  C      0.900507   -0.386390    0.175703
  C     -0.395261    0.487294    0.065549
  C     -1.705694   -0.364774   -0.068374
  C     -3.005136    0.445345    0.258164
  C     -4.319880   -0.214526   -0.270541
  F      3.211587   -1.692050    0.412735
  F      3.741062    0.055286    1.689949
  F      2.125697    1.616868    0.483237
  F      2.314152    0.589704   -1.455769
  F      0.794029   -1.413561   -0.700839
  F     -0.498373    1.260266    1.173340
  F     -0.299075    1.289513   -1.020911
  F     -1.641790   -1.418189    0.779524
  F     -1.792381   -0.831392   -1.336864
  F     -2.918792    1.679227   -0.295171
  F     -3.119771    0.573780    1.598580
  F     -4.383116   -1.504378    0.089128
  F     -5.365670    0.430529    0.260394
  F     -4.396020   -0.128551   -1.602942
  H      5.903122   -2.014775   -1.145719

----------------------------
CARTESIAN COORDINATES (A.U.)
----------------------------
  NO LB      ZA    FRAG     MASS         X           Y           Z
   0 C     6.0000    0    12.011    9.052595   -0.063997   -1.001448
   1 O     8.0000    0    15.999   10.297770   -2.280756   -1.690539
   2 O     8.0000    0    15.999    9.407478    2.500242   -1.393441
   3 C     6.0000    0    12.011    6.626679   -0.640129    0.710828
   4 C     6.0000    0    12.011    4.199538    0.756882   -0.209158
   5 C     6.0000    0    12.011    1.701711   -0.730171    0.332031
   6 C     6.0000    0    12.011   -0.746935    0.920852    0.123870
   7 C     6.0000    0    12.011   -3.223294   -0.689323   -0.129207
   8 C     6.0000    0    12.011   -5.678884    0.841580    0.487859
   9 C     6.0000    0    12.011   -8.163391   -0.405395   -0.511248
  10 F     9.0000    0    18.998    6.069021   -3.197512    0.779956
  11 F     9.0000    0    18.998    7.069582    0.104475    3.193540
  12 F     9.0000    0    18.998    4.016985    3.055437    0.913185
  13 F     9.0000    0    18.998    4.373114    1.114379   -2.751005
  14 F     9.0000    0    18.998    1.500497   -2.671244   -1.324394
  15 F     9.0000    0    18.998   -0.941789    2.381557    2.217292
  16 F     9.0000    0    18.998   -0.565170    2.436826   -1.929242
  17 F     9.0000    0    18.998   -3.102534   -2.679989    1.473086
  18 F     9.0000    0    18.998   -3.387110   -1.571102   -2.526306
  19 F     9.0000    0    18.998   -5.515718    3.173280   -0.557793
  20 F     9.0000    0    18.998   -5.895513    1.084287    3.020878
  21 F     9.0000    0    18.998   -8.282888   -2.842862    0.168427
  22 F     9.0000    0    18.998  -10.139646    0.813581    0.492074
  23 F     9.0000    0    18.998   -8.307275   -0.242925   -3.029121
  24 H     1.0000    0     1.008   11.155285   -3.807372   -2.165096

--------------------------------
INTERNAL COORDINATES (ANGSTROEM)
--------------------------------
 C      0   0   0     0.000000000000     0.00000000     0.00000000
 O      1   0   0     1.393990356793     0.00000000     0.00000000
 O      1   2   0     1.385486802956   136.13177198     0.00000000
 C      1   2   3     1.600608594862   111.52489317   181.18992567
 C      4   1   2     1.559863783763   113.16872737   228.91614990
 C      5   4   1     1.564732561934   113.58394786   148.64287440
 C      6   5   4     1.566675459667   113.91280616   163.93256239
 C      7   6   5     1.568817348692   113.20226571   162.98152714
 C      8   7   6     1.565717094808   113.22984595   162.36375422
 C      9   8   7     1.563173062643   114.14707705   162.41661495
 F      4   1   2     1.385592665621   111.82651119   350.11101305
 F      4   1   2     1.391490625050   110.20991618   108.63170802
 F      5   4   1     1.357041377479   110.29260564   270.15468021
 F      5   4   1     1.361428031433   108.58179722    28.57841973
 F      6   5   4     1.354527570075   109.22822656   285.03385927
 F      7   6   5     1.354739297058   108.88346185   283.65347401
 F      7   6   5     1.353957667090   109.15230848    42.38718856
 F      8   7   6     1.353771473879   109.25240264    41.79387651
 F      8   7   6     1.354368423305   108.69554158   283.25540020
 F      9   8   7     1.355028009646   109.45719767    41.95842364
 F      9   8   7     1.351425618925   109.05210362   282.91820052
 F     10   9   8     1.340551089588   110.79953142    50.02756898
 F     10   9   8     1.338530275591   108.63493714   169.35523750
 F     10   9   8     1.337341214598   110.96044107   288.72891896
 H      2   1   3     0.960000000033   180.00000000     0.00000000

---------------------------
INTERNAL COORDINATES (A.U.)
---------------------------
 C      0   0   0     0.000000000000     0.00000000     0.00000000
 O      1   0   0     2.634260007667     0.00000000     0.00000000
 O      1   2   0     2.618190619750   136.13177198     0.00000000
 C      1   2   3     3.024711891890   111.52489317   181.18992567
 C      4   1   2     2.947715357535   113.16872737   228.91614990
 C      5   4   1     2.956916014884   113.58394786   148.64287440
 C      6   5   4     2.960587559506   113.91280616   163.93256239
 C      7   6   5     2.964635143173   113.20226571   162.98152714
 C      8   7   6     2.958776512386   113.22984595   162.36375422
 C      9   8   7     2.953968988318   114.14707705   162.41661495
 F      4   1   2     2.618390671194   111.82651119   350.11101305
 F      4   1   2     2.629536199263   110.20991618   108.63170802
 F      5   4   1     2.564436555835   110.29260564   270.15468021
 F      5   4   1     2.572726130452   108.58179722    28.57841973
 F      6   5   4     2.559686148288   109.22822656   285.03385927
 F      7   6   5     2.560086254300   108.88346185   283.65347401
 F      7   6   5     2.558609187723   109.15230848    42.38718856
 F      8   7   6     2.558257333546   109.25240264    41.79387651
 F      8   7   6     2.559385404477   108.69554158   283.25540020
 F      9   8   7     2.560631842023   109.45719767    41.95842364
 F      9   8   7     2.553824310132   109.05210362   282.91820052
 F     10   9   8     2.533274427850   110.79953142    50.02756898
 F     10   9   8     2.529455642830   108.63493714   169.35523750
 F     10   9   8     2.527208643196   110.96044107   288.72891896
 H      2   1   3     1.814137088628   180.00000000     0.00000000

---------------------
BASIS SET INFORMATION
---------------------
There are 4 groups of distinct atoms

 Group   1 Type C   : 11s6p2d1f contracted to 5s3p2d1f pattern {62111/411/11/1}
 Group   2 Type O   : 11s6p2d1f contracted to 5s3p2d1f pattern {62111/411/11/1}
 Group   3 Type F   : 11s6p2d1f contracted to 5s3p2d1f pattern {62111/411/11/1}
 Group   4 Type H   : 5s1p contracted to 3s1p pattern {311/1}

Atom   0C    basis set group =>   1
Atom   1O    basis set group =>   2
Atom   2O    basis set group =>   2
Atom   3C    basis set group =>   1
Atom   4C    basis set group =>   1
Atom   5C    basis set group =>   1
Atom   6C    basis set group =>   1
Atom   7C    basis set group =>   1
Atom   8C    basis set group =>   1
Atom   9C    basis set group =>   1
Atom  10F    basis set group =>   3
Atom  11F    basis set group =>   3
Atom  12F    basis set group =>   3
Atom  13F    basis set group =>   3
Atom  14F    basis set group =>   3
Atom  15F    basis set group =>   3
Atom  16F    basis set group =>   3
Atom  17F    basis set group =>   3
Atom  18F    basis set group =>   3
Atom  19F    basis set group =>   3
Atom  20F    basis set group =>   3
Atom  21F    basis set group =>   3
Atom  22F    basis set group =>   3
Atom  23F    basis set group =>   3
Atom  24H    basis set group =>   4
---------------------------------
AUXILIARY/J BASIS SET INFORMATION
---------------------------------
There are 4 groups of distinct atoms

 Group   1 Type C   : 12s5p4d2f1g contracted to 6s4p3d1f1g pattern {711111/2111/211/2/1}
 Group   2 Type O   : 12s5p4d2f1g contracted to 6s4p3d1f1g pattern {711111/2111/211/2/1}
 Group   3 Type F   : 12s5p4d2f1g contracted to 6s4p3d1f1g pattern {711111/2111/211/2/1}
 Group   4 Type H   : 5s2p1d contracted to 3s1p1d pattern {311/2/1}

Atom   0C    basis set group =>   1
Atom   1O    basis set group =>   2
Atom   2O    basis set group =>   2
Atom   3C    basis set group =>   1
Atom   4C    basis set group =>   1
Atom   5C    basis set group =>   1
Atom   6C    basis set group =>   1
Atom   7C    basis set group =>   1
Atom   8C    basis set group =>   1
Atom   9C    basis set group =>   1
Atom  10F    basis set group =>   3
Atom  11F    basis set group =>   3
Atom  12F    basis set group =>   3
Atom  13F    basis set group =>   3
Atom  14F    basis set group =>   3
Atom  15F    basis set group =>   3
Atom  16F    basis set group =>   3
Atom  17F    basis set group =>   3
Atom  18F    basis set group =>   3
Atom  19F    basis set group =>   3
Atom  20F    basis set group =>   3
Atom  21F    basis set group =>   3
Atom  22F    basis set group =>   3
Atom  23F    basis set group =>   3
Atom  24H    basis set group =>   4


           ************************************************************
           *        Program running with 20 parallel MPI-processes    *
           *              working on a common directory               *
           ************************************************************
------------------------------------------------------------------------------
                             ORCA STARTUP CALCULATIONS
                           -- RI-GTO INTEGRALS CHOSEN --
------------------------------------------------------------------------------
------------------------------------------------------------------------------
                   ___                                                        
                  /   \      - P O W E R E D   B Y -                         
                 /     \                                                     
                 |  |  |   _    _      __       _____    __    __             
                 |  |  |  | |  | |    /  \     |  _  \  |  |  /  |          
                  \  \/   | |  | |   /    \    | | | |  |  | /  /          
                 / \  \   | |__| |  /  /\  \   | |_| |  |  |/  /          
                |  |  |   |  __  | /  /__\  \  |    /   |      \           
                |  |  |   | |  | | |   __   |  |    \   |  |\   \          
                \     /   | |  | | |  |  |  |  | |\  \  |  | \   \       
                 \___/    |_|  |_| |__|  |__|  |_| \__\ |__|  \__/        
                                                                              
                      - O R C A' S   B I G   F R I E N D -                    
                                      &                                       
                       - I N T E G R A L  F E E D E R -                       
                                                                              
 v1 FN, 2020, v2 2021, v3 2022-2024                                           
------------------------------------------------------------------------------


----------------------
SHARK INTEGRAL PACKAGE
----------------------

Number of atoms                             ...     25
Number of basis functions                   ...    750
Number of shells                            ...    268
Maximum angular momentum                    ...      3
Integral batch strategy                     ... SHARK/LIBINT Hybrid
RI-J (if used) integral strategy            ... SPLIT-RIJ (Revised 2003 algorithm where possible)
Printlevel                                  ...      1
Contraction scheme used                     ... SEGMENTED contraction
Prescreening option                         ... SCHWARTZ
   Thresh                                   ... 2.500e-11
   Tcut                                     ... 2.500e-12
   Tpresel                                  ... 2.500e-12 
Coulomb Range Separation                    ... NOT USED
Exchange Range Separation                   ... NOT USED
Multipole approximations                    ... NOT USED
Finite Nucleus Model                        ... NOT USED
CABS basis                                  ... NOT available
Auxiliary Coulomb fitting basis             ... AVAILABLE
   # of basis functions in Aux-J            ...   1187
   # of shells in Aux-J                     ...    365
   Maximum angular momentum in Aux-J        ...      4
Auxiliary J/K fitting basis                 ... NOT available
Auxiliary Correlation fitting basis         ... NOT available
Auxiliary 'external' fitting basis          ... NOT available

Checking pre-screening integrals            ... done (  0.0 sec) Dimension = 268
Check shell pair data                       ... done (  0.0 sec)
Shell pair information
Shell pair cut-off parameter TPreSel        ...   2.5e-12
Total number of shell pairs                 ...     36046
Shell pairs after pre-screening             ...     21894
Total number of primitive shell pairs       ...    118872
Primitive shell pairs kept                  ...     46507
          la=0 lb=0:   4183 shell pairs
          la=1 lb=0:   5977 shell pairs
          la=1 lb=1:   2069 shell pairs
          la=2 lb=0:   3244 shell pairs
          la=2 lb=1:   2370 shell pairs
          la=2 lb=2:    670 shell pairs
          la=3 lb=0:   1480 shell pairs
          la=3 lb=1:   1140 shell pairs
          la=3 lb=2:    613 shell pairs
          la=3 lb=3:    148 shell pairs

Calculating one electron integrals          ... done (  0.0 sec)
Calculating RI/J V-Matrix + Cholesky decomp.... done (  0.1 sec)
Calculating Nuclear repulsion               ... done (  0.0 sec) ENN=   2611.980599108676 Eh

Diagonalization of the overlap matrix:
Smallest eigenvalue                        ... 6.561e-05
Time for diagonalization                   ...    0.097 sec
Threshold for overlap eigenvalues          ... 1.000e-07
Number of eigenvalues below threshold      ... 0
Time for construction of square roots      ...    0.044 sec
Total time needed                          ...    0.146 sec

-------------------
DFT GRID GENERATION
-------------------

General Integration Accuracy     IntAcc      ... 4.388
Radial Grid Type                 RadialGrid  ... OptM3 with GC (2021)
Angular Grid (max. ang.)         AngularGrid ... 4 (Lebedev-302)
Angular grid pruning method      GridPruning ... 4 (adaptive)
Weight generation scheme         WeightScheme... mBecke (2022)
Basis function cutoff            BFCut       ... 1.0000e-11
Integration weight cutoff        WCut        ... 1.0000e-14
Partially contracted basis set               ... off
Rotationally invariant grid construction     ... off
Angular grids for H and He will be reduced by one unit

Total number of grid points                  ...   148770
Total number of batches                      ...     2335
Average number of points per batch           ...       63
Average number of grid points per atom       ...     5951

--------------------
COSX GRID GENERATION
--------------------

GRIDX 1
-------
General Integration Accuracy     IntAcc      ... 3.816
Radial Grid Type                 RadialGrid  ... OptM3 with GC (2021)
Angular Grid (max. ang.)         AngularGrid ... 1 (Lebedev-50)
Angular grid pruning method      GridPruning ... 4 (adaptive)
Weight generation scheme         WeightScheme... mBecke (2022)
Basis function cutoff            BFCut       ... 1.0000e-11
Integration weight cutoff        WCut        ... 1.0000e-14
Partially contracted basis set               ... on
Rotationally invariant grid construction     ... off
Angular grids for H and He will be reduced by one unit

Total number of grid points                  ...    18722
Total number of batches                      ...      158
Average number of points per batch           ...      118
Average number of grid points per atom       ...      749
UseSFitting                                  ... on

GRIDX 2
-------
General Integration Accuracy     IntAcc      ... 4.020
Radial Grid Type                 RadialGrid  ... OptM3 with GC (2021)
Angular Grid (max. ang.)         AngularGrid ... 2 (Lebedev-110)
Angular grid pruning method      GridPruning ... 4 (adaptive)
Weight generation scheme         WeightScheme... mBecke (2022)
Basis function cutoff            BFCut       ... 1.0000e-11
Integration weight cutoff        WCut        ... 1.0000e-14
Partially contracted basis set               ... on
Rotationally invariant grid construction     ... off
Angular grids for H and He will be reduced by one unit

Total number of grid points                  ...    44133
Total number of batches                      ...      358
Average number of points per batch           ...      123
Average number of grid points per atom       ...     1765
UseSFitting                                  ... on

GRIDX 3
-------
General Integration Accuracy     IntAcc      ... 4.338
Radial Grid Type                 RadialGrid  ... OptM3 with GC (2021)
Angular Grid (max. ang.)         AngularGrid ... 3 (Lebedev-194)
Angular grid pruning method      GridPruning ... 4 (adaptive)
Weight generation scheme         WeightScheme... mBecke (2022)
Basis function cutoff            BFCut       ... 1.0000e-11
Integration weight cutoff        WCut        ... 1.0000e-14
Partially contracted basis set               ... on
Rotationally invariant grid construction     ... off
Angular grids for H and He will be reduced by one unit

Total number of grid points                  ...    97728
Total number of batches                      ...      774
Average number of points per batch           ...      126
Average number of grid points per atom       ...     3909
UseSFitting                                  ... on
Initializing property integral containers    ... done (  0.0 sec)

SHARK setup successfully completed in   3.0 seconds

Maximum memory used throughout the entire STARTUP-calculation: 56.8 MB


           ************************************************************
           *        Program running with 20 parallel MPI-processes    *
           *              working on a common directory               *
           ************************************************************
-------------------------------------------------------------------------------
                                 ORCA GUESS
                   Start orbitals & Density for SCF / CASSCF
-------------------------------------------------------------------------------

------------
SCF SETTINGS
------------
Hamiltonian:
 Density Functional     Method          .... DFT(GTOs)
 Exchange Functional    Exchange        .... B88
   X-Alpha parameter    XAlpha          ....  0.666667
   Becke's b parameter  XBeta           ....  0.004200
 Correlation Functional Correlation     .... LYP
 LDA part of GGA corr.  LDAOpt          .... VWN-5
 Gradients option       PostSCFGGA      .... off
 Hybrid DFT is turned on
   Fraction HF Exchange ScalHFX         ....  0.200000
   Scaling of DF-GGA-X  ScalDFX         ....  0.720000
   Scaling of DF-GGA-C  ScalDFC         ....  0.810000
   Scaling of DF-LDA-C  ScalLDAC        ....  1.000000
   Perturbative correction              ....  0.000000
   NL short-range parameter             ....  4.800000
 RI-approximation to the Coulomb term is turned on
   Number of AuxJ basis functions       .... 1187
   RIJ-COSX (HFX calculated with COS-X)).... on


General Settings:
 Integral files         IntName         .... rf_mecn_opt_B3L_C4_P_B
 Hartree-Fock type      HFTyp           .... UHF
 Total Charge           Charge          ....    0
 Multiplicity           Mult            ....    2
 Number of Electrons    NEL             ....  191
 Basis Dimension        Dim             ....  750
 Nuclear Repulsion      ENuc            ....   2611.9805991087 Eh

Convergence Acceleration:
 AO-DIIS                CNVDIIS         .... on
   Start iteration      DIISMaxIt       ....     0
   Startup error        DIISStart       ....  0.200000
   # of expansion vecs  DIISMaxEq       ....     5
   Bias factor          DIISBfac        ....   1.050
   Max. coefficient     DIISMaxC        ....  10.000
 MO-DIIS                CNVKDIIS        .... off
 Trust-Rad. Augm. Hess. CNVTRAH         .... auto
   Auto Start mean grad. ratio tolernc. ....  1.125000
   Auto Start start iteration           ....    50
   Auto Start num. interpolation iter.  ....    10
   Max. Number of Micro iterations      ....    24
   Max. Number of Macro iterations      .... Maxiter - #DIIS iter
   Number of Davidson start vectors     ....     2
   Converg. threshold    (grad. norm)   ....   1.000e-05
   Grad. Scal. Fac. for Micro threshold ....   0.100
   Minimum threshold for Micro iter.    ....   1.000e-02
   NR start threshold (gradient norm)   ....   1.000e-04
   Initial trust radius                 ....   0.400
   Minimum AH scaling param. (alpha)    ....   1.000
   Maximum AH scaling param. (alpha)    .... 1000.000
   Quad. conv. algorithm                .... NR
   White noise on init. David. guess    .... on
   Maximum white noise                  ....   0.010
   Pseudo random numbers                .... off
   Inactive MOs                         .... canonical
   Orbital update algorithm             .... Taylor
   Preconditioner                       .... Diag
   Full preconditioner red. dimension   ....   250
 SOSCF                  CNVSOSCF        .... on
   Start iteration      SOSCFMaxIt      ....   150
   Startup grad/error   SOSCFStart      ....  0.001000
   Hessian update       SOSCFHessUp     .... L-BFGS
 Level Shifting         CNVShift        .... on
   Level shift para.    LevelShift      ....    0.2500
   Turn off err/grad.   ShiftErr        ....    0.0000
 Zerner damping         CNVZerner       .... off
 Static damping         CNVDamp         .... on
   Fraction old density DampFac         ....    0.8500
   Max. Damping (<1)    DampMax         ....    0.9800
   Min. Damping (>=0)   DampMin         ....    0.0000
   Turn off err/grad.   DampErr         ....    0.0300

SCF Procedure:
 Maximum # iterations   MaxIter         ....  1500
 SCF integral mode      SCFMode         .... Direct
   Integral package                     .... SHARK and LIBINT hybrid scheme
 Reset frequency        DirectResetFreq ....    20
 Integral Threshold     Thresh          ....  2.500e-11 Eh
 Primitive CutOff       TCut            ....  2.500e-12 Eh

Convergence Tolerance:
 Convergence Check Mode ConvCheckMode   .... Total+1el-Energy
 Convergence forced     ConvForced      .... 0
 Energy Change          TolE            ....  1.000e-08 Eh
 1-El. energy change                    ....  1.000e-05 Eh
 Orbital Gradient       TolG            ....  1.000e-05
 Orbital Rotation angle TolX            ....  1.000e-05
 DIIS Error             TolErr          ....  5.000e-07

------------------------------
INITIAL GUESS: MODEL POTENTIAL
------------------------------
Loading Hartree-Fock densities                     ... done
Calculating cut-offs                               ... done
Initializing the effective Hamiltonian             ... done
Setting up the integral package (SHARK)            ... done
Starting the Coulomb interaction                   ... done (   0.1 sec)
Making the grid                                    ... done (   0.3 sec)
Mapping shells                                     ... done
Starting the XC term evaluation                    ... done (   0.1 sec)
  promolecular density results
     # of electrons  =    191.000203496
     EX              =   -198.447647772
     EC              =     -7.161026347
     EX+EC           =   -205.608674119
Transforming the Hamiltonian                       ... done (   0.0 sec)
Diagonalizing the Hamiltonian                      ... done (   0.1 sec)
Back transforming the eigenvectors                 ... done (   0.0 sec)
Now organizing SCF variables                       ... done
                      ------------------
                      INITIAL GUESS DONE (   0.8 sec)
                      ------------------
             **** ENERGY FILE WAS UPDATED (rf_mecn_opt_B3L_C4_P_B.en.tmp) ****
Finished Guess after   1.5 sec
Maximum memory used throughout the entire GUESS-calculation: 45.7 MB


           ************************************************************
           *        Program running with 20 parallel MPI-processes    *
           *              working on a common directory               *
           ************************************************************

-------------------------------------------------------------------------------------------
                                      ORCA LEAN-SCF
                              memory conserving SCF solver
-------------------------------------------------------------------------------------------

--------------------
CPCM SOLVATION MODEL
--------------------
CPCM parameters:
  Epsilon                                         ...      35.6880
  Refrac                                          ...       1.3442
  Rsolv                                           ...       1.3000
  Surface type                                    ... GAUSSIAN VDW
  Discretization scheme                           ... Constant charge density
    Threshold for H atoms                         ...       5.0000 (charges/Ang^2)
    Threshold for non-H atoms                     ...       5.0000 (charges/Ang^2)
  Epsilon function type                           ...         CPCM
Solvent:                                          ... ACETONITRILE
SMD-CDS solvent descriptors:
  Soln                                            ...       1.3442
  Soln25                                          ...       1.3416
  Sola                                            ...       0.0700
  Solb                                            ...       0.3200
  Solg                                            ...      41.2500
  Solc                                            ...       0.0000
  Solh                                            ...       0.0000
Radii:
  Scheme                                          ... Element-dependent radii
  Radius for C  used is    3.4960 Bohr (=   1.8500 Ang.)
  Radius for O  used is    4.0969 Bohr (=   2.1680 Ang.)
  Radius for F  used is    3.2692 Bohr (=   1.7300 Ang.)
  Radius for H  used is    2.2677 Bohr (=   1.2000 Ang.)
Calculating surface                               ...        done! (  0.0s)
Cavity surface points                             ...         2170
Cavity Volume                                     ...    2134.8130
Cavity Surface-area                               ...    1120.2556
Calculating surface distance matrix               ...        done! (  0.0s)
Performing Cholesky decomposition & store         ...        done! (  0.1s)
Overall time for CPCM initialization              ...                 0.1s

----------------------------------------D-I-I-S--------------------------------------------
Iteration    Energy (Eh)           Delta-E    RMSDP     MaxDP     DIISErr   Damp  Time(sec)
-------------------------------------------------------------------------------------------
               ***  Starting incremental Fock matrix formation  ***
    1    -1853.0547605277401999     0.00e+00  2.15e-04  1.71e-02  1.57e-01  0.850   6.2
Warning: op=1 Small HOMO/LUMO gap (   0.047) - skipping pre-diagonalization
         Will do a full diagonalization
    2    -1853.2266522691056707    -1.72e-01  2.03e-04  1.55e-02  9.74e-02  0.850   4.3
                               ***Turning on AO-DIIS***
    3    -1853.3131852288474875    -8.65e-02  8.57e-05  5.01e-03  5.57e-02  0.850   3.6
    4    -1853.3643437200330482    -5.12e-02  4.89e-05  2.83e-03  4.02e-02  0.850   3.5
    5    -1853.4005888135629903    -3.62e-02  3.65e-05  3.05e-03  3.31e-02  0.850   3.5
    6    -1853.4294833803892288    -2.89e-02  3.19e-05  3.23e-03  3.00e-02  0.850   3.2
    7    -1853.4537719779341387    -2.43e-02  2.02e-04  2.09e-02  2.53e-02  0.000   3.2
    8    -1853.5816920916372510    -1.28e-01  5.52e-05  8.25e-03  1.43e-02  0.000   3.6
    9    -1853.5818515840260261    -1.59e-04  2.04e-05  2.81e-03  1.30e-02  0.000   3.1
   10    -1853.5828700326896978    -1.02e-03  8.34e-06  6.35e-04  3.36e-03  0.000   3.1
                              *** Initializing SOSCF ***
---------------------------------------S-O-S-C-F--------------------------------------
Iteration    Energy (Eh)           Delta-E    RMSDP     MaxDP     MaxGrad    Time(sec)
--------------------------------------------------------------------------------------
   11    -1853.5829553981061508    -8.54e-05  3.53e-06  2.93e-04  8.85e-04     3.4
               *** Restarting incremental Fock matrix formation ***
   12    -1853.5829900458224984    -3.46e-05  2.88e-06  1.91e-04  1.64e-04     5.9
   13    -1853.5829905471177881    -5.01e-07  1.60e-06  1.09e-04  2.37e-04     3.9
   14    -1853.5829916457137188    -1.10e-06  9.95e-07  1.13e-04  9.48e-05     3.6
   15    -1853.5829914194314370     2.26e-07  7.10e-07  6.56e-05  2.25e-04     3.5
   16    -1853.5829917911109987    -3.72e-07  3.98e-07  3.21e-05  2.73e-05     3.2
   17    -1853.5829917992145965    -8.10e-09  1.81e-07  1.29e-05  1.71e-05     3.2
                 **** Energy Check signals convergence ****

               *****************************************************
               *                     SUCCESS                       *
               *           SCF CONVERGED AFTER  17 CYCLES          *
               *****************************************************

Recomputing exchange energy using gridx3       ... done (    7.299 sec)
Old exchange energy                            :    -39.748554133 Eh
New exchange energy                            :    -39.748573486 Eh
Exchange energy change after final integration :     -0.000019353 Eh
Total energy after final integration           :  -1853.583011152 Eh

SMD CDS free energy correction energy :                 3.65793     Kcal/mol
Total Energy after SMD CDS correction =             -1853.577181868 Eh
             **** ENERGY FILE WAS UPDATED (rf_mecn_opt_B3L_C4_P_B.en.tmp) ****

----------------
TOTAL SCF ENERGY
----------------

Total Energy       :      -1853.57718186794568 Eh          -50438.39936 eV

Components:
Nuclear Repulsion  :       2611.98059910867551 Eh           71075.60552 eV
Electronic Energy  :      -4465.54562911844550 Eh         -121513.67420 eV
One Electron Energy:      -7775.46092962229886 Eh         -211581.04847 eV
Two Electron Energy:       3309.91530050385336 Eh           90067.37426 eV
CPCM Dielectric    :         -0.01796178944472 Eh              -0.48877 eV
SMD CDS (Gcds)     :          0.00582928425824 Eh               0.15862 eV

Virial components:
Potential Energy   :      -3699.65969946659879 Eh         -100672.85853 eV
Kinetic Energy     :       1846.08251759865311 Eh           50234.45917 eV
Virial Ratio       :          2.00405976666690

DFT components:
N(Alpha)           :       95.999971431882 electrons
N(Beta)            :       94.999961968789 electrons
N(Total)           :      190.999933400671 electrons
E(X)               :     -158.460586788891 Eh       
E(C)               :       -8.363325469201 Eh       
E(XC)              :     -166.823912258093 Eh       

CPCM Solvation Model Properties:
Surface-charge          :         -0.00941914558526
Corrected charge        :          0.00000000000000
Outlying charge corr.   :          0.00000482240917 Eh               0.00013 eV
Free-energy (cav+disp)  :          0.00582928425824 Eh               0.15862 eV

---------------
SCF CONVERGENCE
---------------

  Last Energy change         ...    8.1036e-09  Tolerance :   1.0000e-08
  Last MAX-Density change    ...    1.2936e-05  Tolerance :   1.0000e-07
  Last RMS-Density change    ...    1.8118e-07  Tolerance :   5.0000e-09
  Last DIIS Error            ...    8.8524e-04  Tolerance :   5.0000e-07
  Last Orbital Gradient      ...    1.7128e-05  Tolerance :   1.0000e-05
  Last Orbital Rotation      ...    2.2812e-05  Tolerance :   1.0000e-05


----------------------
UHF SPIN CONTAMINATION
----------------------

Warning: in a DFT calculation there is little theoretical justification to 
         calculate <S**2> as in Hartree-Fock theory. We will do it anyways
         but you should keep in mind that the values have only limited relevance

Expectation value of <S**2>     :     0.753088
Ideal value S*(S+1) for S=0.5   :     0.750000
Deviation                       :     0.003088

----------------
ORBITAL ENERGIES
----------------
                 SPIN UP ORBITALS
  NO   OCC          E(Eh)            E(eV) 
   0   1.0000     -24.748696      -673.4463 
   1   1.0000     -24.746431      -673.3846 
   2   1.0000     -24.745514      -673.3597 
   3   1.0000     -24.744953      -673.3444 
   4   1.0000     -24.744820      -673.3408 
   5   1.0000     -24.744815      -673.3407 
   6   1.0000     -24.744024      -673.3191 
   7   1.0000     -24.743871      -673.3150 
   8   1.0000     -24.741848      -673.2599 
   9   1.0000     -24.738459      -673.1677 
  10   1.0000     -24.735751      -673.0940 
  11   1.0000     -24.735540      -673.0883 
  12   1.0000     -24.731231      -672.9710 
  13   1.0000     -24.730616      -672.9543 
  14   1.0000     -19.202974      -522.5395 
  15   1.0000     -19.171117      -521.6726 
  16   1.0000     -10.464256      -284.7469 
  17   1.0000     -10.410321      -283.2792 
  18   1.0000     -10.410011      -283.2708 
  19   1.0000     -10.409044      -283.2445 
  20   1.0000     -10.405702      -283.1536 
  21   1.0000     -10.405496      -283.1480 
  22   1.0000     -10.404677      -283.1257 
  23   1.0000     -10.342641      -281.4376 
  24   1.0000      -1.352324       -36.7986 
  25   1.0000      -1.326007       -36.0825 
  26   1.0000      -1.311901       -35.6986 
  27   1.0000      -1.306502       -35.5517 
  28   1.0000      -1.302955       -35.4552 
  29   1.0000      -1.283281       -34.9198 
  30   1.0000      -1.280856       -34.8539 
  31   1.0000      -1.266540       -34.4643 
  32   1.0000      -1.260631       -34.3035 
  33   1.0000      -1.258610       -34.2485 
  34   1.0000      -1.251403       -34.0524 
  35   1.0000      -1.248698       -33.9788 
  36   1.0000      -1.246108       -33.9083 
  37   1.0000      -1.230133       -33.4736 
  38   1.0000      -1.089192       -29.6384 
  39   1.0000      -1.002435       -27.2776 
  40   1.0000      -0.850877       -23.1536 
  41   1.0000      -0.834999       -22.7215 
  42   1.0000      -0.807187       -21.9647 
  43   1.0000      -0.775503       -21.1025 
  44   1.0000      -0.739443       -20.1213 
  45   1.0000      -0.710739       -19.3402 
  46   1.0000      -0.688044       -18.7226 
  47   1.0000      -0.669359       -18.2142 
  48   1.0000      -0.649051       -17.6616 
  49   1.0000      -0.645519       -17.5655 
  50   1.0000      -0.638152       -17.3650 
  51   1.0000      -0.625781       -17.0284 
  52   1.0000      -0.623465       -16.9653 
  53   1.0000      -0.621189       -16.9034 
  54   1.0000      -0.614244       -16.7144 
  55   1.0000      -0.610097       -16.6016 
  56   1.0000      -0.602462       -16.3938 
  57   1.0000      -0.599685       -16.3183 
  58   1.0000      -0.585532       -15.9331 
  59   1.0000      -0.583661       -15.8822 
  60   1.0000      -0.576135       -15.6774 
  61   1.0000      -0.571153       -15.5419 
  62   1.0000      -0.527965       -14.3667 
  63   1.0000      -0.515002       -14.0139 
  64   1.0000      -0.514314       -13.9952 
  65   1.0000      -0.506579       -13.7847 
  66   1.0000      -0.503002       -13.6874 
  67   1.0000      -0.500720       -13.6253 
  68   1.0000      -0.499536       -13.5931 
  69   1.0000      -0.496361       -13.5067 
  70   1.0000      -0.489567       -13.3218 
  71   1.0000      -0.485123       -13.2009 
  72   1.0000      -0.482513       -13.1298 
  73   1.0000      -0.477231       -12.9861 
  74   1.0000      -0.475673       -12.9437 
  75   1.0000      -0.466964       -12.7067 
  76   1.0000      -0.465906       -12.6780 
  77   1.0000      -0.464678       -12.6445 
  78   1.0000      -0.463912       -12.6237 
  79   1.0000      -0.454475       -12.3669 
  80   1.0000      -0.453216       -12.3326 
  81   1.0000      -0.450673       -12.2634 
  82   1.0000      -0.450128       -12.2486 
  83   1.0000      -0.446564       -12.1516 
  84   1.0000      -0.444719       -12.1014 
  85   1.0000      -0.442793       -12.0490 
  86   1.0000      -0.438537       -11.9332 
  87   1.0000      -0.436070       -11.8661 
  88   1.0000      -0.432754       -11.7758 
  89   1.0000      -0.418819       -11.3966 
  90   1.0000      -0.393244       -10.7007 
  91   1.0000      -0.366672        -9.9776 
  92   1.0000      -0.352953        -9.6043 
  93   1.0000      -0.343917        -9.3584 
  94   1.0000      -0.318560        -8.6685 
  95   1.0000      -0.303775        -8.2661 
  96   0.0000      -0.097263        -2.6467 
  97   0.0000      -0.022294        -0.6066 
  98   0.0000      -0.007666        -0.2086 
  99   0.0000       0.011411         0.3105 
 100   0.0000       0.030940         0.8419 
 101   0.0000       0.054167         1.4740 
 102   0.0000       0.069645         1.8951 
 103   0.0000       0.082327         2.2402 
 104   0.0000       0.095883         2.6091 
 105   0.0000       0.097544         2.6543 
 106   0.0000       0.103276         2.8103 

                 SPIN DOWN ORBITALS
  NO   OCC          E(Eh)            E(eV) 
   0   1.0000     -24.746430      -673.3846 
   1   1.0000     -24.745515      -673.3597 
   2   1.0000     -24.744948      -673.3443 
   3   1.0000     -24.744822      -673.3408 
   4   1.0000     -24.744715      -673.3379 
   5   1.0000     -24.744520      -673.3326 
   6   1.0000     -24.744020      -673.3190 
   7   1.0000     -24.743873      -673.3150 
   8   1.0000     -24.740522      -673.2238 
   9   1.0000     -24.738383      -673.1656 
  10   1.0000     -24.735695      -673.0925 
  11   1.0000     -24.734436      -673.0582 
  12   1.0000     -24.731131      -672.9683 
  13   1.0000     -24.730607      -672.9540 
  14   1.0000     -19.202975      -522.5395 
  15   1.0000     -19.171077      -521.6715 
  16   1.0000     -10.464260      -284.7470 
  17   1.0000     -10.410331      -283.2795 
  18   1.0000     -10.410049      -283.2718 
  19   1.0000     -10.408874      -283.2399 
  20   1.0000     -10.405579      -283.1502 
  21   1.0000     -10.405408      -283.1455 
  22   1.0000     -10.404703      -283.1264 
  23   1.0000     -10.327047      -281.0132 
  24   1.0000      -1.352319       -36.7985 
  25   1.0000      -1.325279       -36.0627 
  26   1.0000      -1.310491       -35.6603 
  27   1.0000      -1.306263       -35.5452 
  28   1.0000      -1.301880       -35.4260 
  29   1.0000      -1.282945       -34.9107 
  30   1.0000      -1.272548       -34.6278 
  31   1.0000      -1.266480       -34.4627 
  32   1.0000      -1.260628       -34.3034 
  33   1.0000      -1.258260       -34.2390 
  34   1.0000      -1.251003       -34.0415 
  35   1.0000      -1.247699       -33.9516 
  36   1.0000      -1.244701       -33.8700 
  37   1.0000      -1.229947       -33.4686 
  38   1.0000      -1.089196       -29.6385 
  39   1.0000      -1.002367       -27.2758 
  40   1.0000      -0.846891       -23.0451 
  41   1.0000      -0.828244       -22.5377 
  42   1.0000      -0.805354       -21.9148 
  43   1.0000      -0.769952       -20.9515 
  44   1.0000      -0.738234       -20.0884 
  45   1.0000      -0.708397       -19.2765 
  46   1.0000      -0.687245       -18.7009 
  47   1.0000      -0.665312       -18.1041 
  48   1.0000      -0.647983       -17.6325 
  49   1.0000      -0.644978       -17.5507 
  50   1.0000      -0.638079       -17.3630 
  51   1.0000      -0.624560       -16.9951 
  52   1.0000      -0.622357       -16.9352 
  53   1.0000      -0.617965       -16.8157 
  54   1.0000      -0.613050       -16.6819 
  55   1.0000      -0.609659       -16.5897 
  56   1.0000      -0.599881       -16.3236 
  57   1.0000      -0.598683       -16.2910 
  58   1.0000      -0.583586       -15.8802 
  59   1.0000      -0.581042       -15.8109 
  60   1.0000      -0.573042       -15.5933 
  61   1.0000      -0.569258       -15.4903 
  62   1.0000      -0.516103       -14.0439 
  63   1.0000      -0.513472       -13.9723 
  64   1.0000      -0.508948       -13.8492 
  65   1.0000      -0.504744       -13.7348 
  66   1.0000      -0.501627       -13.6500 
  67   1.0000      -0.499354       -13.5881 
  68   1.0000      -0.496390       -13.5075 
  69   1.0000      -0.495699       -13.4886 
  70   1.0000      -0.489131       -13.3099 
  71   1.0000      -0.483014       -13.1435 
  72   1.0000      -0.480541       -13.0762 
  73   1.0000      -0.476037       -12.9536 
  74   1.0000      -0.472343       -12.8531 
  75   1.0000      -0.466031       -12.6813 
  76   1.0000      -0.464968       -12.6524 
  77   1.0000      -0.463502       -12.6125 
  78   1.0000      -0.459248       -12.4968 
  79   1.0000      -0.454223       -12.3600 
  80   1.0000      -0.452932       -12.3249 
  81   1.0000      -0.449394       -12.2286 
  82   1.0000      -0.447969       -12.1899 
  83   1.0000      -0.445826       -12.1315 
  84   1.0000      -0.443933       -12.0800 
  85   1.0000      -0.442609       -12.0440 
  86   1.0000      -0.438040       -11.9197 
  87   1.0000      -0.435703       -11.8561 
  88   1.0000      -0.431182       -11.7330 
  89   1.0000      -0.417372       -11.3573 
  90   1.0000      -0.391181       -10.6446 
  91   1.0000      -0.365782        -9.9534 
  92   1.0000      -0.350286        -9.5318 
  93   1.0000      -0.343646        -9.3511 
  94   1.0000      -0.318309        -8.6616 
  95   0.0000      -0.144234        -3.9248 
  96   0.0000      -0.096554        -2.6274 
  97   0.0000      -0.020202        -0.5497 
  98   0.0000      -0.005866        -0.1596 
  99   0.0000       0.013020         0.3543 
 100   0.0000       0.032951         0.8967 
 101   0.0000       0.061720         1.6795 
 102   0.0000       0.072458         1.9717 
 103   0.0000       0.084731         2.3056 
 104   0.0000       0.096936         2.6378 
 105   0.0000       0.098176         2.6715 
*Only the first 10 virtual orbitals were printed.

                    ********************************
                    * MULLIKEN POPULATION ANALYSIS *
                    ********************************

--------------------------------------------
MULLIKEN ATOMIC CHARGES AND SPIN POPULATIONS
--------------------------------------------
   0 C :    0.387394   -0.001037
   1 O :   -0.453814   -0.000016
   2 O :   -0.391541    0.001377
   3 C :    0.379165    0.001563
   4 C :    0.399324    0.001644
   5 C :    0.104433    0.852681
   6 C :    0.363500    0.009664
   7 C :    0.325335   -0.005010
   8 C :    0.324267   -0.000168
   9 C :    0.477126   -0.000142
  10 F :   -0.186075    0.001444
  11 F :   -0.188221    0.000383
  12 F :   -0.178965    0.001869
  13 F :   -0.176188    0.023853
  14 F :   -0.157883    0.081875
  15 F :   -0.176314    0.001454
  16 F :   -0.167841    0.027073
  17 F :   -0.171050    0.001319
  18 F :   -0.170941    0.000207
  19 F :   -0.167550    0.000056
  20 F :   -0.163764   -0.000016
  21 F :   -0.156262    0.000006
  22 F :   -0.152817   -0.000036
  23 F :   -0.153235   -0.000002
  24 H :    0.451917   -0.000041
Sum of atomic charges         :    0.0000000
Sum of atomic spin populations:    1.0000000

-----------------------------------------------------
MULLIKEN REDUCED ORBITAL CHARGES AND SPIN POPULATIONS
-----------------------------------------------------
CHARGE
  0 C s       :     3.162653  s :     3.162653
      pz      :     0.775459  p :     2.229135
      px      :     0.789012
      py      :     0.664664
      dz2     :     0.015397  d :     0.202696
      dxz     :     0.014634
      dyz     :     0.056966
      dx2y2   :     0.050327
      dxy     :     0.065372
      f0      :     0.001742  f :     0.018122
      f+1     :     0.001064
      f-1     :     0.002351
      f+2     :     0.002576
      f-2     :     0.001946
      f+3     :     0.003932
      f-3     :     0.004511

  1 O s       :     3.664335  s :     3.664335
      pz      :     1.726884  p :     4.772936
      px      :     1.691109
      py      :     1.354943
      dz2     :     0.001625  d :     0.013726
      dxz     :     0.001155
      dyz     :     0.002993
      dx2y2   :     0.003090
      dxy     :     0.004864
      f0      :     0.000275  f :     0.002817
      f+1     :     0.000128
      f-1     :     0.000378
      f+2     :     0.000241
      f-2     :     0.000432
      f+3     :     0.000922
      f-3     :     0.000440

  2 O s       :     3.877995  s :     3.877995
      pz      :     1.542209  p :     4.487538
      px      :     1.697404
      py      :     1.247925
      dz2     :     0.003266  d :     0.024728
      dxz     :     0.000320
      dyz     :     0.006509
      dx2y2   :     0.009193
      dxy     :     0.005440
      f0      :     0.000116  f :     0.001281
      f+1     :     0.000012
      f-1     :     0.000222
      f+2     :     0.000221
      f-2     :     0.000029
      f+3     :     0.000288
      f-3     :     0.000392

  3 C s       :     3.117996  s :     3.117996
      pz      :     0.675085  p :     2.222304
      px      :     0.907955
      py      :     0.639265
      dz2     :     0.045142  d :     0.255389
      dxz     :     0.050792
      dyz     :     0.063209
      dx2y2   :     0.044419
      dxy     :     0.051828
      f0      :     0.005318  f :     0.025146
      f+1     :     0.003566
      f-1     :     0.003890
      f+2     :     0.003563
      f-2     :     0.002000
      f+3     :     0.003746
      f-3     :     0.003063

  4 C s       :     3.100478  s :     3.100478
      pz      :     0.596185  p :     2.190233
      px      :     0.912013
      py      :     0.682035
      dz2     :     0.058563  d :     0.282512
      dxz     :     0.062802
      dyz     :     0.067414
      dx2y2   :     0.035054
      dxy     :     0.058679
      f0      :     0.003919  f :     0.027452
      f+1     :     0.004769
      f-1     :     0.007775
      f+2     :     0.002242
      f-2     :     0.002747
      f+3     :     0.003448
      f-3     :     0.002551

  5 C s       :     3.339841  s :     3.339841
      pz      :     0.828534  p :     2.398931
      px      :     0.892246
      py      :     0.678151
      dz2     :     0.033022  d :     0.141369
      dxz     :     0.020557
      dyz     :     0.020422
      dx2y2   :     0.025598
      dxy     :     0.041771
      f0      :     0.001726  f :     0.015425
      f+1     :     0.001356
      f-1     :     0.003354
      f+2     :     0.001637
      f-2     :     0.003140
      f+3     :     0.002236
      f-3     :     0.001976

  6 C s       :     3.138079  s :     3.138079
      pz      :     0.577111  p :     2.184713
      px      :     0.898839
      py      :     0.708763
      dz2     :     0.074909  d :     0.285968
      dxz     :     0.063609
      dyz     :     0.056008
      dx2y2   :     0.033656
      dxy     :     0.057787
      f0      :     0.006146  f :     0.027739
      f+1     :     0.003784
      f-1     :     0.004540
      f+2     :     0.004048
      f-2     :     0.005217
      f+3     :     0.002030
      f-3     :     0.001975

  7 C s       :     3.147416  s :     3.147416
      pz      :     0.586506  p :     2.217790
      px      :     0.920889
      py      :     0.710395
      dz2     :     0.071818  d :     0.281818
      dxz     :     0.060431
      dyz     :     0.059193
      dx2y2   :     0.032852
      dxy     :     0.057524
      f0      :     0.004784  f :     0.027641
      f+1     :     0.004308
      f-1     :     0.006511
      f+2     :     0.003040
      f-2     :     0.004205
      f+3     :     0.002594
      f-3     :     0.002199

  8 C s       :     3.131299  s :     3.131299
      pz      :     0.619674  p :     2.240476
      px      :     0.930131
      py      :     0.690671
      dz2     :     0.057371  d :     0.276316
      dxz     :     0.058714
      dyz     :     0.069508
      dx2y2   :     0.034053
      dxy     :     0.056670
      f0      :     0.003802  f :     0.027642
      f+1     :     0.004900
      f-1     :     0.008086
      f+2     :     0.002218
      f-2     :     0.002374
      f+3     :     0.003719
      f-3     :     0.002543

  9 C s       :     3.027247  s :     3.027247
      pz      :     0.650768  p :     2.113704
      px      :     0.800345
      py      :     0.662592
      dz2     :     0.064580  d :     0.342049
      dxz     :     0.067050
      dyz     :     0.082884
      dx2y2   :     0.061756
      dxy     :     0.065780
      f0      :     0.004871  f :     0.039874
      f+1     :     0.007789
      f-1     :     0.008746
      f+2     :     0.004367
      f-2     :     0.003093
      f+3     :     0.007276
      f-3     :     0.003732

 10 F s       :     3.920207  s :     3.920207
      pz      :     1.897510  p :     5.250253
      px      :     1.887257
      py      :     1.465486
      dz2     :     0.002152  d :     0.014984
      dxz     :     0.000262
      dyz     :     0.002821
      dx2y2   :     0.005771
      dxy     :     0.003978
      f0      :     0.000049  f :     0.000631
      f+1     :     0.000015
      f-1     :     0.000128
      f+2     :     0.000069
      f-2     :     0.000018
      f+3     :     0.000168
      f-3     :     0.000184

 11 F s       :     3.919807  s :     3.919807
      pz      :     1.479705  p :     5.253288
      px      :     1.903053
      py      :     1.870530
      dz2     :     0.006636  d :     0.014506
      dxz     :     0.003374
      dyz     :     0.003648
      dx2y2   :     0.000417
      dxy     :     0.000431
      f0      :     0.000224  f :     0.000620
      f+1     :     0.000136
      f-1     :     0.000180
      f+2     :     0.000037
      f-2     :     0.000037
      f+3     :     0.000003
      f-3     :     0.000002

 12 F s       :     3.916716  s :     3.916716
      pz      :     1.814759  p :     5.245457
      px      :     1.906919
      py      :     1.523778
      dz2     :     0.002005  d :     0.016098
      dxz     :     0.000788
      dyz     :     0.005278
      dx2y2   :     0.004795
      dxy     :     0.003232
      f0      :     0.000080  f :     0.000694
      f+1     :     0.000003
      f-1     :     0.000119
      f+2     :     0.000187
      f-2     :     0.000063
      f+3     :     0.000107
      f-3     :     0.000134

 13 F s       :     3.918774  s :     3.918774
      pz      :     1.453257  p :     5.240817
      px      :     1.906028
      py      :     1.881533
      dz2     :     0.008287  d :     0.015915
      dxz     :     0.003641
      dyz     :     0.003438
      dx2y2   :     0.000271
      dxy     :     0.000277
      f0      :     0.000340  f :     0.000682
      f+1     :     0.000152
      f-1     :     0.000160
      f+2     :     0.000011
      f-2     :     0.000017
      f+3     :     0.000001
      f-3     :     0.000001

 14 F s       :     3.921078  s :     3.921078
      pz      :     1.670825  p :     5.219487
      px      :     1.910919
      py      :     1.637743
      dz2     :     0.003396  d :     0.016637
      dxz     :     0.001491
      dyz     :     0.006142
      dx2y2   :     0.003203
      dxy     :     0.002405
      f0      :     0.000074  f :     0.000682
      f+1     :     0.000011
      f-1     :     0.000194
      f+2     :     0.000185
      f-2     :     0.000096
      f+3     :     0.000057
      f-3     :     0.000065

 15 F s       :     3.916887  s :     3.916887
      pz      :     1.594650  p :     5.242580
      px      :     1.906461
      py      :     1.741468
      dz2     :     0.004478  d :     0.016154
      dxz     :     0.002496
      dyz     :     0.006178
      dx2y2   :     0.001479
      dxy     :     0.001524
      f0      :     0.000115  f :     0.000693
      f+1     :     0.000055
      f-1     :     0.000264
      f+2     :     0.000124
      f-2     :     0.000097
      f+3     :     0.000021
      f-3     :     0.000017

 16 F s       :     3.916588  s :     3.916588
      pz      :     1.607132  p :     5.234319
      px      :     1.901165
      py      :     1.726022
      dz2     :     0.004214  d :     0.016238
      dxz     :     0.002445
      dyz     :     0.006316
      dx2y2   :     0.001619
      dxy     :     0.001645
      f0      :     0.000109  f :     0.000695
      f+1     :     0.000048
      f-1     :     0.000257
      f+2     :     0.000135
      f-2     :     0.000102
      f+3     :     0.000023
      f-3     :     0.000021

 17 F s       :     3.918134  s :     3.918134
      pz      :     1.719692  p :     5.235890
      px      :     1.906374
      py      :     1.609824
      dz2     :     0.002510  d :     0.016326
      dxz     :     0.001467
      dyz     :     0.006499
      dx2y2   :     0.003291
      dxy     :     0.002559
      f0      :     0.000078  f :     0.000701
      f+1     :     0.000010
      f-1     :     0.000179
      f+2     :     0.000203
      f-2     :     0.000098
      f+3     :     0.000063
      f-3     :     0.000070

 18 F s       :     3.917392  s :     3.917392
      pz      :     1.496531  p :     5.236522
      px      :     1.906170
      py      :     1.833822
      dz2     :     0.006962  d :     0.016330
      dxz     :     0.003368
      dyz     :     0.004741
      dx2y2   :     0.000567
      dxy     :     0.000691
      f0      :     0.000243  f :     0.000697
      f+1     :     0.000114
      f-1     :     0.000233
      f+2     :     0.000045
      f-2     :     0.000054
      f+3     :     0.000004
      f-3     :     0.000003

 19 F s       :     3.917159  s :     3.917159
      pz      :     1.821636  p :     5.233433
      px      :     1.903068
      py      :     1.508728
      dz2     :     0.002040  d :     0.016263
      dxz     :     0.000641
      dyz     :     0.005105
      dx2y2   :     0.005084
      dxy     :     0.003393
      f0      :     0.000079  f :     0.000696
      f+1     :     0.000004
      f-1     :     0.000118
      f+2     :     0.000181
      f-2     :     0.000054
      f+3     :     0.000114
      f-3     :     0.000146

 20 F s       :     3.914707  s :     3.914707
      pz      :     1.443506  p :     5.231908
      px      :     1.902722
      py      :     1.885681
      dz2     :     0.008701  d :     0.016436
      dxz     :     0.003888
      dyz     :     0.003442
      dx2y2   :     0.000199
      dxy     :     0.000205
      f0      :     0.000363  f :     0.000713
      f+1     :     0.000167
      f-1     :     0.000158
      f+2     :     0.000009
[...]
      pz      :     0.000537  p :     0.004212
      px      :    -0.000243
      py      :     0.003917
      dz2     :    -0.000006  d :    -0.000103
      dxz     :    -0.000079
      dyz     :    -0.000041
      dx2y2   :     0.000030
      dxy     :    -0.000007
      f0      :    -0.000001  f :    -0.000007
      f+1     :    -0.000001
      f-1     :    -0.000003
      f+2     :    -0.000000
      f-2     :    -0.000003
      f+3     :    -0.000000
      f-3     :     0.000001

 16 F s       :     0.002277  s :     0.002277
      pz      :     0.001702  p :     0.026343
      px      :     0.014666
      py      :     0.009975
      dz2     :    -0.000042  d :     0.000021
      dxz     :    -0.000057
      dyz     :     0.000055
      dx2y2   :     0.000008
      dxy     :     0.000057
      f0      :     0.000002  f :    -0.000002
      f+1     :    -0.000001
      f-1     :    -0.000004
      f+2     :    -0.000001
      f-2     :     0.000001
      f+3     :    -0.000000
      f-3     :     0.000001

 17 F s       :     0.000395  s :     0.000395
      pz      :     0.000148  p :     0.001016
      px      :     0.000820
      py      :     0.000047
      dz2     :     0.000025  d :     0.000179
      dxz     :     0.000007
      dyz     :    -0.000000
      dx2y2   :     0.000146
      dxy     :     0.000001
      f0      :     0.000000  f :     0.000008
      f+1     :    -0.000000
      f-1     :     0.000000
      f+2     :     0.000003
      f-2     :     0.000000
      f+3     :     0.000000
      f-3     :     0.000004

 18 F s       :     0.000083  s :     0.000083
      pz      :     0.000113  p :     0.002196
      px      :     0.000884
      py      :     0.001200
      dz2     :     0.000086  d :     0.000172
      dxz     :     0.000036
      dyz     :     0.000018
      dx2y2   :    -0.000001
      dxy     :     0.000032
      f0      :     0.000005  f :     0.000009
      f+1     :    -0.000000
      f-1     :    -0.000000
      f+2     :    -0.000000
      f-2     :     0.000003
      f+3     :     0.000000
      f-3     :     0.000000

 19 F s       :     0.000031  s :     0.000031
      pz      :     0.000005  p :    -0.000012
      px      :    -0.000013
      py      :    -0.000005
      dz2     :     0.000001  d :     0.000009
      dxz     :     0.000004
      dyz     :     0.000006
      dx2y2   :     0.000001
      dxy     :    -0.000003
      f0      :     0.000000  f :     0.000000
      f+1     :     0.000000
      f-1     :     0.000000
      f+2     :     0.000000
      f-2     :     0.000000
      f+3     :     0.000000
      f-3     :    -0.000000

 20 F s       :     0.000004  s :     0.000004
      pz      :    -0.000039  p :     0.000170
      px      :     0.000081
      py      :     0.000128
      dz2     :     0.000004  d :     0.000018
      dxz     :     0.000001
      dyz     :     0.000006
      dx2y2   :     0.000007
      dxy     :    -0.000000
      f0      :     0.000000  f :     0.000001
      f+1     :     0.000000
      f-1     :     0.000000
      f+2     :     0.000001
      f-2     :    -0.000000
      f+3     :     0.000000
      f-3     :     0.000000

 21 F s       :    -0.000001  s :    -0.000001
      pz      :     0.000005  p :    -0.000002
      px      :     0.000015
      py      :    -0.000022
      dz2     :     0.000000  d :     0.000004
      dxz     :     0.000000
      dyz     :     0.000000
      dx2y2   :     0.000004
      dxy     :     0.000000
      f0      :    -0.000000  f :     0.000000
      f+1     :     0.000000
      f-1     :     0.000000
      f+2     :     0.000000
      f-2     :     0.000000
      f+3     :     0.000000
      f-3     :     0.000000

 22 F s       :     0.000018  s :     0.000018
      pz      :     0.000047  p :     0.000296
      px      :     0.000219
      py      :     0.000031
      dz2     :     0.000000  d :     0.000012
      dxz     :     0.000006
      dyz     :     0.000001
      dx2y2   :     0.000005
      dxy     :     0.000000
      f0      :     0.000000  f :     0.000001
      f+1     :     0.000000
      f-1     :     0.000000
      f+2     :     0.000000
      f-2     :    -0.000000
      f+3     :     0.000000
      f-3     :     0.000000

 23 F s       :     0.000005  s :     0.000005
      pz      :    -0.000010  p :     0.000042
      px      :     0.000017
      py      :     0.000035
      dz2     :     0.000000  d :     0.000005
      dxz     :     0.000002
      dyz     :     0.000002
      dx2y2   :     0.000000
      dxy     :     0.000001
      f0      :     0.000000  f :     0.000000
      f+1     :     0.000000
      f-1     :     0.000000
      f+2     :     0.000000
      f-2     :     0.000000
      f+3     :    -0.000000
      f-3     :     0.000000

 24 H s       :     0.000128  s :     0.000128
      pz      :     0.000035  p :     0.000041
      px      :     0.000012
      py      :    -0.000005



                      *****************************
                      * MAYER POPULATION ANALYSIS *
                      *****************************

  NA   - Mulliken gross atomic population
  ZA   - Total nuclear charge
  QA   - Mulliken gross atomic charge
  VA   - Mayer's total valence
  BVA  - Mayer's bonded valence
  FA   - Mayer's free valence

  ATOM       NA         ZA         QA         VA         BVA        FA
  0 C      5.7721     6.0000     0.2279     4.3950     4.3950     0.0000
  1 O      8.3513     8.0000    -0.3513     2.1708     2.1708     0.0000
  2 O      8.2863     8.0000    -0.2863     2.2030     2.2029     0.0001
  3 C      5.5948     6.0000     0.4052     4.0257     4.0248     0.0009
  4 C      5.6295     6.0000     0.3705     4.1729     4.1704     0.0025
  5 C      5.8953     6.0000     0.1047     3.8992     3.3144     0.5848
  6 C      5.6276     6.0000     0.3724     4.2127     4.2100     0.0027
  7 C      5.6807     6.0000     0.3193     4.0447     4.0445     0.0002
  8 C      5.6754     6.0000     0.3246     4.1630     4.1630     0.0000
  9 C      5.5234     6.0000     0.4766     4.5068     4.5068     0.0000
 10 F      9.1844     9.0000    -0.1844     1.1243     1.1243     0.0000
 11 F      9.1817     9.0000    -0.1817     1.1369     1.1369     0.0000
 12 F      9.1751     9.0000    -0.1751     1.1354     1.1353     0.0001
 13 F      9.1765     9.0000    -0.1765     1.1397     1.1396     0.0001
 14 F      9.1418     9.0000    -0.1418     1.2008     1.1892     0.0116
 15 F      9.1756     9.0000    -0.1756     1.1368     1.1367     0.0000
 16 F      9.1766     9.0000    -0.1766     1.1287     1.1279     0.0008
 17 F      9.1734     9.0000    -0.1734     1.1476     1.1476     0.0000
 18 F      9.1693     9.0000    -0.1693     1.1501     1.1501     0.0000
 19 F      9.1652     9.0000    -0.1652     1.1543     1.1543     0.0000
 20 F      9.1632     9.0000    -0.1632     1.1539     1.1539     0.0000
 21 F      9.1552     9.0000    -0.1552     1.1629     1.1629     0.0000
 22 F      9.1526     9.0000    -0.1526     1.1673     1.1673     0.0000
 23 F      9.1526     9.0000    -0.1526     1.1662     1.1662     0.0000
 24 H      0.6203     1.0000     0.3797     0.8806     0.8806     0.0000

  Mayer bond orders larger than 0.100000
B(  0-C ,  1-O ) :   1.3070 B(  0-C ,  2-O ) :   2.0826 B(  0-C ,  3-C ) :   0.9011 
B(  1-O , 24-H ) :   0.8228 B(  3-C ,  4-C ) :   0.9164 B(  3-C , 10-F ) :   1.0681 
B(  3-C , 11-F ) :   1.0894 B(  4-C ,  5-C ) :   1.0155 B(  4-C , 12-F ) :   1.0927 
B(  4-C , 13-F ) :   1.0771 B(  5-C ,  6-C ) :   1.0474 B(  5-C , 14-F ) :   1.1304 
B(  6-C ,  7-C ) :   0.9143 B(  6-C , 15-F ) :   1.0690 B(  6-C , 16-F ) :   1.0726 
B(  7-C ,  8-C ) :   0.9118 B(  7-C , 17-F ) :   1.0727 B(  7-C , 18-F ) :   1.0832 
B(  8-C ,  9-C ) :   0.9644 B(  8-C , 19-F ) :   1.0881 B(  8-C , 20-F ) :   1.0980 
B(  9-C , 21-F ) :   1.1436 B(  9-C , 22-F ) :   1.1474 B(  9-C , 23-F ) :   1.1550 


-------
TIMINGS
-------

Total SCF time: 0 days 0 hours 0 min 39 sec 

Total time                  ....      39.882 sec
Sum of individual times     ....      38.557 sec  ( 96.7%)

SCF preparation             ....       1.209 sec  (  3.0%)
Fock matrix formation       ....      32.776 sec  ( 82.2%)
  Startup                   ....       0.158 sec  (  0.5% of F)
  Split-RI-J                ....       1.985 sec  (  6.1% of F)
  Chain of spheres X        ....      22.881 sec  ( 69.8% of F)
  XC integration            ....       5.594 sec  ( 17.1% of F)
    XC Preparation          ....       0.000 sec  (  0.0% of XC)
    Basis function eval.    ....       0.470 sec  (  8.4% of XC)
    Density eval.           ....       1.102 sec  ( 19.7% of XC)
    XC-Functional eval.     ....       0.044 sec  (  0.8% of XC)
    XC-Potential eval.      ....       1.217 sec  ( 21.8% of XC)
  CPCM terms                ....       1.717 sec  (  5.2% of F)
Diagonalization             ....       0.000 sec  (  0.0%)
Density matrix formation    ....       0.457 sec  (  1.1%)
Total Energy calculation    ....       0.387 sec  (  1.0%)
Population analysis         ....       0.409 sec  (  1.0%)
Orbital Transformation      ....       0.407 sec  (  1.0%)
Orbital Orthonormalization  ....       0.000 sec  (  0.0%)
DIIS solution               ....       0.557 sec  (  1.4%)
SOSCF solution              ....       2.357 sec  (  5.9%)
Finished LeanSCF after  40.2 sec

Maximum memory used throughout the entire LEANSCF-calculation: 111.0 MB


-------------------------------------------------------------------------------
                          DFT DISPERSION CORRECTION                            
                                                                               
                              DFTD3 V3.1  Rev 1                                
                          USING Becke-Johnson damping                          
-------------------------------------------------------------------------------
The B3LYP functional is recognized
Active option DFTDOPT                   ...         4   

molecular C6(AA) [au] = 6514.716007 


            DFT-D V3
 parameters
 s6 scaling factor         :     1.0000 
 a1 scaling factor         :     0.3981 
 s8 scaling factor         :     1.9889 
 a2 scaling factor         :     4.4211 
 ad hoc parameters k1-k3   :    16.0000     1.3333    -4.0000 

 Edisp/kcal,au: -27.160572028856  -0.043283122015 
 E6   /kcal   : -12.937154441 
 E8   /kcal   : -14.223417587 
 % E8         :  52.367886701 

-------------------------   ----------------
Dispersion correction           -0.043283122
-------------------------   ----------------


-------------------------   --------------------
FINAL SINGLE POINT ENERGY     -1853.737129026292
-------------------------   --------------------

                                *** OPTIMIZATION RUN DONE ***



           ************************************************************
           *        Program running with 20 parallel MPI-processes    *
           *              working on a common directory               *
           ************************************************************

------------------------------------------------------------------------------
                              ORCA PROPERTY CALCULATIONS
------------------------------------------------------------------------------

GBWName                                 ... rf_mecn_opt_B3L_C4_P_B.gbw
Number of atoms                         ...     25
Number of basis functions               ...    750
Max core memory                         ...   8000 MB

Electric properties:
Dipole moment                           ... YES
Quadrupole moment                       ...  NO
Static polarizability (Dipole/Dipole)   ...  NO
Static polarizability (Dipole/Quad.)    ...  NO
Static polarizability (Quad./Quad.)     ...  NO
Static polarizability (Velocity)        ...  NO

Atomic electric properties:
Dipole moment                           ...  NO
Quadrupole moment                       ...  NO
Static polarizability                   ...  NO

Choice of electric origin               ... Center of mass
Position of electric origin             ...    -0.154934    -0.037664    -0.234829

General magnetic properties:
Magnetizability                         ...  NO

EPR properties:
g-Tensor (aka g-matrix)                 ...  NO
Zero-Field splitting spin-orbit         ...  NO
Zero-field splitting spin-spin          ...  NO
Hyperfine couplings                     ...  NO (   0 nuclei)
Quadrupole couplings                    ...  NO (   0 nuclei)
Contact density                         ...  NO (   0 nuclei)

NMR properties:
Chemical shifts                         ...  NO (   0 nuclei)
Spin-rotation constants                 ...  NO (   0 nuclei)
Spin-spin couplings                     ...  NO (   0 nuclei,    0 pairs)

Choice of magnetic origin               ... GIAO
Position of magnetic origin             ...     0.000000     0.000000     0.000000

Properties with geometric perturbations:
SCF Hessian                             ...  NO
IR spectrum                             ...  NO
VCD spectrum                            ...  NO
X-ray spectroscopy properties:
SCF XES/XAS/RIXS spectra                ...  NO


-------------
DIPOLE MOMENT
-------------

Method             : SCF
Type of density    : Electron Density
Multiplicity       :   2
Irrep              :   0
Energy             : -1853.6938459042771683 Eh
Relativity type    : 
Basis              : AO
                                X                 Y                 Z
Electronic contribution:    -14.113824919       0.653984983      -1.698564327
Nuclear contribution   :     15.146210870      -1.260378005       1.209505218
                        -----------------------------------------
Total Dipole Moment    :      1.032385951      -0.606393022      -0.489059109
                        -----------------------------------------
Magnitude (a.u.)       :      1.293333701
Magnitude (Debye)      :      3.287393013



--------------------
Rotational spectrum 
--------------------
 
Rotational constants in cm-1:             0.018085             0.004424             0.004293 
Rotational constants in MHz :           542.164115           132.633893           128.709507 

Dipole components along the rotational axes: 
x,y,z [a.u.] :     1.078015    -0.257841    -0.666418 
x,y,z [Debye]:     2.740097    -0.655380    -1.693900 

 

Dipole moment calculation done in   0.2 sec 

Maximum memory used throughout the entire PROP-calculation: 58.6 MB

--------------------------------
SUGGESTED CITATIONS FOR THIS RUN
--------------------------------

Below you find a list of papers that are relevant to this ORCA run
We neither can nor want to force you to cite these papers, but we appreciate if you do
You receive ORCA, which is the product of decades of hard work by many enthusiastic individuals, for free
The only thing we kindly ask in return is that you cite our papers,
We deeply appreciate it, if you show your appreciation for ORCA by not just citing the generic ORCA reference.

Please note that relegating all ORCA citations to the supporting information does *not* help us.
SI sections are not indexed - citations you put there will not count into any citation statistics
But we need these citations in order to attract the funding resources that allow us to do what we are doing

Therefore, if you are a happy ORCA user, please consider citing a few of the papers listed below in the main body of your paper

In addition to the list printed below, the program has created the file rf_mecn_opt_B3L_C4_P_B.bibtex that contains the list in bibtex format
You can import this file easily into all common literature databanks and citation aid programs


List of essential papers. We consider these as the minimum necessary citations

  1. Neese,F.
     Software update: the ORCA program system, version 5.0
     WIRES Comput. Molec. Sci., 2022 12(1)e1606
     doi.org/10.1002/wcms.1606

List of papers to cite with high priority. The work reported in these papers was absolutely
necessary for this run to complete.
Our perspective: the developers of density functionals and basis sets usually get cited in chemistry papers
Good! But without the algorithms to do something with them, the functionals or basis sets would not do anything.
Hence, in our opinion, the algorithm design and method developments papers are equally worthy of getting cited

  1. Neese,F.
     An improvement of the resolution of the identity approximation for the formation of the Coulomb matrix
     J. Comp. Chem., 2003 24(14)1740-1747
     doi.org/10.1002/jcc.10318
  2. Neese,F.; Wennmohs,F.; Hansen,A.; Becker,U.
     Efficient, approximate and parallel Hartree-Fock and hybrid DFT calculations. A 'chain-of-spheres' algorithm for the Hartree-Fock exchange
     Chem. Phys., 2009 356(1-3)98-109
     doi.org/10.1016/j.chemphys.2008.10.036
  3. Garcia-Rates,M.; Neese,F.
     Effect of the Solute Cavity on the Solvation Energy and its Derivatives within the Framework of the Gaussian Charge Scheme
     J. Comput. Chem., 2020 41 922-939
     doi.org/10.1002/jcc.26139
  4. Helmich-Paris,B.; de Souza,B.; Neese,F.; Izsák,R.
     An improved chain of spheres for exchange algorithm
     J. Chem. Phys., 2021 155 104109
     doi.org/doi: 10.1063/5.0058766.
  5. Neese,F.
     The SHARK Integral Generation and Digestion System
     J. Comp. Chem., 2022  1-16
     doi.org/10.1002/jcc.26942
  6. Grimme,S.; Antony,J.; Ehrlich,S.; Krieg,H.
     A consistent and accurate ab initio parametrization of density functional dispersion correction (DFT-D) for the 94 elements H-Pu
     J. Chem. Phys., 2010 132 154104
     doi.org/10.1063/1.3382344
  7. Grimme,S.; Ehrlich,S.; Goerigk,L.
     Effect of the damping function in dispersion corrected density functional theory
     J. Comput. Chem., 2011 32(7)1456-1465
     doi.org/10.1002/jcc.21759

List of suggested additional citations. These are papers that are important in the 'surrounding' of 
of this run, or papers that preceded the highly important papers. If you like your results we are grateful for a citation.

  1. Izsak,R.; Neese,F.
     An overlap fitted chain of spheres exchange method
     J. Chem. Phys., 2011 135 144105
     doi.org/10.1063/1.3646921
  2. Izsak,R.; Hansen,A.; Neese,F.
     The resolution of identity and chain of spheres approximations for the LPNO-CCSD singles Fock term
     Molec. Phys., 2012 110 2413-2417
     doi.org/10.1080/00268976.2012.687466
  3. Neese,F.
     The ORCA program system
     WIRES Comput. Molec. Sci., 2012 2(1)73-78
     doi.org/10.1002/wcms.81
  4. Izsak,R.; Neese,F.; Klopper,W.
     Robust fitting techniques in the chain of spheres approximation to the Fock exchange: The role of the complementary space
     J. Chem. Phys., 2013 139 
     doi.org/10.1063/1.4819264
  5. Neese,F.
     Software update: the ORCA program system, version 4.0
     WIRES Comput. Molec. Sci., 2018 8(1)1-6
     doi.org/10.1002/wcms.1327
  6. Neese,F.; Wennmohs,F.; Becker,U.; Riplinger,C.
     The ORCA quantum chemistry program package
     J. Chem. Phys., 2020 152 Art. No. L224108
     doi.org/10.1063/5.0004608

List of optional additional citations

  1. Neese,F.
     Approximate second-order SCF convergence for spin unrestricted wavefunctions
     Chem. Phys. Lett., 2000 325(1-3)93-98
     doi.org/10.1016/s0009-2614(00)00662-x

Timings for individual modules:

Sum of individual times          ...     3786.841 sec (=  63.114 min)
Startup calculation              ...      177.022 sec (=   2.950 min)   4.7 %
SCF iterations                   ...     2663.929 sec (=  44.399 min)  70.3 %
Property calculations            ...        1.030 sec (=   0.017 min)   0.0 %
SCF Gradient evaluation          ...      943.978 sec (=  15.733 min)  24.9 %
Geometry relaxation              ...        0.881 sec (=   0.015 min)   0.0 %
                             ****ORCA TERMINATED NORMALLY****
TOTAL RUN TIME: 0 days 1 hours 3 minutes 40 seconds 553 msec
